[ atomtypes ]
; name at.num mass charge ptype sigma epsilon
SI 14 28.08600 0.000000 A 0.4150 0.3891120
OM 8 15.99940 0.000000 A 0.3470 0.2259360
OA 8 15.99940 0.000000 A 0.3470 0.5104480
HG 1 2.01600 0.000000 A 0.1085 0.0627600

[ moleculetype ]
; name nrexcl
MSN_0_0 3

[ atoms ]
; nr type resnr resid atom cgnr charge mass
1 OM 1 OM OM1 1 -0.550000 15.99940
2 OM 2 OM OM1 2 -0.550000 15.99940
3 OM 3 OM OM1 3 -0.550000 15.99940
4 OM 4 OM OM1 4 -0.550000 15.99940
5 OM 5 OM OM1 5 -0.550000 15.99940
6 OM 6 OM OM1 6 -0.550000 15.99940
7 OM 7 OM OM1 7 -0.550000 15.99940
8 OM 8 OM OM1 8 -0.550000 15.99940
9 OM 9 OM OM1 9 -0.550000 15.99940
10 OM 10 OM OM1 10 -0.550000 15.99940
11 OM 11 OM OM1 11 -0.550000 15.99940
12 OM 12 OM OM1 12 -0.550000 15.99940
13 OM 13 OM OM1 13 -0.550000 15.99940
14 OM 14 OM OM1 14 -0.550000 15.99940
15 OM 15 OM OM1 15 -0.550000 15.99940
16 OM 16 OM OM1 16 -0.550000 15.99940
17 OM 17 OM OM1 17 -0.550000 15.99940
18 OM 18 OM OM1 18 -0.550000 15.99940
19 OM 19 OM OM1 19 -0.550000 15.99940
20 OM 20 OM OM1 20 -0.550000 15.99940
21 OM 21 OM OM1 21 -0.550000 15.99940
22 OM 22 OM OM1 22 -0.550000 15.99940
23 OM 23 OM OM1 23 -0.550000 15.99940
24 OM 24 OM OM1 24 -0.550000 15.99940
25 OM 25 OM OM1 25 -0.550000 15.99940
26 OM 26 OM OM1 26 -0.550000 15.99940
27 OM 27 OM OM1 27 -0.550000 15.99940
28 OM 28 OM OM1 28 -0.550000 15.99940
29 OM 29 OM OM1 29 -0.550000 15.99940
30 OM 30 OM OM1 30 -0.550000 15.99940
31 OM 31 OM OM1 31 -0.550000 15.99940
32 OM 32 OM OM1 32 -0.550000 15.99940
33 OM 33 OM OM1 33 -0.550000 15.99940
34 OM 34 OM OM1 34 -0.550000 15.99940
35 OM 35 OM OM1 35 -0.550000 15.99940
36 OM 36 OM OM1 36 -0.550000 15.99940
37 OM 37 OM OM1 37 -0.550000 15.99940
38 OM 38 OM OM1 38 -0.550000 15.99940
39 OM 39 OM OM1 39 -0.550000 15.99940
40 OM 40 OM OM1 40 -0.550000 15.99940
41 OM 41 OM OM1 41 -0.550000 15.99940
42 OM 42 OM OM1 42 -0.550000 15.99940
43 OM 43 OM OM1 43 -0.550000 15.99940
44 OM 44 OM OM1 44 -0.550000 15.99940
45 OM 45 OM OM1 45 -0.550000 15.99940
46 OM 46 OM OM1 46 -0.550000 15.99940
47 OM 47 OM OM1 47 -0.550000 15.99940
48 OM 48 OM OM1 48 -0.550000 15.99940
49 OM 49 OM OM1 49 -0.550000 15.99940
50 OM 50 OM OM1 50 -0.550000 15.99940
51 OM 51 OM OM1 51 -0.550000 15.99940
52 OM 52 OM OM1 52 -0.550000 15.99940
53 OM 53 OM OM1 53 -0.550000 15.99940
54 OM 54 OM OM1 54 -0.550000 15.99940
55 OM 55 OM OM1 55 -0.550000 15.99940
56 OM 56 OM OM1 56 -0.550000 15.99940
57 OM 57 OM OM1 57 -0.550000 15.99940
58 OM 58 OM OM1 58 -0.550000 15.99940
59 OM 59 OM OM1 59 -0.550000 15.99940
60 OM 60 OM OM1 60 -0.550000 15.99940
61 OM 61 OM OM1 61 -0.550000 15.99940
62 OM 62 OM OM1 62 -0.550000 15.99940
63 OM 63 OM OM1 63 -0.550000 15.99940
64 OM 64 OM OM1 64 -0.550000 15.99940
65 OM 65 OM OM1 65 -0.550000 15.99940
66 OM 66 OM OM1 66 -0.550000 15.99940
67 OM 67 OM OM1 67 -0.550000 15.99940
68 OM 68 OM OM1 68 -0.550000 15.99940
69 OM 69 OM OM1 69 -0.550000 15.99940
70 OM 70 OM OM1 70 -0.550000 15.99940
71 OM 71 OM OM1 71 -0.550000 15.99940
72 OM 72 OM OM1 72 -0.550000 15.99940
73 OM 73 OM OM1 73 -0.550000 15.99940
74 OM 74 OM OM1 74 -0.550000 15.99940
75 OM 75 OM OM1 75 -0.550000 15.99940
76 OM 76 OM OM1 76 -0.550000 15.99940
77 OM 77 OM OM1 77 -0.550000 15.99940
78 OM 78 OM OM1 78 -0.550000 15.99940
79 OM 79 OM OM1 79 -0.550000 15.99940
80 OM 80 OM OM1 80 -0.550000 15.99940
81 OM 81 OM OM1 81 -0.550000 15.99940
82 OM 82 OM OM1 82 -0.550000 15.99940
83 OM 83 OM OM1 83 -0.550000 15.99940
84 OM 84 OM OM1 84 -0.550000 15.99940
85 OM 85 OM OM1 85 -0.550000 15.99940
86 OM 86 OM OM1 86 -0.550000 15.99940
87 OM 87 OM OM1 87 -0.550000 15.99940
88 OM 88 OM OM1 88 -0.550000 15.99940
89 OM 89 OM OM1 89 -0.550000 15.99940
90 OM 90 OM OM1 90 -0.550000 15.99940
91 OM 91 OM OM1 91 -0.550000 15.99940
92 OM 92 OM OM1 92 -0.550000 15.99940
93 OM 93 OM OM1 93 -0.550000 15.99940
94 OM 94 OM OM1 94 -0.550000 15.99940
95 OM 95 OM OM1 95 -0.550000 15.99940
96 OM 96 OM OM1 96 -0.550000 15.99940
97 OM 97 OM OM1 97 -0.550000 15.99940
98 OM 98 OM OM1 98 -0.550000 15.99940
99 OM 99 OM OM1 99 -0.550000 15.99940
100 OM 100 OM OM1 100 -0.550000 15.99940
101 OM 101 OM OM1 101 -0.550000 15.99940
102 OM 102 OM OM1 102 -0.550000 15.99940
103 OM 103 OM OM1 103 -0.550000 15.99940
104 OM 104 OM OM1 104 -0.550000 15.99940
105 OM 105 OM OM1 105 -0.550000 15.99940
106 OM 106 OM OM1 106 -0.550000 15.99940
107 OM 107 OM OM1 107 -0.550000 15.99940
108 OM 108 OM OM1 108 -0.550000 15.99940
109 OM 109 OM OM1 109 -0.550000 15.99940
110 OM 110 OM OM1 110 -0.550000 15.99940
111 OM 111 OM OM1 111 -0.550000 15.99940
112 OM 112 OM OM1 112 -0.550000 15.99940
113 OM 113 OM OM1 113 -0.550000 15.99940
114 OM 114 OM OM1 114 -0.550000 15.99940
115 OM 115 OM OM1 115 -0.550000 15.99940
116 OM 116 OM OM1 116 -0.550000 15.99940
117 OM 117 OM OM1 117 -0.550000 15.99940
118 OM 118 OM OM1 118 -0.550000 15.99940
119 OM 119 OM OM1 119 -0.550000 15.99940
120 OM 120 OM OM1 120 -0.550000 15.99940
121 OM 121 OM OM1 121 -0.550000 15.99940
122 OM 122 OM OM1 122 -0.550000 15.99940
123 OM 123 OM OM1 123 -0.550000 15.99940
124 OM 124 OM OM1 124 -0.550000 15.99940
125 OM 125 OM OM1 125 -0.550000 15.99940
126 OM 126 OM OM1 126 -0.550000 15.99940
127 OM 127 OM OM1 127 -0.550000 15.99940
128 OM 128 OM OM1 128 -0.550000 15.99940
129 OM 129 OM OM1 129 -0.550000 15.99940
130 OM 130 OM OM1 130 -0.550000 15.99940
131 OM 131 OM OM1 131 -0.550000 15.99940
132 OM 132 OM OM1 132 -0.550000 15.99940
133 OM 133 OM OM1 133 -0.550000 15.99940
134 OM 134 OM OM1 134 -0.550000 15.99940
135 OM 135 OM OM1 135 -0.550000 15.99940
136 OM 136 OM OM1 136 -0.550000 15.99940
137 OM 137 OM OM1 137 -0.550000 15.99940
138 OM 138 OM OM1 138 -0.550000 15.99940
139 OM 139 OM OM1 139 -0.550000 15.99940
140 OM 140 OM OM1 140 -0.550000 15.99940
141 OM 141 OM OM1 141 -0.550000 15.99940
142 OM 142 OM OM1 142 -0.550000 15.99940
143 OM 143 OM OM1 143 -0.550000 15.99940
144 OM 144 OM OM1 144 -0.550000 15.99940
145 OM 145 OM OM1 145 -0.550000 15.99940
146 OM 146 OM OM1 146 -0.550000 15.99940
147 OM 147 OM OM1 147 -0.550000 15.99940
148 OM 148 OM OM1 148 -0.550000 15.99940
149 OM 149 OM OM1 149 -0.550000 15.99940
150 OM 150 OM OM1 150 -0.550000 15.99940
151 OM 151 OM OM1 151 -0.550000 15.99940
152 OM 152 OM OM1 152 -0.550000 15.99940
153 OM 153 OM OM1 153 -0.550000 15.99940
154 OM 154 OM OM1 154 -0.550000 15.99940
155 OM 155 OM OM1 155 -0.550000 15.99940
156 OM 156 OM OM1 156 -0.550000 15.99940
157 OM 157 OM OM1 157 -0.550000 15.99940
158 OM 158 OM OM1 158 -0.550000 15.99940
159 OM 159 OM OM1 159 -0.550000 15.99940
160 OM 160 OM OM1 160 -0.550000 15.99940
161 OM 161 OM OM1 161 -0.550000 15.99940
162 OM 162 OM OM1 162 -0.550000 15.99940
163 OM 163 OM OM1 163 -0.550000 15.99940
164 OM 164 OM OM1 164 -0.550000 15.99940
165 OM 165 OM OM1 165 -0.550000 15.99940
166 OM 166 OM OM1 166 -0.550000 15.99940
167 OM 167 OM OM1 167 -0.550000 15.99940
168 OM 168 OM OM1 168 -0.550000 15.99940
169 OM 169 OM OM1 169 -0.550000 15.99940
170 OM 170 OM OM1 170 -0.550000 15.99940
171 OM 171 OM OM1 171 -0.550000 15.99940
172 OM 172 OM OM1 172 -0.550000 15.99940
173 OM 173 OM OM1 173 -0.550000 15.99940
174 OM 174 OM OM1 174 -0.550000 15.99940
175 OM 175 OM OM1 175 -0.550000 15.99940
176 OM 176 OM OM1 176 -0.550000 15.99940
177 OM 177 OM OM1 177 -0.550000 15.99940
178 OM 178 OM OM1 178 -0.550000 15.99940
179 OM 179 OM OM1 179 -0.550000 15.99940
180 OM 180 OM OM1 180 -0.550000 15.99940
181 OM 181 OM OM1 181 -0.550000 15.99940
182 OM 182 OM OM1 182 -0.550000 15.99940
183 OM 183 OM OM1 183 -0.550000 15.99940
184 OM 184 OM OM1 184 -0.550000 15.99940
185 OM 185 OM OM1 185 -0.550000 15.99940
186 OM 186 OM OM1 186 -0.550000 15.99940
187 OM 187 OM OM1 187 -0.550000 15.99940
188 OM 188 OM OM1 188 -0.550000 15.99940
189 OM 189 OM OM1 189 -0.550000 15.99940
190 OM 190 OM OM1 190 -0.550000 15.99940
191 OM 191 OM OM1 191 -0.550000 15.99940
192 OM 192 OM OM1 192 -0.550000 15.99940
193 OM 193 OM OM1 193 -0.550000 15.99940
194 OM 194 OM OM1 194 -0.550000 15.99940
195 OM 195 OM OM1 195 -0.550000 15.99940
196 OM 196 OM OM1 196 -0.550000 15.99940
197 OM 197 OM OM1 197 -0.550000 15.99940
198 OM 198 OM OM1 198 -0.550000 15.99940
199 OM 199 OM OM1 199 -0.550000 15.99940
200 OM 200 OM OM1 200 -0.550000 15.99940
201 OM 201 OM OM1 201 -0.550000 15.99940
202 OM 202 OM OM1 202 -0.550000 15.99940
203 OM 203 OM OM1 203 -0.550000 15.99940
204 OM 204 OM OM1 204 -0.550000 15.99940
205 OM 205 OM OM1 205 -0.550000 15.99940
206 OM 206 OM OM1 206 -0.550000 15.99940
207 OM 207 OM OM1 207 -0.550000 15.99940
208 OM 208 OM OM1 208 -0.550000 15.99940
209 OM 209 OM OM1 209 -0.550000 15.99940
210 OM 210 OM OM1 210 -0.550000 15.99940
211 OM 211 OM OM1 211 -0.550000 15.99940
212 OM 212 OM OM1 212 -0.550000 15.99940
213 OM 213 OM OM1 213 -0.550000 15.99940
214 OM 214 OM OM1 214 -0.550000 15.99940
215 OM 215 OM OM1 215 -0.550000 15.99940
216 OM 216 OM OM1 216 -0.550000 15.99940
217 OM 217 OM OM1 217 -0.550000 15.99940
218 OM 218 OM OM1 218 -0.550000 15.99940
219 OM 219 OM OM1 219 -0.550000 15.99940
220 OM 220 OM OM1 220 -0.550000 15.99940
221 OM 221 OM OM1 221 -0.550000 15.99940
222 OM 222 OM OM1 222 -0.550000 15.99940
223 OM 223 OM OM1 223 -0.550000 15.99940
224 OM 224 OM OM1 224 -0.550000 15.99940
225 OM 225 OM OM1 225 -0.550000 15.99940
226 OM 226 OM OM1 226 -0.550000 15.99940
227 OM 227 OM OM1 227 -0.550000 15.99940
228 OM 228 OM OM1 228 -0.550000 15.99940
229 OM 229 OM OM1 229 -0.550000 15.99940
230 OM 230 OM OM1 230 -0.550000 15.99940
231 OM 231 OM OM1 231 -0.550000 15.99940
232 OM 232 OM OM1 232 -0.550000 15.99940
233 OM 233 OM OM1 233 -0.550000 15.99940
234 OM 234 OM OM1 234 -0.550000 15.99940
235 OM 235 OM OM1 235 -0.550000 15.99940
236 OM 236 OM OM1 236 -0.550000 15.99940
237 OM 237 OM OM1 237 -0.550000 15.99940
238 OM 238 OM OM1 238 -0.550000 15.99940
239 OM 239 OM OM1 239 -0.550000 15.99940
240 OM 240 OM OM1 240 -0.550000 15.99940
241 OM 241 OM OM1 241 -0.550000 15.99940
242 OM 242 OM OM1 242 -0.550000 15.99940
243 OM 243 OM OM1 243 -0.550000 15.99940
244 OM 244 OM OM1 244 -0.550000 15.99940
245 OM 245 OM OM1 245 -0.550000 15.99940
246 OM 246 OM OM1 246 -0.550000 15.99940
247 OM 247 OM OM1 247 -0.550000 15.99940
248 OM 248 OM OM1 248 -0.550000 15.99940
249 OM 249 OM OM1 249 -0.550000 15.99940
250 OM 250 OM OM1 250 -0.550000 15.99940
251 OM 251 OM OM1 251 -0.550000 15.99940
252 OM 252 OM OM1 252 -0.550000 15.99940
253 OM 253 OM OM1 253 -0.550000 15.99940
254 OM 254 OM OM1 254 -0.550000 15.99940
255 OM 255 OM OM1 255 -0.550000 15.99940
256 OM 256 OM OM1 256 -0.550000 15.99940
257 OM 257 OM OM1 257 -0.550000 15.99940
258 OM 258 OM OM1 258 -0.550000 15.99940
259 OM 259 OM OM1 259 -0.550000 15.99940
260 OM 260 OM OM1 260 -0.550000 15.99940
261 OM 261 OM OM1 261 -0.550000 15.99940
262 OM 262 OM OM1 262 -0.550000 15.99940
263 OM 263 OM OM1 263 -0.550000 15.99940
264 OM 264 OM OM1 264 -0.550000 15.99940
265 OM 265 OM OM1 265 -0.550000 15.99940
266 OM 266 OM OM1 266 -0.550000 15.99940
267 OM 267 OM OM1 267 -0.550000 15.99940
268 OM 268 OM OM1 268 -0.550000 15.99940
269 OM 269 OM OM1 269 -0.550000 15.99940
270 OM 270 OM OM1 270 -0.550000 15.99940
271 OM 271 OM OM1 271 -0.550000 15.99940
272 OM 272 OM OM1 272 -0.550000 15.99940
273 OM 273 OM OM1 273 -0.550000 15.99940
274 OM 274 OM OM1 274 -0.550000 15.99940
275 OM 275 OM OM1 275 -0.550000 15.99940
276 OM 276 OM OM1 276 -0.550000 15.99940
277 OM 277 OM OM1 277 -0.550000 15.99940
278 OM 278 OM OM1 278 -0.550000 15.99940
279 OM 279 OM OM1 279 -0.550000 15.99940
280 OM 280 OM OM1 280 -0.550000 15.99940
281 OM 281 OM OM1 281 -0.550000 15.99940
282 OM 282 OM OM1 282 -0.550000 15.99940
283 OM 283 OM OM1 283 -0.550000 15.99940
284 OM 284 OM OM1 284 -0.550000 15.99940
285 OM 285 OM OM1 285 -0.550000 15.99940
286 OM 286 OM OM1 286 -0.550000 15.99940
287 OM 287 OM OM1 287 -0.550000 15.99940
288 OM 288 OM OM1 288 -0.550000 15.99940
289 OM 289 OM OM1 289 -0.550000 15.99940
290 OM 290 OM OM1 290 -0.550000 15.99940
291 OM 291 OM OM1 291 -0.550000 15.99940
292 OM 292 OM OM1 292 -0.550000 15.99940
293 OM 293 OM OM1 293 -0.550000 15.99940
294 OM 294 OM OM1 294 -0.550000 15.99940
295 OM 295 OM OM1 295 -0.550000 15.99940
296 OM 296 OM OM1 296 -0.550000 15.99940
297 OM 297 OM OM1 297 -0.550000 15.99940
298 OM 298 OM OM1 298 -0.550000 15.99940
299 OM 299 OM OM1 299 -0.550000 15.99940
300 OM 300 OM OM1 300 -0.550000 15.99940
301 OM 301 OM OM1 301 -0.550000 15.99940
302 OM 302 OM OM1 302 -0.550000 15.99940
303 OM 303 OM OM1 303 -0.550000 15.99940
304 OM 304 OM OM1 304 -0.550000 15.99940
305 OM 305 OM OM1 305 -0.550000 15.99940
306 OM 306 OM OM1 306 -0.550000 15.99940
307 OM 307 OM OM1 307 -0.550000 15.99940
308 OM 308 OM OM1 308 -0.550000 15.99940
309 OM 309 OM OM1 309 -0.550000 15.99940
310 OM 310 OM OM1 310 -0.550000 15.99940
311 OM 311 OM OM1 311 -0.550000 15.99940
312 OM 312 OM OM1 312 -0.550000 15.99940
313 OM 313 OM OM1 313 -0.550000 15.99940
314 OM 314 OM OM1 314 -0.550000 15.99940
315 OM 315 OM OM1 315 -0.550000 15.99940
316 OM 316 OM OM1 316 -0.550000 15.99940
317 OM 317 OM OM1 317 -0.550000 15.99940
318 OM 318 OM OM1 318 -0.550000 15.99940
319 OM 319 OM OM1 319 -0.550000 15.99940
320 OM 320 OM OM1 320 -0.550000 15.99940
321 OM 321 OM OM1 321 -0.550000 15.99940
322 OM 322 OM OM1 322 -0.550000 15.99940
323 OM 323 OM OM1 323 -0.550000 15.99940
324 OM 324 OM OM1 324 -0.550000 15.99940
325 OM 325 OM OM1 325 -0.550000 15.99940
326 OM 326 OM OM1 326 -0.550000 15.99940
327 OM 327 OM OM1 327 -0.550000 15.99940
328 OM 328 OM OM1 328 -0.550000 15.99940
329 OM 329 OM OM1 329 -0.550000 15.99940
330 OM 330 OM OM1 330 -0.550000 15.99940
331 OM 331 OM OM1 331 -0.550000 15.99940
332 OM 332 OM OM1 332 -0.550000 15.99940
333 OM 333 OM OM1 333 -0.550000 15.99940
334 OM 334 OM OM1 334 -0.550000 15.99940
335 OM 335 OM OM1 335 -0.550000 15.99940
336 OM 336 OM OM1 336 -0.550000 15.99940
337 OM 337 OM OM1 337 -0.550000 15.99940
338 OM 338 OM OM1 338 -0.550000 15.99940
339 OM 339 OM OM1 339 -0.550000 15.99940
340 OM 340 OM OM1 340 -0.550000 15.99940
341 OM 341 OM OM1 341 -0.550000 15.99940
342 OM 342 OM OM1 342 -0.550000 15.99940
343 OM 343 OM OM1 343 -0.550000 15.99940
344 OM 344 OM OM1 344 -0.550000 15.99940
345 OM 345 OM OM1 345 -0.550000 15.99940
346 OM 346 OM OM1 346 -0.550000 15.99940
347 OM 347 OM OM1 347 -0.550000 15.99940
348 OM 348 OM OM1 348 -0.550000 15.99940
349 OM 349 OM OM1 349 -0.550000 15.99940
350 OM 350 OM OM1 350 -0.550000 15.99940
351 OM 351 OM OM1 351 -0.550000 15.99940
352 OM 352 OM OM1 352 -0.550000 15.99940
353 OM 353 OM OM1 353 -0.550000 15.99940
354 OM 354 OM OM1 354 -0.550000 15.99940
355 OM 355 OM OM1 355 -0.550000 15.99940
356 OM 356 OM OM1 356 -0.550000 15.99940
357 OM 357 OM OM1 357 -0.550000 15.99940
358 OM 358 OM OM1 358 -0.550000 15.99940
359 OM 359 OM OM1 359 -0.550000 15.99940
360 OM 360 OM OM1 360 -0.550000 15.99940
361 OM 361 OM OM1 361 -0.550000 15.99940
362 OM 362 OM OM1 362 -0.550000 15.99940
363 OM 363 OM OM1 363 -0.550000 15.99940
364 OM 364 OM OM1 364 -0.550000 15.99940
365 OM 365 OM OM1 365 -0.550000 15.99940
366 OM 366 OM OM1 366 -0.550000 15.99940
367 OM 367 OM OM1 367 -0.550000 15.99940
368 OM 368 OM OM1 368 -0.550000 15.99940
369 OM 369 OM OM1 369 -0.550000 15.99940
370 OM 370 OM OM1 370 -0.550000 15.99940
371 OM 371 OM OM1 371 -0.550000 15.99940
372 OM 372 OM OM1 372 -0.550000 15.99940
373 OM 373 OM OM1 373 -0.550000 15.99940
374 OM 374 OM OM1 374 -0.550000 15.99940
375 OM 375 OM OM1 375 -0.550000 15.99940
376 OM 376 OM OM1 376 -0.550000 15.99940
377 OM 377 OM OM1 377 -0.550000 15.99940
378 OM 378 OM OM1 378 -0.550000 15.99940
379 OM 379 OM OM1 379 -0.550000 15.99940
380 OM 380 OM OM1 380 -0.550000 15.99940
381 OM 381 OM OM1 381 -0.550000 15.99940
382 OM 382 OM OM1 382 -0.550000 15.99940
383 OM 383 OM OM1 383 -0.550000 15.99940
384 OM 384 OM OM1 384 -0.550000 15.99940
385 OM 385 OM OM1 385 -0.550000 15.99940
386 OM 386 OM OM1 386 -0.550000 15.99940
387 OM 387 OM OM1 387 -0.550000 15.99940
388 OM 388 OM OM1 388 -0.550000 15.99940
389 OM 389 OM OM1 389 -0.550000 15.99940
390 OM 390 OM OM1 390 -0.550000 15.99940
391 OM 391 OM OM1 391 -0.550000 15.99940
392 OM 392 OM OM1 392 -0.550000 15.99940
393 OM 393 OM OM1 393 -0.550000 15.99940
394 OM 394 OM OM1 394 -0.550000 15.99940
395 OM 395 OM OM1 395 -0.550000 15.99940
396 OM 396 OM OM1 396 -0.550000 15.99940
397 OM 397 OM OM1 397 -0.550000 15.99940
398 OM 398 OM OM1 398 -0.550000 15.99940
399 OM 399 OM OM1 399 -0.550000 15.99940
400 OM 400 OM OM1 400 -0.550000 15.99940
401 OM 401 OM OM1 401 -0.550000 15.99940
402 OM 402 OM OM1 402 -0.550000 15.99940
403 OM 403 OM OM1 403 -0.550000 15.99940
404 OM 404 OM OM1 404 -0.550000 15.99940
405 OM 405 OM OM1 405 -0.550000 15.99940
406 OM 406 OM OM1 406 -0.550000 15.99940
407 OM 407 OM OM1 407 -0.550000 15.99940
408 OM 408 OM OM1 408 -0.550000 15.99940
409 OM 409 OM OM1 409 -0.550000 15.99940
410 OM 410 OM OM1 410 -0.550000 15.99940
411 OM 411 OM OM1 411 -0.550000 15.99940
412 OM 412 OM OM1 412 -0.550000 15.99940
413 OM 413 OM OM1 413 -0.550000 15.99940
414 OM 414 OM OM1 414 -0.550000 15.99940
415 OM 415 OM OM1 415 -0.550000 15.99940
416 OM 416 OM OM1 416 -0.550000 15.99940
417 OM 417 OM OM1 417 -0.550000 15.99940
418 OM 418 OM OM1 418 -0.550000 15.99940
419 OM 419 OM OM1 419 -0.550000 15.99940
420 OM 420 OM OM1 420 -0.550000 15.99940
421 OM 421 OM OM1 421 -0.550000 15.99940
422 OM 422 OM OM1 422 -0.550000 15.99940
423 OM 423 OM OM1 423 -0.550000 15.99940
424 OM 424 OM OM1 424 -0.550000 15.99940
425 OM 425 OM OM1 425 -0.550000 15.99940
426 OM 426 OM OM1 426 -0.550000 15.99940
427 OM 427 OM OM1 427 -0.550000 15.99940
428 OM 428 OM OM1 428 -0.550000 15.99940
429 OM 429 OM OM1 429 -0.550000 15.99940
430 OM 430 OM OM1 430 -0.550000 15.99940
431 OM 431 OM OM1 431 -0.550000 15.99940
432 OM 432 OM OM1 432 -0.550000 15.99940
433 OM 433 OM OM1 433 -0.550000 15.99940
434 OM 434 OM OM1 434 -0.550000 15.99940
435 OM 435 OM OM1 435 -0.550000 15.99940
436 OM 436 OM OM1 436 -0.550000 15.99940
437 OM 437 OM OM1 437 -0.550000 15.99940
438 OM 438 OM OM1 438 -0.550000 15.99940
439 OM 439 OM OM1 439 -0.550000 15.99940
440 OM 440 OM OM1 440 -0.550000 15.99940
441 OM 441 OM OM1 441 -0.550000 15.99940
442 OM 442 OM OM1 442 -0.550000 15.99940
443 OM 443 OM OM1 443 -0.550000 15.99940
444 OM 444 OM OM1 444 -0.550000 15.99940
445 OM 445 OM OM1 445 -0.550000 15.99940
446 OM 446 OM OM1 446 -0.550000 15.99940
447 OM 447 OM OM1 447 -0.550000 15.99940
448 OM 448 OM OM1 448 -0.550000 15.99940
449 OM 449 OM OM1 449 -0.550000 15.99940
450 OM 450 OM OM1 450 -0.550000 15.99940
451 OM 451 OM OM1 451 -0.550000 15.99940
452 OM 452 OM OM1 452 -0.550000 15.99940
453 OM 453 OM OM1 453 -0.550000 15.99940
454 OM 454 OM OM1 454 -0.550000 15.99940
455 OM 455 OM OM1 455 -0.550000 15.99940
456 OM 456 OM OM1 456 -0.550000 15.99940
457 OM 457 OM OM1 457 -0.550000 15.99940
458 OM 458 OM OM1 458 -0.550000 15.99940
459 OM 459 OM OM1 459 -0.550000 15.99940
460 OM 460 OM OM1 460 -0.550000 15.99940
461 OM 461 OM OM1 461 -0.550000 15.99940
462 OM 462 OM OM1 462 -0.550000 15.99940
463 OM 463 OM OM1 463 -0.550000 15.99940
464 OM 464 OM OM1 464 -0.550000 15.99940
465 OM 465 OM OM1 465 -0.550000 15.99940
466 OM 466 OM OM1 466 -0.550000 15.99940
467 OM 467 OM OM1 467 -0.550000 15.99940
468 OM 468 OM OM1 468 -0.550000 15.99940
469 OM 469 OM OM1 469 -0.550000 15.99940
470 OM 470 OM OM1 470 -0.550000 15.99940
471 OM 471 OM OM1 471 -0.550000 15.99940
472 OM 472 OM OM1 472 -0.550000 15.99940
473 OM 473 OM OM1 473 -0.550000 15.99940
474 OM 474 OM OM1 474 -0.550000 15.99940
475 OM 475 OM OM1 475 -0.550000 15.99940
476 OM 476 OM OM1 476 -0.550000 15.99940
477 OM 477 OM OM1 477 -0.550000 15.99940
478 OM 478 OM OM1 478 -0.550000 15.99940
479 OM 479 OM OM1 479 -0.550000 15.99940
480 OM 480 OM OM1 480 -0.550000 15.99940
481 OM 481 OM OM1 481 -0.550000 15.99940
482 OM 482 OM OM1 482 -0.550000 15.99940
483 OM 483 OM OM1 483 -0.550000 15.99940
484 OM 484 OM OM1 484 -0.550000 15.99940
485 OM 485 OM OM1 485 -0.550000 15.99940
486 OM 486 OM OM1 486 -0.550000 15.99940
487 OM 487 OM OM1 487 -0.550000 15.99940
488 OM 488 OM OM1 488 -0.550000 15.99940
489 OM 489 OM OM1 489 -0.550000 15.99940
490 OM 490 OM OM1 490 -0.550000 15.99940
491 OM 491 OM OM1 491 -0.550000 15.99940
492 OM 492 OM OM1 492 -0.550000 15.99940
493 OM 493 OM OM1 493 -0.550000 15.99940
494 OM 494 OM OM1 494 -0.550000 15.99940
495 OM 495 OM OM1 495 -0.550000 15.99940
496 OM 496 OM OM1 496 -0.550000 15.99940
497 OM 497 OM OM1 497 -0.550000 15.99940
498 OM 498 OM OM1 498 -0.550000 15.99940
499 OM 499 OM OM1 499 -0.550000 15.99940
500 OM 500 OM OM1 500 -0.550000 15.99940
501 OM 501 OM OM1 501 -0.550000 15.99940
502 OM 502 OM OM1 502 -0.550000 15.99940
503 OM 503 OM OM1 503 -0.550000 15.99940
504 OM 504 OM OM1 504 -0.550000 15.99940
505 OM 505 OM OM1 505 -0.550000 15.99940
506 OM 506 OM OM1 506 -0.550000 15.99940
507 OM 507 OM OM1 507 -0.550000 15.99940
508 OM 508 OM OM1 508 -0.550000 15.99940
509 OM 509 OM OM1 509 -0.550000 15.99940
510 OM 510 OM OM1 510 -0.550000 15.99940
511 OM 511 OM OM1 511 -0.550000 15.99940
512 OM 512 OM OM1 512 -0.550000 15.99940
513 OM 513 OM OM1 513 -0.550000 15.99940
514 OM 514 OM OM1 514 -0.550000 15.99940
515 OM 515 OM OM1 515 -0.550000 15.99940
516 OM 516 OM OM1 516 -0.550000 15.99940
517 OM 517 OM OM1 517 -0.550000 15.99940
518 OM 518 OM OM1 518 -0.550000 15.99940
519 OM 519 OM OM1 519 -0.550000 15.99940
520 OM 520 OM OM1 520 -0.550000 15.99940
521 OM 521 OM OM1 521 -0.550000 15.99940
522 OM 522 OM OM1 522 -0.550000 15.99940
523 OM 523 OM OM1 523 -0.550000 15.99940
524 OM 524 OM OM1 524 -0.550000 15.99940
525 OM 525 OM OM1 525 -0.550000 15.99940
526 OM 526 OM OM1 526 -0.550000 15.99940
527 OM 527 OM OM1 527 -0.550000 15.99940
528 OM 528 OM OM1 528 -0.550000 15.99940
529 OM 529 OM OM1 529 -0.550000 15.99940
530 OM 530 OM OM1 530 -0.550000 15.99940
531 OM 531 OM OM1 531 -0.550000 15.99940
532 OM 532 OM OM1 532 -0.550000 15.99940
533 OM 533 OM OM1 533 -0.550000 15.99940
534 OM 534 OM OM1 534 -0.550000 15.99940
535 OM 535 OM OM1 535 -0.550000 15.99940
536 OM 536 OM OM1 536 -0.550000 15.99940
537 OM 537 OM OM1 537 -0.550000 15.99940
538 OM 538 OM OM1 538 -0.550000 15.99940
539 OM 539 OM OM1 539 -0.550000 15.99940
540 OM 540 OM OM1 540 -0.550000 15.99940
541 OM 541 OM OM1 541 -0.550000 15.99940
542 OM 542 OM OM1 542 -0.550000 15.99940
543 OM 543 OM OM1 543 -0.550000 15.99940
544 OM 544 OM OM1 544 -0.550000 15.99940
545 OM 545 OM OM1 545 -0.550000 15.99940
546 OM 546 OM OM1 546 -0.550000 15.99940
547 OM 547 OM OM1 547 -0.550000 15.99940
548 OM 548 OM OM1 548 -0.550000 15.99940
549 OM 549 OM OM1 549 -0.550000 15.99940
550 OM 550 OM OM1 550 -0.550000 15.99940
551 OM 551 OM OM1 551 -0.550000 15.99940
552 OM 552 OM OM1 552 -0.550000 15.99940
553 OM 553 OM OM1 553 -0.550000 15.99940
554 OM 554 OM OM1 554 -0.550000 15.99940
555 OM 555 OM OM1 555 -0.550000 15.99940
556 OM 556 OM OM1 556 -0.550000 15.99940
557 OM 557 OM OM1 557 -0.550000 15.99940
558 OM 558 OM OM1 558 -0.550000 15.99940
559 OM 559 OM OM1 559 -0.550000 15.99940
560 OM 560 OM OM1 560 -0.550000 15.99940
561 OM 561 OM OM1 561 -0.550000 15.99940
562 OM 562 OM OM1 562 -0.550000 15.99940
563 OM 563 OM OM1 563 -0.550000 15.99940
564 OM 564 OM OM1 564 -0.550000 15.99940
565 OM 565 OM OM1 565 -0.550000 15.99940
566 OM 566 OM OM1 566 -0.550000 15.99940
567 OM 567 OM OM1 567 -0.550000 15.99940
568 OM 568 OM OM1 568 -0.550000 15.99940
569 OM 569 OM OM1 569 -0.550000 15.99940
570 OM 570 OM OM1 570 -0.550000 15.99940
571 OM 571 OM OM1 571 -0.550000 15.99940
572 OM 572 OM OM1 572 -0.550000 15.99940
573 OM 573 OM OM1 573 -0.550000 15.99940
574 OM 574 OM OM1 574 -0.550000 15.99940
575 OM 575 OM OM1 575 -0.550000 15.99940
576 OM 576 OM OM1 576 -0.550000 15.99940
577 OM 577 OM OM1 577 -0.550000 15.99940
578 OM 578 OM OM1 578 -0.550000 15.99940
579 OM 579 OM OM1 579 -0.550000 15.99940
580 OM 580 OM OM1 580 -0.550000 15.99940
581 OM 581 OM OM1 581 -0.550000 15.99940
582 OM 582 OM OM1 582 -0.550000 15.99940
583 OM 583 OM OM1 583 -0.550000 15.99940
584 OM 584 OM OM1 584 -0.550000 15.99940
585 OM 585 OM OM1 585 -0.550000 15.99940
586 OM 586 OM OM1 586 -0.550000 15.99940
587 OM 587 OM OM1 587 -0.550000 15.99940
588 OM 588 OM OM1 588 -0.550000 15.99940
589 OM 589 OM OM1 589 -0.550000 15.99940
590 OM 590 OM OM1 590 -0.550000 15.99940
591 OM 591 OM OM1 591 -0.550000 15.99940
592 OM 592 OM OM1 592 -0.550000 15.99940
593 OM 593 OM OM1 593 -0.550000 15.99940
594 OM 594 OM OM1 594 -0.550000 15.99940
595 OM 595 OM OM1 595 -0.550000 15.99940
596 OM 596 OM OM1 596 -0.550000 15.99940
597 OM 597 OM OM1 597 -0.550000 15.99940
598 OM 598 OM OM1 598 -0.550000 15.99940
599 OM 599 OM OM1 599 -0.550000 15.99940
600 OM 600 OM OM1 600 -0.550000 15.99940
601 OM 601 OM OM1 601 -0.550000 15.99940
602 OM 602 OM OM1 602 -0.550000 15.99940
603 OM 603 OM OM1 603 -0.550000 15.99940
604 OM 604 OM OM1 604 -0.550000 15.99940
605 OM 605 OM OM1 605 -0.550000 15.99940
606 OM 606 OM OM1 606 -0.550000 15.99940
607 OM 607 OM OM1 607 -0.550000 15.99940
608 OM 608 OM OM1 608 -0.550000 15.99940
609 OM 609 OM OM1 609 -0.550000 15.99940
610 OM 610 OM OM1 610 -0.550000 15.99940
611 OM 611 OM OM1 611 -0.550000 15.99940
612 OM 612 OM OM1 612 -0.550000 15.99940
613 OM 613 OM OM1 613 -0.550000 15.99940
614 OM 614 OM OM1 614 -0.550000 15.99940
615 OM 615 OM OM1 615 -0.550000 15.99940
616 OM 616 OM OM1 616 -0.550000 15.99940
617 OM 617 OM OM1 617 -0.550000 15.99940
618 OM 618 OM OM1 618 -0.550000 15.99940
619 OM 619 OM OM1 619 -0.550000 15.99940
620 OM 620 OM OM1 620 -0.550000 15.99940
621 OM 621 OM OM1 621 -0.550000 15.99940
622 OM 622 OM OM1 622 -0.550000 15.99940
623 OM 623 OM OM1 623 -0.550000 15.99940
624 OM 624 OM OM1 624 -0.550000 15.99940
625 OM 625 OM OM1 625 -0.550000 15.99940
626 OM 626 OM OM1 626 -0.550000 15.99940
627 OM 627 OM OM1 627 -0.550000 15.99940
628 OM 628 OM OM1 628 -0.550000 15.99940
629 OM 629 OM OM1 629 -0.550000 15.99940
630 OM 630 OM OM1 630 -0.550000 15.99940
631 OM 631 OM OM1 631 -0.550000 15.99940
632 OM 632 OM OM1 632 -0.550000 15.99940
633 OM 633 OM OM1 633 -0.550000 15.99940
634 OM 634 OM OM1 634 -0.550000 15.99940
635 OM 635 OM OM1 635 -0.550000 15.99940
636 OM 636 OM OM1 636 -0.550000 15.99940
637 OM 637 OM OM1 637 -0.550000 15.99940
638 OM 638 OM OM1 638 -0.550000 15.99940
639 OM 639 OM OM1 639 -0.550000 15.99940
640 OM 640 OM OM1 640 -0.550000 15.99940
641 OM 641 OM OM1 641 -0.550000 15.99940
642 OM 642 OM OM1 642 -0.550000 15.99940
643 OM 643 OM OM1 643 -0.550000 15.99940
644 OM 644 OM OM1 644 -0.550000 15.99940
645 OM 645 OM OM1 645 -0.550000 15.99940
646 OM 646 OM OM1 646 -0.550000 15.99940
647 OM 647 OM OM1 647 -0.550000 15.99940
648 OM 648 OM OM1 648 -0.550000 15.99940
649 OM 649 OM OM1 649 -0.550000 15.99940
650 OM 650 OM OM1 650 -0.550000 15.99940
651 OM 651 OM OM1 651 -0.550000 15.99940
652 OM 652 OM OM1 652 -0.550000 15.99940
653 OM 653 OM OM1 653 -0.550000 15.99940
654 OM 654 OM OM1 654 -0.550000 15.99940
655 OM 655 OM OM1 655 -0.550000 15.99940
656 OM 656 OM OM1 656 -0.550000 15.99940
657 OM 657 OM OM1 657 -0.550000 15.99940
658 OM 658 OM OM1 658 -0.550000 15.99940
659 OM 659 OM OM1 659 -0.550000 15.99940
660 OM 660 OM OM1 660 -0.550000 15.99940
661 OM 661 OM OM1 661 -0.550000 15.99940
662 OM 662 OM OM1 662 -0.550000 15.99940
663 OM 663 OM OM1 663 -0.550000 15.99940
664 OM 664 OM OM1 664 -0.550000 15.99940
665 OM 665 OM OM1 665 -0.550000 15.99940
666 OM 666 OM OM1 666 -0.550000 15.99940
667 OM 667 OM OM1 667 -0.550000 15.99940
668 OM 668 OM OM1 668 -0.550000 15.99940
669 OM 669 OM OM1 669 -0.550000 15.99940
670 OM 670 OM OM1 670 -0.550000 15.99940
671 OM 671 OM OM1 671 -0.550000 15.99940
672 OM 672 OM OM1 672 -0.550000 15.99940
673 OM 673 OM OM1 673 -0.550000 15.99940
674 OM 674 OM OM1 674 -0.550000 15.99940
675 OM 675 OM OM1 675 -0.550000 15.99940
676 OM 676 OM OM1 676 -0.550000 15.99940
677 OM 677 OM OM1 677 -0.550000 15.99940
678 OM 678 OM OM1 678 -0.550000 15.99940
679 OM 679 OM OM1 679 -0.550000 15.99940
680 OM 680 OM OM1 680 -0.550000 15.99940
681 OM 681 OM OM1 681 -0.550000 15.99940
682 OM 682 OM OM1 682 -0.550000 15.99940
683 OM 683 OM OM1 683 -0.550000 15.99940
684 OM 684 OM OM1 684 -0.550000 15.99940
685 OM 685 OM OM1 685 -0.550000 15.99940
686 OM 686 OM OM1 686 -0.550000 15.99940
687 OM 687 OM OM1 687 -0.550000 15.99940
688 OM 688 OM OM1 688 -0.550000 15.99940
689 OM 689 OM OM1 689 -0.550000 15.99940
690 OM 690 OM OM1 690 -0.550000 15.99940
691 OM 691 OM OM1 691 -0.550000 15.99940
692 OM 692 OM OM1 692 -0.550000 15.99940
693 OM 693 OM OM1 693 -0.550000 15.99940
694 OM 694 OM OM1 694 -0.550000 15.99940
695 OM 695 OM OM1 695 -0.550000 15.99940
696 OM 696 OM OM1 696 -0.550000 15.99940
697 OM 697 OM OM1 697 -0.550000 15.99940
698 OM 698 OM OM1 698 -0.550000 15.99940
699 OM 699 OM OM1 699 -0.550000 15.99940
700 OM 700 OM OM1 700 -0.550000 15.99940
701 OM 701 OM OM1 701 -0.550000 15.99940
702 OM 702 OM OM1 702 -0.550000 15.99940
703 OM 703 OM OM1 703 -0.550000 15.99940
704 OM 704 OM OM1 704 -0.550000 15.99940
705 OM 705 OM OM1 705 -0.550000 15.99940
706 OM 706 OM OM1 706 -0.550000 15.99940
707 OM 707 OM OM1 707 -0.550000 15.99940
708 OM 708 OM OM1 708 -0.550000 15.99940
709 OM 709 OM OM1 709 -0.550000 15.99940
710 OM 710 OM OM1 710 -0.550000 15.99940
711 OM 711 OM OM1 711 -0.550000 15.99940
712 OM 712 OM OM1 712 -0.550000 15.99940
713 OM 713 OM OM1 713 -0.550000 15.99940
714 OM 714 OM OM1 714 -0.550000 15.99940
715 OM 715 OM OM1 715 -0.550000 15.99940
716 OM 716 OM OM1 716 -0.550000 15.99940
717 OM 717 OM OM1 717 -0.550000 15.99940
718 OM 718 OM OM1 718 -0.550000 15.99940
719 OM 719 OM OM1 719 -0.550000 15.99940
720 OM 720 OM OM1 720 -0.550000 15.99940
721 OM 721 OM OM1 721 -0.550000 15.99940
722 OM 722 OM OM1 722 -0.550000 15.99940
723 OM 723 OM OM1 723 -0.550000 15.99940
724 OM 724 OM OM1 724 -0.550000 15.99940
725 OM 725 OM OM1 725 -0.550000 15.99940
726 OM 726 OM OM1 726 -0.550000 15.99940
727 OM 727 OM OM1 727 -0.550000 15.99940
728 OM 728 OM OM1 728 -0.550000 15.99940
729 OM 729 OM OM1 729 -0.550000 15.99940
730 OM 730 OM OM1 730 -0.550000 15.99940
731 OM 731 OM OM1 731 -0.550000 15.99940
732 OM 732 OM OM1 732 -0.550000 15.99940
733 OM 733 OM OM1 733 -0.550000 15.99940
734 OM 734 OM OM1 734 -0.550000 15.99940
735 OM 735 OM OM1 735 -0.550000 15.99940
736 OM 736 OM OM1 736 -0.550000 15.99940
737 OM 737 OM OM1 737 -0.550000 15.99940
738 OM 738 OM OM1 738 -0.550000 15.99940
739 OM 739 OM OM1 739 -0.550000 15.99940
740 OM 740 OM OM1 740 -0.550000 15.99940
741 OM 741 OM OM1 741 -0.550000 15.99940
742 OM 742 OM OM1 742 -0.550000 15.99940
743 OM 743 OM OM1 743 -0.550000 15.99940
744 OM 744 OM OM1 744 -0.550000 15.99940
745 OM 745 OM OM1 745 -0.550000 15.99940
746 OM 746 OM OM1 746 -0.550000 15.99940
747 OM 747 OM OM1 747 -0.550000 15.99940
748 OM 748 OM OM1 748 -0.550000 15.99940
749 OM 749 OM OM1 749 -0.550000 15.99940
750 OM 750 OM OM1 750 -0.550000 15.99940
751 OM 751 OM OM1 751 -0.550000 15.99940
752 OM 752 OM OM1 752 -0.550000 15.99940
753 OM 753 OM OM1 753 -0.550000 15.99940
754 OM 754 OM OM1 754 -0.550000 15.99940
755 OM 755 OM OM1 755 -0.550000 15.99940
756 OM 756 OM OM1 756 -0.550000 15.99940
757 OM 757 OM OM1 757 -0.550000 15.99940
758 OM 758 OM OM1 758 -0.550000 15.99940
759 OM 759 OM OM1 759 -0.550000 15.99940
760 OM 760 OM OM1 760 -0.550000 15.99940
761 OM 761 OM OM1 761 -0.550000 15.99940
762 OM 762 OM OM1 762 -0.550000 15.99940
763 OM 763 OM OM1 763 -0.550000 15.99940
764 OM 764 OM OM1 764 -0.550000 15.99940
765 OM 765 OM OM1 765 -0.550000 15.99940
766 OM 766 OM OM1 766 -0.550000 15.99940
767 OM 767 OM OM1 767 -0.550000 15.99940
768 OM 768 OM OM1 768 -0.550000 15.99940
769 OM 769 OM OM1 769 -0.550000 15.99940
770 OM 770 OM OM1 770 -0.550000 15.99940
771 OM 771 OM OM1 771 -0.550000 15.99940
772 OM 772 OM OM1 772 -0.550000 15.99940
773 OM 773 OM OM1 773 -0.550000 15.99940
774 OM 774 OM OM1 774 -0.550000 15.99940
775 OM 775 OM OM1 775 -0.550000 15.99940
776 OM 776 OM OM1 776 -0.550000 15.99940
777 OM 777 OM OM1 777 -0.550000 15.99940
778 OM 778 OM OM1 778 -0.550000 15.99940
779 OM 779 OM OM1 779 -0.550000 15.99940
780 OM 780 OM OM1 780 -0.550000 15.99940
781 OM 781 OM OM1 781 -0.550000 15.99940
782 OM 782 OM OM1 782 -0.550000 15.99940
783 OM 783 OM OM1 783 -0.550000 15.99940
784 OM 784 OM OM1 784 -0.550000 15.99940
785 OM 785 OM OM1 785 -0.550000 15.99940
786 OM 786 OM OM1 786 -0.550000 15.99940
787 OM 787 OM OM1 787 -0.550000 15.99940
788 OM 788 OM OM1 788 -0.550000 15.99940
789 OM 789 OM OM1 789 -0.550000 15.99940
790 OM 790 OM OM1 790 -0.550000 15.99940
791 OM 791 OM OM1 791 -0.550000 15.99940
792 OM 792 OM OM1 792 -0.550000 15.99940
793 OM 793 OM OM1 793 -0.550000 15.99940
794 OM 794 OM OM1 794 -0.550000 15.99940
795 OM 795 OM OM1 795 -0.550000 15.99940
796 OM 796 OM OM1 796 -0.550000 15.99940
797 OM 797 OM OM1 797 -0.550000 15.99940
798 OM 798 OM OM1 798 -0.550000 15.99940
799 OM 799 OM OM1 799 -0.550000 15.99940
800 OM 800 OM OM1 800 -0.550000 15.99940
801 OM 801 OM OM1 801 -0.550000 15.99940
802 OM 802 OM OM1 802 -0.550000 15.99940
803 OM 803 OM OM1 803 -0.550000 15.99940
804 OM 804 OM OM1 804 -0.550000 15.99940
805 OM 805 OM OM1 805 -0.550000 15.99940
806 OM 806 OM OM1 806 -0.550000 15.99940
807 OM 807 OM OM1 807 -0.550000 15.99940
808 OM 808 OM OM1 808 -0.550000 15.99940
809 OM 809 OM OM1 809 -0.550000 15.99940
810 OM 810 OM OM1 810 -0.550000 15.99940
811 OM 811 OM OM1 811 -0.550000 15.99940
812 OM 812 OM OM1 812 -0.550000 15.99940
813 OM 813 OM OM1 813 -0.550000 15.99940
814 OM 814 OM OM1 814 -0.550000 15.99940
815 OM 815 OM OM1 815 -0.550000 15.99940
816 OM 816 OM OM1 816 -0.550000 15.99940
817 OM 817 OM OM1 817 -0.550000 15.99940
818 OM 818 OM OM1 818 -0.550000 15.99940
819 OM 819 OM OM1 819 -0.550000 15.99940
820 OM 820 OM OM1 820 -0.550000 15.99940
821 OM 821 OM OM1 821 -0.550000 15.99940
822 OM 822 OM OM1 822 -0.550000 15.99940
823 OM 823 OM OM1 823 -0.550000 15.99940
824 OM 824 OM OM1 824 -0.550000 15.99940
825 OM 825 OM OM1 825 -0.550000 15.99940
826 OM 826 OM OM1 826 -0.550000 15.99940
827 OM 827 OM OM1 827 -0.550000 15.99940
828 OM 828 OM OM1 828 -0.550000 15.99940
829 OM 829 OM OM1 829 -0.550000 15.99940
830 OM 830 OM OM1 830 -0.550000 15.99940
831 OM 831 OM OM1 831 -0.550000 15.99940
832 OM 832 OM OM1 832 -0.550000 15.99940
833 OM 833 OM OM1 833 -0.550000 15.99940
834 OM 834 OM OM1 834 -0.550000 15.99940
835 OM 835 OM OM1 835 -0.550000 15.99940
836 OM 836 OM OM1 836 -0.550000 15.99940
837 OM 837 OM OM1 837 -0.550000 15.99940
838 OM 838 OM OM1 838 -0.550000 15.99940
839 OM 839 OM OM1 839 -0.550000 15.99940
840 OM 840 OM OM1 840 -0.550000 15.99940
841 OM 841 OM OM1 841 -0.550000 15.99940
842 OM 842 OM OM1 842 -0.550000 15.99940
843 OM 843 OM OM1 843 -0.550000 15.99940
844 OM 844 OM OM1 844 -0.550000 15.99940
845 OM 845 OM OM1 845 -0.550000 15.99940
846 OM 846 OM OM1 846 -0.550000 15.99940
847 OM 847 OM OM1 847 -0.550000 15.99940
848 OM 848 OM OM1 848 -0.550000 15.99940
849 OM 849 OM OM1 849 -0.550000 15.99940
850 OM 850 OM OM1 850 -0.550000 15.99940
851 OM 851 OM OM1 851 -0.550000 15.99940
852 OM 852 OM OM1 852 -0.550000 15.99940
853 OM 853 OM OM1 853 -0.550000 15.99940
854 OM 854 OM OM1 854 -0.550000 15.99940
855 OM 855 OM OM1 855 -0.550000 15.99940
856 OM 856 OM OM1 856 -0.550000 15.99940
857 OM 857 OM OM1 857 -0.550000 15.99940
858 OM 858 OM OM1 858 -0.550000 15.99940
859 OM 859 OM OM1 859 -0.550000 15.99940
860 OM 860 OM OM1 860 -0.550000 15.99940
861 OM 861 OM OM1 861 -0.550000 15.99940
862 OM 862 OM OM1 862 -0.550000 15.99940
863 OM 863 OM OM1 863 -0.550000 15.99940
864 OM 864 OM OM1 864 -0.550000 15.99940
865 OM 865 OM OM1 865 -0.550000 15.99940
866 OM 866 OM OM1 866 -0.550000 15.99940
867 OM 867 OM OM1 867 -0.550000 15.99940
868 OM 868 OM OM1 868 -0.550000 15.99940
869 OM 869 OM OM1 869 -0.550000 15.99940
870 OM 870 OM OM1 870 -0.550000 15.99940
871 OM 871 OM OM1 871 -0.550000 15.99940
872 OM 872 OM OM1 872 -0.550000 15.99940
873 OM 873 OM OM1 873 -0.550000 15.99940
874 OM 874 OM OM1 874 -0.550000 15.99940
875 OM 875 OM OM1 875 -0.550000 15.99940
876 OM 876 OM OM1 876 -0.550000 15.99940
877 OM 877 OM OM1 877 -0.550000 15.99940
878 OM 878 OM OM1 878 -0.550000 15.99940
879 OM 879 OM OM1 879 -0.550000 15.99940
880 OM 880 OM OM1 880 -0.550000 15.99940
881 OM 881 OM OM1 881 -0.550000 15.99940
882 OM 882 OM OM1 882 -0.550000 15.99940
883 OM 883 OM OM1 883 -0.550000 15.99940
884 OM 884 OM OM1 884 -0.550000 15.99940
885 OM 885 OM OM1 885 -0.550000 15.99940
886 OM 886 OM OM1 886 -0.550000 15.99940
887 OM 887 OM OM1 887 -0.550000 15.99940
888 OM 888 OM OM1 888 -0.550000 15.99940
889 OM 889 OM OM1 889 -0.550000 15.99940
890 OM 890 OM OM1 890 -0.550000 15.99940
891 OM 891 OM OM1 891 -0.550000 15.99940
892 OM 892 OM OM1 892 -0.550000 15.99940
893 OM 893 OM OM1 893 -0.550000 15.99940
894 OM 894 OM OM1 894 -0.550000 15.99940
895 OM 895 OM OM1 895 -0.550000 15.99940
896 OM 896 OM OM1 896 -0.550000 15.99940
897 OM 897 OM OM1 897 -0.550000 15.99940
898 OM 898 OM OM1 898 -0.550000 15.99940
899 OM 899 OM OM1 899 -0.550000 15.99940
900 OM 900 OM OM1 900 -0.550000 15.99940
901 OM 901 OM OM1 901 -0.550000 15.99940
902 OM 902 OM OM1 902 -0.550000 15.99940
903 OM 903 OM OM1 903 -0.550000 15.99940
904 OM 904 OM OM1 904 -0.550000 15.99940
905 OM 905 OM OM1 905 -0.550000 15.99940
906 OM 906 OM OM1 906 -0.550000 15.99940
907 OM 907 OM OM1 907 -0.550000 15.99940
908 OM 908 OM OM1 908 -0.550000 15.99940
909 OM 909 OM OM1 909 -0.550000 15.99940
910 OM 910 OM OM1 910 -0.550000 15.99940
911 OM 911 OM OM1 911 -0.550000 15.99940
912 OM 912 OM OM1 912 -0.550000 15.99940
913 OM 913 OM OM1 913 -0.550000 15.99940
914 OM 914 OM OM1 914 -0.550000 15.99940
915 OM 915 OM OM1 915 -0.550000 15.99940
916 OM 916 OM OM1 916 -0.550000 15.99940
917 OM 917 OM OM1 917 -0.550000 15.99940
918 OM 918 OM OM1 918 -0.550000 15.99940
919 OM 919 OM OM1 919 -0.550000 15.99940
920 OM 920 OM OM1 920 -0.550000 15.99940
921 OM 921 OM OM1 921 -0.550000 15.99940
922 OM 922 OM OM1 922 -0.550000 15.99940
923 OM 923 OM OM1 923 -0.550000 15.99940
924 OM 924 OM OM1 924 -0.550000 15.99940
925 OM 925 OM OM1 925 -0.550000 15.99940
926 OM 926 OM OM1 926 -0.550000 15.99940
927 OM 927 OM OM1 927 -0.550000 15.99940
928 OM 928 OM OM1 928 -0.550000 15.99940
929 OM 929 OM OM1 929 -0.550000 15.99940
930 OM 930 OM OM1 930 -0.550000 15.99940
931 OM 931 OM OM1 931 -0.550000 15.99940
932 OM 932 OM OM1 932 -0.550000 15.99940
933 OM 933 OM OM1 933 -0.550000 15.99940
934 OM 934 OM OM1 934 -0.550000 15.99940
935 OM 935 OM OM1 935 -0.550000 15.99940
936 OM 936 OM OM1 936 -0.550000 15.99940
937 OM 937 OM OM1 937 -0.550000 15.99940
938 OM 938 OM OM1 938 -0.550000 15.99940
939 OM 939 OM OM1 939 -0.550000 15.99940
940 OM 940 OM OM1 940 -0.550000 15.99940
941 OM 941 OM OM1 941 -0.550000 15.99940
942 OM 942 OM OM1 942 -0.550000 15.99940
943 OM 943 OM OM1 943 -0.550000 15.99940
944 OM 944 OM OM1 944 -0.550000 15.99940
945 OM 945 OM OM1 945 -0.550000 15.99940
946 OM 946 OM OM1 946 -0.550000 15.99940
947 OM 947 OM OM1 947 -0.550000 15.99940
948 OM 948 OM OM1 948 -0.550000 15.99940
949 OM 949 OM OM1 949 -0.550000 15.99940
950 OM 950 OM OM1 950 -0.550000 15.99940
951 OM 951 OM OM1 951 -0.550000 15.99940
952 OM 952 OM OM1 952 -0.550000 15.99940
953 OM 953 OM OM1 953 -0.550000 15.99940
954 OM 954 OM OM1 954 -0.550000 15.99940
955 OM 955 OM OM1 955 -0.550000 15.99940
956 OM 956 OM OM1 956 -0.550000 15.99940
957 OM 957 OM OM1 957 -0.550000 15.99940
958 OM 958 OM OM1 958 -0.550000 15.99940
959 OM 959 OM OM1 959 -0.550000 15.99940
960 OM 960 OM OM1 960 -0.550000 15.99940
961 OM 961 OM OM1 961 -0.550000 15.99940
962 OM 962 OM OM1 962 -0.550000 15.99940
963 OM 963 OM OM1 963 -0.550000 15.99940
964 OM 964 OM OM1 964 -0.550000 15.99940
965 OM 965 OM OM1 965 -0.550000 15.99940
966 OM 966 OM OM1 966 -0.550000 15.99940
967 OM 967 OM OM1 967 -0.550000 15.99940
968 OM 968 OM OM1 968 -0.550000 15.99940
969 OM 969 OM OM1 969 -0.550000 15.99940
970 OM 970 OM OM1 970 -0.550000 15.99940
971 OM 971 OM OM1 971 -0.550000 15.99940
972 OM 972 OM OM1 972 -0.550000 15.99940
973 OM 973 OM OM1 973 -0.550000 15.99940
974 OM 974 OM OM1 974 -0.550000 15.99940
975 OM 975 OM OM1 975 -0.550000 15.99940
976 OM 976 OM OM1 976 -0.550000 15.99940
977 OM 977 OM OM1 977 -0.550000 15.99940
978 OM 978 OM OM1 978 -0.550000 15.99940
979 OM 979 OM OM1 979 -0.550000 15.99940
980 OM 980 OM OM1 980 -0.550000 15.99940
981 OM 981 OM OM1 981 -0.550000 15.99940
982 OM 982 OM OM1 982 -0.550000 15.99940
983 OM 983 OM OM1 983 -0.550000 15.99940
984 OM 984 OM OM1 984 -0.550000 15.99940
985 OM 985 OM OM1 985 -0.550000 15.99940
986 OM 986 OM OM1 986 -0.550000 15.99940
987 OM 987 OM OM1 987 -0.550000 15.99940
988 OM 988 OM OM1 988 -0.550000 15.99940
989 OM 989 OM OM1 989 -0.550000 15.99940
990 OM 990 OM OM1 990 -0.550000 15.99940
991 OM 991 OM OM1 991 -0.550000 15.99940
992 OM 992 OM OM1 992 -0.550000 15.99940
993 OM 993 OM OM1 993 -0.550000 15.99940
994 OM 994 OM OM1 994 -0.550000 15.99940
995 OM 995 OM OM1 995 -0.550000 15.99940
996 OM 996 OM OM1 996 -0.550000 15.99940
997 OM 997 OM OM1 997 -0.550000 15.99940
998 OM 998 OM OM1 998 -0.550000 15.99940
999 OM 999 OM OM1 999 -0.550000 15.99940
1000 OM 1000 OM OM1 1000 -0.550000 15.99940
1001 OM 1001 OM OM1 1001 -0.550000 15.99940
1002 OM 1002 OM OM1 1002 -0.550000 15.99940
1003 OM 1003 OM OM1 1003 -0.550000 15.99940
1004 OM 1004 OM OM1 1004 -0.550000 15.99940
1005 OM 1005 OM OM1 1005 -0.550000 15.99940
1006 OM 1006 OM OM1 1006 -0.550000 15.99940
1007 OM 1007 OM OM1 1007 -0.550000 15.99940
1008 OM 1008 OM OM1 1008 -0.550000 15.99940
1009 OM 1009 OM OM1 1009 -0.550000 15.99940
1010 OM 1010 OM OM1 1010 -0.550000 15.99940
1011 OM 1011 OM OM1 1011 -0.550000 15.99940
1012 OM 1012 OM OM1 1012 -0.550000 15.99940
1013 OM 1013 OM OM1 1013 -0.550000 15.99940
1014 OM 1014 OM OM1 1014 -0.550000 15.99940
1015 OM 1015 OM OM1 1015 -0.550000 15.99940
1016 OM 1016 OM OM1 1016 -0.550000 15.99940
1017 OM 1017 OM OM1 1017 -0.550000 15.99940
1018 OM 1018 OM OM1 1018 -0.550000 15.99940
1019 OM 1019 OM OM1 1019 -0.550000 15.99940
1020 OM 1020 OM OM1 1020 -0.550000 15.99940
1021 OM 1021 OM OM1 1021 -0.550000 15.99940
1022 OM 1022 OM OM1 1022 -0.550000 15.99940
1023 OM 1023 OM OM1 1023 -0.550000 15.99940
1024 OM 1024 OM OM1 1024 -0.550000 15.99940
1025 OM 1025 OM OM1 1025 -0.550000 15.99940
1026 OM 1026 OM OM1 1026 -0.550000 15.99940
1027 OM 1027 OM OM1 1027 -0.550000 15.99940
1028 OM 1028 OM OM1 1028 -0.550000 15.99940
1029 OM 1029 OM OM1 1029 -0.550000 15.99940
1030 OM 1030 OM OM1 1030 -0.550000 15.99940
1031 OM 1031 OM OM1 1031 -0.550000 15.99940
1032 OM 1032 OM OM1 1032 -0.550000 15.99940
1033 OM 1033 OM OM1 1033 -0.550000 15.99940
1034 OM 1034 OM OM1 1034 -0.550000 15.99940
1035 OM 1035 OM OM1 1035 -0.550000 15.99940
1036 OM 1036 OM OM1 1036 -0.550000 15.99940
1037 OM 1037 OM OM1 1037 -0.550000 15.99940
1038 OM 1038 OM OM1 1038 -0.550000 15.99940
1039 OM 1039 OM OM1 1039 -0.550000 15.99940
1040 OM 1040 OM OM1 1040 -0.550000 15.99940
1041 OM 1041 OM OM1 1041 -0.550000 15.99940
1042 OM 1042 OM OM1 1042 -0.550000 15.99940
1043 OM 1043 OM OM1 1043 -0.550000 15.99940
1044 OM 1044 OM OM1 1044 -0.550000 15.99940
1045 OM 1045 OM OM1 1045 -0.550000 15.99940
1046 OM 1046 OM OM1 1046 -0.550000 15.99940
1047 OM 1047 OM OM1 1047 -0.550000 15.99940
1048 OM 1048 OM OM1 1048 -0.550000 15.99940
1049 OM 1049 OM OM1 1049 -0.550000 15.99940
1050 OM 1050 OM OM1 1050 -0.550000 15.99940
1051 OM 1051 OM OM1 1051 -0.550000 15.99940
1052 OM 1052 OM OM1 1052 -0.550000 15.99940
1053 OM 1053 OM OM1 1053 -0.550000 15.99940
1054 OM 1054 OM OM1 1054 -0.550000 15.99940
1055 OM 1055 OM OM1 1055 -0.550000 15.99940
1056 OM 1056 OM OM1 1056 -0.550000 15.99940
1057 OM 1057 OM OM1 1057 -0.550000 15.99940
1058 OM 1058 OM OM1 1058 -0.550000 15.99940
1059 OM 1059 OM OM1 1059 -0.550000 15.99940
1060 OM 1060 OM OM1 1060 -0.550000 15.99940
1061 OM 1061 OM OM1 1061 -0.550000 15.99940
1062 OM 1062 OM OM1 1062 -0.550000 15.99940
1063 OM 1063 OM OM1 1063 -0.550000 15.99940
1064 OM 1064 OM OM1 1064 -0.550000 15.99940
1065 OM 1065 OM OM1 1065 -0.550000 15.99940
1066 OM 1066 OM OM1 1066 -0.550000 15.99940
1067 OM 1067 OM OM1 1067 -0.550000 15.99940
1068 OM 1068 OM OM1 1068 -0.550000 15.99940
1069 OM 1069 OM OM1 1069 -0.550000 15.99940
1070 OM 1070 OM OM1 1070 -0.550000 15.99940
1071 OM 1071 OM OM1 1071 -0.550000 15.99940
1072 OM 1072 OM OM1 1072 -0.550000 15.99940
1073 OM 1073 OM OM1 1073 -0.550000 15.99940
1074 OM 1074 OM OM1 1074 -0.550000 15.99940
1075 OM 1075 OM OM1 1075 -0.550000 15.99940
1076 OM 1076 OM OM1 1076 -0.550000 15.99940
1077 OM 1077 OM OM1 1077 -0.550000 15.99940
1078 OM 1078 OM OM1 1078 -0.550000 15.99940
1079 OM 1079 OM OM1 1079 -0.550000 15.99940
1080 OM 1080 OM OM1 1080 -0.550000 15.99940
1081 OM 1081 OM OM1 1081 -0.550000 15.99940
1082 OM 1082 OM OM1 1082 -0.550000 15.99940
1083 OM 1083 OM OM1 1083 -0.550000 15.99940
1084 OM 1084 OM OM1 1084 -0.550000 15.99940
1085 OM 1085 OM OM1 1085 -0.550000 15.99940
1086 OM 1086 OM OM1 1086 -0.550000 15.99940
1087 OM 1087 OM OM1 1087 -0.550000 15.99940
1088 OM 1088 OM OM1 1088 -0.550000 15.99940
1089 OM 1089 OM OM1 1089 -0.550000 15.99940
1090 OM 1090 OM OM1 1090 -0.550000 15.99940
1091 OM 1091 OM OM1 1091 -0.550000 15.99940
1092 OM 1092 OM OM1 1092 -0.550000 15.99940
1093 OM 1093 OM OM1 1093 -0.550000 15.99940
1094 OM 1094 OM OM1 1094 -0.550000 15.99940
1095 OM 1095 OM OM1 1095 -0.550000 15.99940
1096 OM 1096 OM OM1 1096 -0.550000 15.99940
1097 OM 1097 OM OM1 1097 -0.550000 15.99940
1098 OM 1098 OM OM1 1098 -0.550000 15.99940
1099 OM 1099 OM OM1 1099 -0.550000 15.99940
1100 OM 1100 OM OM1 1100 -0.550000 15.99940
1101 OM 1101 OM OM1 1101 -0.550000 15.99940
1102 OM 1102 OM OM1 1102 -0.550000 15.99940
1103 OM 1103 OM OM1 1103 -0.550000 15.99940
1104 OM 1104 OM OM1 1104 -0.550000 15.99940
1105 OM 1105 OM OM1 1105 -0.550000 15.99940
1106 OM 1106 OM OM1 1106 -0.550000 15.99940
1107 OM 1107 OM OM1 1107 -0.550000 15.99940
1108 OM 1108 OM OM1 1108 -0.550000 15.99940
1109 OM 1109 OM OM1 1109 -0.550000 15.99940
1110 OM 1110 OM OM1 1110 -0.550000 15.99940
1111 OM 1111 OM OM1 1111 -0.550000 15.99940
1112 OM 1112 OM OM1 1112 -0.550000 15.99940
1113 OM 1113 OM OM1 1113 -0.550000 15.99940
1114 OM 1114 OM OM1 1114 -0.550000 15.99940
1115 OM 1115 OM OM1 1115 -0.550000 15.99940
1116 OM 1116 OM OM1 1116 -0.550000 15.99940
1117 OM 1117 OM OM1 1117 -0.550000 15.99940
1118 OM 1118 OM OM1 1118 -0.550000 15.99940
1119 OM 1119 OM OM1 1119 -0.550000 15.99940
1120 OM 1120 OM OM1 1120 -0.550000 15.99940
1121 OM 1121 OM OM1 1121 -0.550000 15.99940
1122 OM 1122 OM OM1 1122 -0.550000 15.99940
1123 OM 1123 OM OM1 1123 -0.550000 15.99940
1124 OM 1124 OM OM1 1124 -0.550000 15.99940
1125 OM 1125 OM OM1 1125 -0.550000 15.99940
1126 OM 1126 OM OM1 1126 -0.550000 15.99940
1127 OM 1127 OM OM1 1127 -0.550000 15.99940
1128 OM 1128 OM OM1 1128 -0.550000 15.99940
1129 OM 1129 OM OM1 1129 -0.550000 15.99940
1130 OM 1130 OM OM1 1130 -0.550000 15.99940
1131 OM 1131 OM OM1 1131 -0.550000 15.99940
1132 OM 1132 OM OM1 1132 -0.550000 15.99940
1133 OM 1133 OM OM1 1133 -0.550000 15.99940
1134 OM 1134 OM OM1 1134 -0.550000 15.99940
1135 OM 1135 OM OM1 1135 -0.550000 15.99940
1136 OM 1136 OM OM1 1136 -0.550000 15.99940
1137 OM 1137 OM OM1 1137 -0.550000 15.99940
1138 OM 1138 OM OM1 1138 -0.550000 15.99940
1139 OM 1139 OM OM1 1139 -0.550000 15.99940
1140 OM 1140 OM OM1 1140 -0.550000 15.99940
1141 OM 1141 OM OM1 1141 -0.550000 15.99940
1142 OM 1142 OM OM1 1142 -0.550000 15.99940
1143 OM 1143 OM OM1 1143 -0.550000 15.99940
1144 OM 1144 OM OM1 1144 -0.550000 15.99940
1145 OM 1145 OM OM1 1145 -0.550000 15.99940
1146 OM 1146 OM OM1 1146 -0.550000 15.99940
1147 OM 1147 OM OM1 1147 -0.550000 15.99940
1148 OM 1148 OM OM1 1148 -0.550000 15.99940
1149 OM 1149 OM OM1 1149 -0.550000 15.99940
1150 OM 1150 OM OM1 1150 -0.550000 15.99940
1151 OM 1151 OM OM1 1151 -0.550000 15.99940
1152 OM 1152 OM OM1 1152 -0.550000 15.99940
1153 OM 1153 OM OM1 1153 -0.550000 15.99940
1154 OM 1154 OM OM1 1154 -0.550000 15.99940
1155 OM 1155 OM OM1 1155 -0.550000 15.99940
1156 OM 1156 OM OM1 1156 -0.550000 15.99940
1157 OM 1157 OM OM1 1157 -0.550000 15.99940
1158 OM 1158 OM OM1 1158 -0.550000 15.99940
1159 OM 1159 OM OM1 1159 -0.550000 15.99940
1160 OM 1160 OM OM1 1160 -0.550000 15.99940
1161 OM 1161 OM OM1 1161 -0.550000 15.99940
1162 OM 1162 OM OM1 1162 -0.550000 15.99940
1163 OM 1163 OM OM1 1163 -0.550000 15.99940
1164 OM 1164 OM OM1 1164 -0.550000 15.99940
1165 OM 1165 OM OM1 1165 -0.550000 15.99940
1166 OM 1166 OM OM1 1166 -0.550000 15.99940
1167 OM 1167 OM OM1 1167 -0.550000 15.99940
1168 OM 1168 OM OM1 1168 -0.550000 15.99940
1169 OM 1169 OM OM1 1169 -0.550000 15.99940
1170 OM 1170 OM OM1 1170 -0.550000 15.99940
1171 OM 1171 OM OM1 1171 -0.550000 15.99940
1172 OM 1172 OM OM1 1172 -0.550000 15.99940
1173 OM 1173 OM OM1 1173 -0.550000 15.99940
1174 OM 1174 OM OM1 1174 -0.550000 15.99940
1175 OM 1175 OM OM1 1175 -0.550000 15.99940
1176 OM 1176 OM OM1 1176 -0.550000 15.99940
1177 OM 1177 OM OM1 1177 -0.550000 15.99940
1178 OM 1178 OM OM1 1178 -0.550000 15.99940
1179 OM 1179 OM OM1 1179 -0.550000 15.99940
1180 OM 1180 OM OM1 1180 -0.550000 15.99940
1181 OM 1181 OM OM1 1181 -0.550000 15.99940
1182 OM 1182 OM OM1 1182 -0.550000 15.99940
1183 OM 1183 OM OM1 1183 -0.550000 15.99940
1184 OM 1184 OM OM1 1184 -0.550000 15.99940
1185 OM 1185 OM OM1 1185 -0.550000 15.99940
1186 OM 1186 OM OM1 1186 -0.550000 15.99940
1187 OM 1187 OM OM1 1187 -0.550000 15.99940
1188 OM 1188 OM OM1 1188 -0.550000 15.99940
1189 OM 1189 OM OM1 1189 -0.550000 15.99940
1190 OM 1190 OM OM1 1190 -0.550000 15.99940
1191 OM 1191 OM OM1 1191 -0.550000 15.99940
1192 OM 1192 OM OM1 1192 -0.550000 15.99940
1193 OM 1193 OM OM1 1193 -0.550000 15.99940
1194 OM 1194 OM OM1 1194 -0.550000 15.99940
1195 OM 1195 OM OM1 1195 -0.550000 15.99940
1196 OM 1196 OM OM1 1196 -0.550000 15.99940
1197 OM 1197 OM OM1 1197 -0.550000 15.99940
1198 OM 1198 OM OM1 1198 -0.550000 15.99940
1199 OM 1199 OM OM1 1199 -0.550000 15.99940
1200 OM 1200 OM OM1 1200 -0.550000 15.99940
1201 OM 1201 OM OM1 1201 -0.550000 15.99940
1202 OM 1202 OM OM1 1202 -0.550000 15.99940
1203 OM 1203 OM OM1 1203 -0.550000 15.99940
1204 OM 1204 OM OM1 1204 -0.550000 15.99940
1205 OM 1205 OM OM1 1205 -0.550000 15.99940
1206 OM 1206 OM OM1 1206 -0.550000 15.99940
1207 OM 1207 OM OM1 1207 -0.550000 15.99940
1208 OM 1208 OM OM1 1208 -0.550000 15.99940
1209 OM 1209 OM OM1 1209 -0.550000 15.99940
1210 OM 1210 OM OM1 1210 -0.550000 15.99940
1211 OM 1211 OM OM1 1211 -0.550000 15.99940
1212 OM 1212 OM OM1 1212 -0.550000 15.99940
1213 OM 1213 OM OM1 1213 -0.550000 15.99940
1214 OM 1214 OM OM1 1214 -0.550000 15.99940
1215 OM 1215 OM OM1 1215 -0.550000 15.99940
1216 OM 1216 OM OM1 1216 -0.550000 15.99940
1217 OM 1217 OM OM1 1217 -0.550000 15.99940
1218 OM 1218 OM OM1 1218 -0.550000 15.99940
1219 OM 1219 OM OM1 1219 -0.550000 15.99940
1220 OM 1220 OM OM1 1220 -0.550000 15.99940
1221 OM 1221 OM OM1 1221 -0.550000 15.99940
1222 OM 1222 OM OM1 1222 -0.550000 15.99940
1223 OM 1223 OM OM1 1223 -0.550000 15.99940
1224 OM 1224 OM OM1 1224 -0.550000 15.99940
1225 OM 1225 OM OM1 1225 -0.550000 15.99940
1226 OM 1226 OM OM1 1226 -0.550000 15.99940
1227 OM 1227 OM OM1 1227 -0.550000 15.99940
1228 OM 1228 OM OM1 1228 -0.550000 15.99940
1229 OM 1229 OM OM1 1229 -0.550000 15.99940
1230 OM 1230 OM OM1 1230 -0.550000 15.99940
1231 OM 1231 OM OM1 1231 -0.550000 15.99940
1232 OM 1232 OM OM1 1232 -0.550000 15.99940
1233 OM 1233 OM OM1 1233 -0.550000 15.99940
1234 OM 1234 OM OM1 1234 -0.550000 15.99940
1235 OM 1235 OM OM1 1235 -0.550000 15.99940
1236 OM 1236 OM OM1 1236 -0.550000 15.99940
1237 OM 1237 OM OM1 1237 -0.550000 15.99940
1238 OM 1238 OM OM1 1238 -0.550000 15.99940
1239 OM 1239 OM OM1 1239 -0.550000 15.99940
1240 OM 1240 OM OM1 1240 -0.550000 15.99940
1241 OM 1241 OM OM1 1241 -0.550000 15.99940
1242 OM 1242 OM OM1 1242 -0.550000 15.99940
1243 OM 1243 OM OM1 1243 -0.550000 15.99940
1244 OM 1244 OM OM1 1244 -0.550000 15.99940
1245 OM 1245 OM OM1 1245 -0.550000 15.99940
1246 OM 1246 OM OM1 1246 -0.550000 15.99940
1247 OM 1247 OM OM1 1247 -0.550000 15.99940
1248 OM 1248 OM OM1 1248 -0.550000 15.99940
1249 OM 1249 OM OM1 1249 -0.550000 15.99940
1250 OM 1250 OM OM1 1250 -0.550000 15.99940
1251 OM 1251 OM OM1 1251 -0.550000 15.99940
1252 OM 1252 OM OM1 1252 -0.550000 15.99940
1253 OM 1253 OM OM1 1253 -0.550000 15.99940
1254 OM 1254 OM OM1 1254 -0.550000 15.99940
1255 OM 1255 OM OM1 1255 -0.550000 15.99940
1256 OM 1256 OM OM1 1256 -0.550000 15.99940
1257 OM 1257 OM OM1 1257 -0.550000 15.99940
1258 OM 1258 OM OM1 1258 -0.550000 15.99940
1259 OM 1259 OM OM1 1259 -0.550000 15.99940
1260 OM 1260 OM OM1 1260 -0.550000 15.99940
1261 OM 1261 OM OM1 1261 -0.550000 15.99940
1262 OM 1262 OM OM1 1262 -0.550000 15.99940
1263 OM 1263 OM OM1 1263 -0.550000 15.99940
1264 OM 1264 OM OM1 1264 -0.550000 15.99940
1265 OM 1265 OM OM1 1265 -0.550000 15.99940
1266 OM 1266 OM OM1 1266 -0.550000 15.99940
1267 OM 1267 OM OM1 1267 -0.550000 15.99940
1268 OM 1268 OM OM1 1268 -0.550000 15.99940
1269 OM 1269 OM OM1 1269 -0.550000 15.99940
1270 OM 1270 OM OM1 1270 -0.550000 15.99940
1271 OM 1271 OM OM1 1271 -0.550000 15.99940
1272 OM 1272 OM OM1 1272 -0.550000 15.99940
1273 OM 1273 OM OM1 1273 -0.550000 15.99940
1274 OM 1274 OM OM1 1274 -0.550000 15.99940
1275 OM 1275 OM OM1 1275 -0.550000 15.99940
1276 OM 1276 OM OM1 1276 -0.550000 15.99940
1277 OM 1277 OM OM1 1277 -0.550000 15.99940
1278 OM 1278 OM OM1 1278 -0.550000 15.99940
1279 OM 1279 OM OM1 1279 -0.550000 15.99940
1280 OM 1280 OM OM1 1280 -0.550000 15.99940
1281 OM 1281 OM OM1 1281 -0.550000 15.99940
1282 OM 1282 OM OM1 1282 -0.550000 15.99940
1283 OM 1283 OM OM1 1283 -0.550000 15.99940
1284 OM 1284 OM OM1 1284 -0.550000 15.99940
1285 OM 1285 OM OM1 1285 -0.550000 15.99940
1286 OM 1286 OM OM1 1286 -0.550000 15.99940
1287 OM 1287 OM OM1 1287 -0.550000 15.99940
1288 OM 1288 OM OM1 1288 -0.550000 15.99940
1289 OM 1289 OM OM1 1289 -0.550000 15.99940
1290 OM 1290 OM OM1 1290 -0.550000 15.99940
1291 OM 1291 OM OM1 1291 -0.550000 15.99940
1292 OM 1292 OM OM1 1292 -0.550000 15.99940
1293 OM 1293 OM OM1 1293 -0.550000 15.99940
1294 OM 1294 OM OM1 1294 -0.550000 15.99940
1295 OM 1295 OM OM1 1295 -0.550000 15.99940
1296 OM 1296 OM OM1 1296 -0.550000 15.99940
1297 OM 1297 OM OM1 1297 -0.550000 15.99940
1298 OM 1298 OM OM1 1298 -0.550000 15.99940
1299 OM 1299 OM OM1 1299 -0.550000 15.99940
1300 OM 1300 OM OM1 1300 -0.550000 15.99940
1301 OM 1301 OM OM1 1301 -0.550000 15.99940
1302 OM 1302 OM OM1 1302 -0.550000 15.99940
1303 OM 1303 OM OM1 1303 -0.550000 15.99940
1304 OM 1304 OM OM1 1304 -0.550000 15.99940
1305 OM 1305 OM OM1 1305 -0.550000 15.99940
1306 OM 1306 OM OM1 1306 -0.550000 15.99940
1307 OM 1307 OM OM1 1307 -0.550000 15.99940
1308 OM 1308 OM OM1 1308 -0.550000 15.99940
1309 OM 1309 OM OM1 1309 -0.550000 15.99940
1310 OM 1310 OM OM1 1310 -0.550000 15.99940
1311 OM 1311 OM OM1 1311 -0.550000 15.99940
1312 OM 1312 OM OM1 1312 -0.550000 15.99940
1313 OM 1313 OM OM1 1313 -0.550000 15.99940
1314 OM 1314 OM OM1 1314 -0.550000 15.99940
1315 OM 1315 OM OM1 1315 -0.550000 15.99940
1316 OM 1316 OM OM1 1316 -0.550000 15.99940
1317 OM 1317 OM OM1 1317 -0.550000 15.99940
1318 OM 1318 OM OM1 1318 -0.550000 15.99940
1319 OM 1319 OM OM1 1319 -0.550000 15.99940
1320 OM 1320 OM OM1 1320 -0.550000 15.99940
1321 OM 1321 OM OM1 1321 -0.550000 15.99940
1322 OM 1322 OM OM1 1322 -0.550000 15.99940
1323 OM 1323 OM OM1 1323 -0.550000 15.99940
1324 OM 1324 OM OM1 1324 -0.550000 15.99940
1325 OM 1325 OM OM1 1325 -0.550000 15.99940
1326 OM 1326 OM OM1 1326 -0.550000 15.99940
1327 OM 1327 OM OM1 1327 -0.550000 15.99940
1328 OM 1328 OM OM1 1328 -0.550000 15.99940
1329 OM 1329 OM OM1 1329 -0.550000 15.99940
1330 OM 1330 OM OM1 1330 -0.550000 15.99940
1331 OM 1331 OM OM1 1331 -0.550000 15.99940
1332 OM 1332 OM OM1 1332 -0.550000 15.99940
1333 OM 1333 OM OM1 1333 -0.550000 15.99940
1334 OM 1334 OM OM1 1334 -0.550000 15.99940
1335 OM 1335 OM OM1 1335 -0.550000 15.99940
1336 OM 1336 OM OM1 1336 -0.550000 15.99940
1337 OM 1337 OM OM1 1337 -0.550000 15.99940
1338 OM 1338 OM OM1 1338 -0.550000 15.99940
1339 OM 1339 OM OM1 1339 -0.550000 15.99940
1340 OM 1340 OM OM1 1340 -0.550000 15.99940
1341 OM 1341 OM OM1 1341 -0.550000 15.99940
1342 OM 1342 OM OM1 1342 -0.550000 15.99940
1343 OM 1343 OM OM1 1343 -0.550000 15.99940
1344 OM 1344 OM OM1 1344 -0.550000 15.99940
1345 OM 1345 OM OM1 1345 -0.550000 15.99940
1346 OM 1346 OM OM1 1346 -0.550000 15.99940
1347 OM 1347 OM OM1 1347 -0.550000 15.99940
1348 OM 1348 OM OM1 1348 -0.550000 15.99940
1349 OM 1349 OM OM1 1349 -0.550000 15.99940
1350 OM 1350 OM OM1 1350 -0.550000 15.99940
1351 OM 1351 OM OM1 1351 -0.550000 15.99940
1352 OM 1352 OM OM1 1352 -0.550000 15.99940
1353 OM 1353 OM OM1 1353 -0.550000 15.99940
1354 OM 1354 OM OM1 1354 -0.550000 15.99940
1355 OM 1355 OM OM1 1355 -0.550000 15.99940
1356 OM 1356 OM OM1 1356 -0.550000 15.99940
1357 OM 1357 OM OM1 1357 -0.550000 15.99940
1358 OM 1358 OM OM1 1358 -0.550000 15.99940
1359 OM 1359 OM OM1 1359 -0.550000 15.99940
1360 OM 1360 OM OM1 1360 -0.550000 15.99940
1361 OM 1361 OM OM1 1361 -0.550000 15.99940
1362 OM 1362 OM OM1 1362 -0.550000 15.99940
1363 OM 1363 OM OM1 1363 -0.550000 15.99940
1364 OM 1364 OM OM1 1364 -0.550000 15.99940
1365 OM 1365 OM OM1 1365 -0.550000 15.99940
1366 OM 1366 OM OM1 1366 -0.550000 15.99940
1367 OM 1367 OM OM1 1367 -0.550000 15.99940
1368 OM 1368 OM OM1 1368 -0.550000 15.99940
1369 OM 1369 OM OM1 1369 -0.550000 15.99940
1370 OM 1370 OM OM1 1370 -0.550000 15.99940
1371 OM 1371 OM OM1 1371 -0.550000 15.99940
1372 OM 1372 OM OM1 1372 -0.550000 15.99940
1373 OM 1373 OM OM1 1373 -0.550000 15.99940
1374 OM 1374 OM OM1 1374 -0.550000 15.99940
1375 OM 1375 OM OM1 1375 -0.550000 15.99940
1376 OM 1376 OM OM1 1376 -0.550000 15.99940
1377 OM 1377 OM OM1 1377 -0.550000 15.99940
1378 OM 1378 OM OM1 1378 -0.550000 15.99940
1379 OM 1379 OM OM1 1379 -0.550000 15.99940
1380 OM 1380 OM OM1 1380 -0.550000 15.99940
1381 OM 1381 OM OM1 1381 -0.550000 15.99940
1382 OM 1382 OM OM1 1382 -0.550000 15.99940
1383 OM 1383 OM OM1 1383 -0.550000 15.99940
1384 OM 1384 OM OM1 1384 -0.550000 15.99940
1385 OM 1385 OM OM1 1385 -0.550000 15.99940
1386 OM 1386 OM OM1 1386 -0.550000 15.99940
1387 OM 1387 OM OM1 1387 -0.550000 15.99940
1388 OM 1388 OM OM1 1388 -0.550000 15.99940
1389 OM 1389 OM OM1 1389 -0.550000 15.99940
1390 OM 1390 OM OM1 1390 -0.550000 15.99940
1391 OM 1391 OM OM1 1391 -0.550000 15.99940
1392 OM 1392 OM OM1 1392 -0.550000 15.99940
1393 OM 1393 OM OM1 1393 -0.550000 15.99940
1394 OM 1394 OM OM1 1394 -0.550000 15.99940
1395 OM 1395 OM OM1 1395 -0.550000 15.99940
1396 OM 1396 OM OM1 1396 -0.550000 15.99940
1397 OM 1397 OM OM1 1397 -0.550000 15.99940
1398 OM 1398 OM OM1 1398 -0.550000 15.99940
1399 OM 1399 OM OM1 1399 -0.550000 15.99940
1400 OM 1400 OM OM1 1400 -0.550000 15.99940
1401 OM 1401 OM OM1 1401 -0.550000 15.99940
1402 OM 1402 OM OM1 1402 -0.550000 15.99940
1403 OM 1403 OM OM1 1403 -0.550000 15.99940
1404 OM 1404 OM OM1 1404 -0.550000 15.99940
1405 OM 1405 OM OM1 1405 -0.550000 15.99940
1406 OM 1406 OM OM1 1406 -0.550000 15.99940
1407 OM 1407 OM OM1 1407 -0.550000 15.99940
1408 OM 1408 OM OM1 1408 -0.550000 15.99940
1409 OM 1409 OM OM1 1409 -0.550000 15.99940
1410 OM 1410 OM OM1 1410 -0.550000 15.99940
1411 OM 1411 OM OM1 1411 -0.550000 15.99940
1412 OM 1412 OM OM1 1412 -0.550000 15.99940
1413 OM 1413 OM OM1 1413 -0.550000 15.99940
1414 OM 1414 OM OM1 1414 -0.550000 15.99940
1415 OM 1415 OM OM1 1415 -0.550000 15.99940
1416 OM 1416 OM OM1 1416 -0.550000 15.99940
1417 OM 1417 OM OM1 1417 -0.550000 15.99940
1418 OM 1418 OM OM1 1418 -0.550000 15.99940
1419 OM 1419 OM OM1 1419 -0.550000 15.99940
1420 OM 1420 OM OM1 1420 -0.550000 15.99940
1421 OM 1421 OM OM1 1421 -0.550000 15.99940
1422 OM 1422 OM OM1 1422 -0.550000 15.99940
1423 OM 1423 OM OM1 1423 -0.550000 15.99940
1424 OM 1424 OM OM1 1424 -0.550000 15.99940
1425 OM 1425 OM OM1 1425 -0.550000 15.99940
1426 OM 1426 OM OM1 1426 -0.550000 15.99940
1427 OM 1427 OM OM1 1427 -0.550000 15.99940
1428 OM 1428 OM OM1 1428 -0.550000 15.99940
1429 OM 1429 OM OM1 1429 -0.550000 15.99940
1430 OM 1430 OM OM1 1430 -0.550000 15.99940
1431 OM 1431 OM OM1 1431 -0.550000 15.99940
1432 OM 1432 OM OM1 1432 -0.550000 15.99940
1433 OM 1433 OM OM1 1433 -0.550000 15.99940
1434 OM 1434 OM OM1 1434 -0.550000 15.99940
1435 OM 1435 OM OM1 1435 -0.550000 15.99940
1436 OM 1436 OM OM1 1436 -0.550000 15.99940
1437 OM 1437 OM OM1 1437 -0.550000 15.99940
1438 OM 1438 OM OM1 1438 -0.550000 15.99940
1439 OM 1439 OM OM1 1439 -0.550000 15.99940
1440 OM 1440 OM OM1 1440 -0.550000 15.99940
1441 OM 1441 OM OM1 1441 -0.550000 15.99940
1442 OM 1442 OM OM1 1442 -0.550000 15.99940
1443 OM 1443 OM OM1 1443 -0.550000 15.99940
1444 OM 1444 OM OM1 1444 -0.550000 15.99940
1445 OM 1445 OM OM1 1445 -0.550000 15.99940
1446 OM 1446 OM OM1 1446 -0.550000 15.99940
1447 OM 1447 OM OM1 1447 -0.550000 15.99940
1448 OM 1448 OM OM1 1448 -0.550000 15.99940
1449 OM 1449 OM OM1 1449 -0.550000 15.99940
1450 OM 1450 OM OM1 1450 -0.550000 15.99940
1451 OM 1451 OM OM1 1451 -0.550000 15.99940
1452 OM 1452 OM OM1 1452 -0.550000 15.99940
1453 OM 1453 OM OM1 1453 -0.550000 15.99940
1454 OM 1454 OM OM1 1454 -0.550000 15.99940
1455 OM 1455 OM OM1 1455 -0.550000 15.99940
1456 OM 1456 OM OM1 1456 -0.550000 15.99940
1457 OM 1457 OM OM1 1457 -0.550000 15.99940
1458 OM 1458 OM OM1 1458 -0.550000 15.99940
1459 OM 1459 OM OM1 1459 -0.550000 15.99940
1460 OM 1460 OM OM1 1460 -0.550000 15.99940
1461 OM 1461 OM OM1 1461 -0.550000 15.99940
1462 OM 1462 OM OM1 1462 -0.550000 15.99940
1463 OM 1463 OM OM1 1463 -0.550000 15.99940
1464 OM 1464 OM OM1 1464 -0.550000 15.99940
1465 OM 1465 OM OM1 1465 -0.550000 15.99940
1466 OM 1466 OM OM1 1466 -0.550000 15.99940
1467 OM 1467 OM OM1 1467 -0.550000 15.99940
1468 OM 1468 OM OM1 1468 -0.550000 15.99940
1469 OM 1469 OM OM1 1469 -0.550000 15.99940
1470 OM 1470 OM OM1 1470 -0.550000 15.99940
1471 OM 1471 OM OM1 1471 -0.550000 15.99940
1472 OM 1472 OM OM1 1472 -0.550000 15.99940
1473 OM 1473 OM OM1 1473 -0.550000 15.99940
1474 OM 1474 OM OM1 1474 -0.550000 15.99940
1475 OM 1475 OM OM1 1475 -0.550000 15.99940
1476 OM 1476 OM OM1 1476 -0.550000 15.99940
1477 OM 1477 OM OM1 1477 -0.550000 15.99940
1478 OM 1478 OM OM1 1478 -0.550000 15.99940
1479 OM 1479 OM OM1 1479 -0.550000 15.99940
1480 OM 1480 OM OM1 1480 -0.550000 15.99940
1481 OM 1481 OM OM1 1481 -0.550000 15.99940
1482 OM 1482 OM OM1 1482 -0.550000 15.99940
1483 OM 1483 OM OM1 1483 -0.550000 15.99940
1484 OM 1484 OM OM1 1484 -0.550000 15.99940
1485 OM 1485 OM OM1 1485 -0.550000 15.99940
1486 OM 1486 OM OM1 1486 -0.550000 15.99940
1487 OM 1487 OM OM1 1487 -0.550000 15.99940
1488 OM 1488 OM OM1 1488 -0.550000 15.99940
1489 OM 1489 OM OM1 1489 -0.550000 15.99940
1490 OM 1490 OM OM1 1490 -0.550000 15.99940
1491 OM 1491 OM OM1 1491 -0.550000 15.99940
1492 OM 1492 OM OM1 1492 -0.550000 15.99940
1493 OM 1493 OM OM1 1493 -0.550000 15.99940
1494 OM 1494 OM OM1 1494 -0.550000 15.99940
1495 OM 1495 OM OM1 1495 -0.550000 15.99940
1496 OM 1496 OM OM1 1496 -0.550000 15.99940
1497 OM 1497 OM OM1 1497 -0.550000 15.99940
1498 OM 1498 OM OM1 1498 -0.550000 15.99940
1499 OM 1499 OM OM1 1499 -0.550000 15.99940
1500 OM 1500 OM OM1 1500 -0.550000 15.99940
1501 OM 1501 OM OM1 1501 -0.550000 15.99940
1502 OM 1502 OM OM1 1502 -0.550000 15.99940
1503 OM 1503 OM OM1 1503 -0.550000 15.99940
1504 OM 1504 OM OM1 1504 -0.550000 15.99940
1505 OM 1505 OM OM1 1505 -0.550000 15.99940
1506 OM 1506 OM OM1 1506 -0.550000 15.99940
1507 OM 1507 OM OM1 1507 -0.550000 15.99940
1508 OM 1508 OM OM1 1508 -0.550000 15.99940
1509 OM 1509 OM OM1 1509 -0.550000 15.99940
1510 OM 1510 OM OM1 1510 -0.550000 15.99940
1511 OM 1511 OM OM1 1511 -0.550000 15.99940
1512 OM 1512 OM OM1 1512 -0.550000 15.99940
1513 OM 1513 OM OM1 1513 -0.550000 15.99940
1514 OM 1514 OM OM1 1514 -0.550000 15.99940
1515 OM 1515 OM OM1 1515 -0.550000 15.99940
1516 OM 1516 OM OM1 1516 -0.550000 15.99940
1517 OM 1517 OM OM1 1517 -0.550000 15.99940
1518 OM 1518 OM OM1 1518 -0.550000 15.99940
1519 OM 1519 OM OM1 1519 -0.550000 15.99940
1520 OM 1520 OM OM1 1520 -0.550000 15.99940
1521 OM 1521 OM OM1 1521 -0.550000 15.99940
1522 OM 1522 OM OM1 1522 -0.550000 15.99940
1523 OM 1523 OM OM1 1523 -0.550000 15.99940
1524 OM 1524 OM OM1 1524 -0.550000 15.99940
1525 OM 1525 OM OM1 1525 -0.550000 15.99940
1526 OM 1526 OM OM1 1526 -0.550000 15.99940
1527 OM 1527 OM OM1 1527 -0.550000 15.99940
1528 OM 1528 OM OM1 1528 -0.550000 15.99940
1529 OM 1529 OM OM1 1529 -0.550000 15.99940
1530 OM 1530 OM OM1 1530 -0.550000 15.99940
1531 OM 1531 OM OM1 1531 -0.550000 15.99940
1532 OM 1532 OM OM1 1532 -0.550000 15.99940
1533 OM 1533 OM OM1 1533 -0.550000 15.99940
1534 OM 1534 OM OM1 1534 -0.550000 15.99940
1535 OM 1535 OM OM1 1535 -0.550000 15.99940
1536 OM 1536 OM OM1 1536 -0.550000 15.99940
1537 OM 1537 OM OM1 1537 -0.550000 15.99940
1538 OM 1538 OM OM1 1538 -0.550000 15.99940
1539 OM 1539 OM OM1 1539 -0.550000 15.99940
1540 OM 1540 OM OM1 1540 -0.550000 15.99940
1541 OM 1541 OM OM1 1541 -0.550000 15.99940
1542 OM 1542 OM OM1 1542 -0.550000 15.99940
1543 OM 1543 OM OM1 1543 -0.550000 15.99940
1544 OM 1544 OM OM1 1544 -0.550000 15.99940
1545 OM 1545 OM OM1 1545 -0.550000 15.99940
1546 OM 1546 OM OM1 1546 -0.550000 15.99940
1547 OM 1547 OM OM1 1547 -0.550000 15.99940
1548 OM 1548 OM OM1 1548 -0.550000 15.99940
1549 OM 1549 OM OM1 1549 -0.550000 15.99940
1550 OM 1550 OM OM1 1550 -0.550000 15.99940
1551 OM 1551 OM OM1 1551 -0.550000 15.99940
1552 OM 1552 OM OM1 1552 -0.550000 15.99940
1553 OM 1553 OM OM1 1553 -0.550000 15.99940
1554 OM 1554 OM OM1 1554 -0.550000 15.99940
1555 OM 1555 OM OM1 1555 -0.550000 15.99940
1556 OM 1556 OM OM1 1556 -0.550000 15.99940
1557 OM 1557 OM OM1 1557 -0.550000 15.99940
1558 OM 1558 OM OM1 1558 -0.550000 15.99940
1559 OM 1559 OM OM1 1559 -0.550000 15.99940
1560 OM 1560 OM OM1 1560 -0.550000 15.99940
1561 OM 1561 OM OM1 1561 -0.550000 15.99940
1562 OM 1562 OM OM1 1562 -0.550000 15.99940
1563 OM 1563 OM OM1 1563 -0.550000 15.99940
1564 OM 1564 OM OM1 1564 -0.550000 15.99940
1565 OM 1565 OM OM1 1565 -0.550000 15.99940
1566 OM 1566 OM OM1 1566 -0.550000 15.99940
1567 OM 1567 OM OM1 1567 -0.550000 15.99940
1568 OM 1568 OM OM1 1568 -0.550000 15.99940
1569 OM 1569 OM OM1 1569 -0.550000 15.99940
1570 OM 1570 OM OM1 1570 -0.550000 15.99940
1571 OM 1571 OM OM1 1571 -0.550000 15.99940
1572 OM 1572 OM OM1 1572 -0.550000 15.99940
1573 OM 1573 OM OM1 1573 -0.550000 15.99940
1574 OM 1574 OM OM1 1574 -0.550000 15.99940
1575 OM 1575 OM OM1 1575 -0.550000 15.99940
1576 OM 1576 OM OM1 1576 -0.550000 15.99940
1577 OM 1577 OM OM1 1577 -0.550000 15.99940
1578 OM 1578 OM OM1 1578 -0.550000 15.99940
1579 OM 1579 OM OM1 1579 -0.550000 15.99940
1580 OM 1580 OM OM1 1580 -0.550000 15.99940
1581 OM 1581 OM OM1 1581 -0.550000 15.99940
1582 OM 1582 OM OM1 1582 -0.550000 15.99940
1583 OM 1583 OM OM1 1583 -0.550000 15.99940
1584 OM 1584 OM OM1 1584 -0.550000 15.99940
1585 OM 1585 OM OM1 1585 -0.550000 15.99940
1586 OM 1586 OM OM1 1586 -0.550000 15.99940
1587 OM 1587 OM OM1 1587 -0.550000 15.99940
1588 OM 1588 OM OM1 1588 -0.550000 15.99940
1589 OM 1589 OM OM1 1589 -0.550000 15.99940
1590 OM 1590 OM OM1 1590 -0.550000 15.99940
1591 OM 1591 OM OM1 1591 -0.550000 15.99940
1592 OM 1592 OM OM1 1592 -0.550000 15.99940
1593 OM 1593 OM OM1 1593 -0.550000 15.99940
1594 OM 1594 OM OM1 1594 -0.550000 15.99940
1595 OM 1595 OM OM1 1595 -0.550000 15.99940
1596 OM 1596 OM OM1 1596 -0.550000 15.99940
1597 OM 1597 OM OM1 1597 -0.550000 15.99940
1598 OM 1598 OM OM1 1598 -0.550000 15.99940
1599 OM 1599 OM OM1 1599 -0.550000 15.99940
1600 OM 1600 OM OM1 1600 -0.550000 15.99940
1601 OM 1601 OM OM1 1601 -0.550000 15.99940
1602 OM 1602 OM OM1 1602 -0.550000 15.99940
1603 OM 1603 OM OM1 1603 -0.550000 15.99940
1604 OM 1604 OM OM1 1604 -0.550000 15.99940
1605 OM 1605 OM OM1 1605 -0.550000 15.99940
1606 OM 1606 OM OM1 1606 -0.550000 15.99940
1607 OM 1607 OM OM1 1607 -0.550000 15.99940
1608 OM 1608 OM OM1 1608 -0.550000 15.99940
1609 OM 1609 OM OM1 1609 -0.550000 15.99940
1610 OM 1610 OM OM1 1610 -0.550000 15.99940
1611 OM 1611 OM OM1 1611 -0.550000 15.99940
1612 OM 1612 OM OM1 1612 -0.550000 15.99940
1613 OM 1613 OM OM1 1613 -0.550000 15.99940
1614 OM 1614 OM OM1 1614 -0.550000 15.99940
1615 OM 1615 OM OM1 1615 -0.550000 15.99940
1616 OM 1616 OM OM1 1616 -0.550000 15.99940
1617 OM 1617 OM OM1 1617 -0.550000 15.99940
1618 OM 1618 OM OM1 1618 -0.550000 15.99940
1619 OM 1619 OM OM1 1619 -0.550000 15.99940
1620 OM 1620 OM OM1 1620 -0.550000 15.99940
1621 OM 1621 OM OM1 1621 -0.550000 15.99940
1622 OM 1622 OM OM1 1622 -0.550000 15.99940
1623 OM 1623 OM OM1 1623 -0.550000 15.99940
1624 OM 1624 OM OM1 1624 -0.550000 15.99940
1625 OM 1625 OM OM1 1625 -0.550000 15.99940
1626 OM 1626 OM OM1 1626 -0.550000 15.99940
1627 OM 1627 OM OM1 1627 -0.550000 15.99940
1628 OM 1628 OM OM1 1628 -0.550000 15.99940
1629 OM 1629 OM OM1 1629 -0.550000 15.99940
1630 OM 1630 OM OM1 1630 -0.550000 15.99940
1631 OM 1631 OM OM1 1631 -0.550000 15.99940
1632 OM 1632 OM OM1 1632 -0.550000 15.99940
1633 OM 1633 OM OM1 1633 -0.550000 15.99940
1634 OM 1634 OM OM1 1634 -0.550000 15.99940
1635 OM 1635 OM OM1 1635 -0.550000 15.99940
1636 OM 1636 OM OM1 1636 -0.550000 15.99940
1637 OM 1637 OM OM1 1637 -0.550000 15.99940
1638 OM 1638 OM OM1 1638 -0.550000 15.99940
1639 OM 1639 OM OM1 1639 -0.550000 15.99940
1640 OM 1640 OM OM1 1640 -0.550000 15.99940
1641 OM 1641 OM OM1 1641 -0.550000 15.99940
1642 OM 1642 OM OM1 1642 -0.550000 15.99940
1643 OM 1643 OM OM1 1643 -0.550000 15.99940
1644 OM 1644 OM OM1 1644 -0.550000 15.99940
1645 OM 1645 OM OM1 1645 -0.550000 15.99940
1646 OM 1646 OM OM1 1646 -0.550000 15.99940
1647 OM 1647 OM OM1 1647 -0.550000 15.99940
1648 OM 1648 OM OM1 1648 -0.550000 15.99940
1649 OM 1649 OM OM1 1649 -0.550000 15.99940
1650 OM 1650 OM OM1 1650 -0.550000 15.99940
1651 OM 1651 OM OM1 1651 -0.550000 15.99940
1652 OM 1652 OM OM1 1652 -0.550000 15.99940
1653 OM 1653 OM OM1 1653 -0.550000 15.99940
1654 OM 1654 OM OM1 1654 -0.550000 15.99940
1655 OM 1655 OM OM1 1655 -0.550000 15.99940
1656 OM 1656 OM OM1 1656 -0.550000 15.99940
1657 OM 1657 OM OM1 1657 -0.550000 15.99940
1658 OM 1658 OM OM1 1658 -0.550000 15.99940
1659 OM 1659 OM OM1 1659 -0.550000 15.99940
1660 OM 1660 OM OM1 1660 -0.550000 15.99940
1661 OM 1661 OM OM1 1661 -0.550000 15.99940
1662 OM 1662 OM OM1 1662 -0.550000 15.99940
1663 OM 1663 OM OM1 1663 -0.550000 15.99940
1664 OM 1664 OM OM1 1664 -0.550000 15.99940
1665 OM 1665 OM OM1 1665 -0.550000 15.99940
1666 OM 1666 OM OM1 1666 -0.550000 15.99940
1667 OM 1667 OM OM1 1667 -0.550000 15.99940
1668 OM 1668 OM OM1 1668 -0.550000 15.99940
1669 OM 1669 OM OM1 1669 -0.550000 15.99940
1670 OM 1670 OM OM1 1670 -0.550000 15.99940
1671 OM 1671 OM OM1 1671 -0.550000 15.99940
1672 OM 1672 OM OM1 1672 -0.550000 15.99940
1673 OM 1673 OM OM1 1673 -0.550000 15.99940
1674 OM 1674 OM OM1 1674 -0.550000 15.99940
1675 OM 1675 OM OM1 1675 -0.550000 15.99940
1676 OM 1676 OM OM1 1676 -0.550000 15.99940
1677 OM 1677 OM OM1 1677 -0.550000 15.99940
1678 OM 1678 OM OM1 1678 -0.550000 15.99940
1679 OM 1679 OM OM1 1679 -0.550000 15.99940
1680 OM 1680 OM OM1 1680 -0.550000 15.99940
1681 OM 1681 OM OM1 1681 -0.550000 15.99940
1682 OM 1682 OM OM1 1682 -0.550000 15.99940
1683 OM 1683 OM OM1 1683 -0.550000 15.99940
1684 OM 1684 OM OM1 1684 -0.550000 15.99940
1685 OM 1685 OM OM1 1685 -0.550000 15.99940
1686 OM 1686 OM OM1 1686 -0.550000 15.99940
1687 OM 1687 OM OM1 1687 -0.550000 15.99940
1688 OM 1688 OM OM1 1688 -0.550000 15.99940
1689 OM 1689 OM OM1 1689 -0.550000 15.99940
1690 OM 1690 OM OM1 1690 -0.550000 15.99940
1691 OM 1691 OM OM1 1691 -0.550000 15.99940
1692 OM 1692 OM OM1 1692 -0.550000 15.99940
1693 OM 1693 OM OM1 1693 -0.550000 15.99940
1694 OM 1694 OM OM1 1694 -0.550000 15.99940
1695 OM 1695 OM OM1 1695 -0.550000 15.99940
1696 OM 1696 OM OM1 1696 -0.550000 15.99940
1697 OM 1697 OM OM1 1697 -0.550000 15.99940
1698 OM 1698 OM OM1 1698 -0.550000 15.99940
1699 OM 1699 OM OM1 1699 -0.550000 15.99940
1700 OM 1700 OM OM1 1700 -0.550000 15.99940
1701 OM 1701 OM OM1 1701 -0.550000 15.99940
1702 OM 1702 OM OM1 1702 -0.550000 15.99940
1703 OM 1703 OM OM1 1703 -0.550000 15.99940
1704 OM 1704 OM OM1 1704 -0.550000 15.99940
1705 OM 1705 OM OM1 1705 -0.550000 15.99940
1706 OM 1706 OM OM1 1706 -0.550000 15.99940
1707 OM 1707 OM OM1 1707 -0.550000 15.99940
1708 OM 1708 OM OM1 1708 -0.550000 15.99940
1709 OM 1709 OM OM1 1709 -0.550000 15.99940
1710 OM 1710 OM OM1 1710 -0.550000 15.99940
1711 OM 1711 OM OM1 1711 -0.550000 15.99940
1712 OM 1712 OM OM1 1712 -0.550000 15.99940
1713 OM 1713 OM OM1 1713 -0.550000 15.99940
1714 OM 1714 OM OM1 1714 -0.550000 15.99940
1715 OM 1715 OM OM1 1715 -0.550000 15.99940
1716 OM 1716 OM OM1 1716 -0.550000 15.99940
1717 OM 1717 OM OM1 1717 -0.550000 15.99940
1718 OM 1718 OM OM1 1718 -0.550000 15.99940
1719 OM 1719 OM OM1 1719 -0.550000 15.99940
1720 OM 1720 OM OM1 1720 -0.550000 15.99940
1721 OM 1721 OM OM1 1721 -0.550000 15.99940
1722 OM 1722 OM OM1 1722 -0.550000 15.99940
1723 OM 1723 OM OM1 1723 -0.550000 15.99940
1724 OM 1724 OM OM1 1724 -0.550000 15.99940
1725 OM 1725 OM OM1 1725 -0.550000 15.99940
1726 OM 1726 OM OM1 1726 -0.550000 15.99940
1727 OM 1727 OM OM1 1727 -0.550000 15.99940
1728 OM 1728 OM OM1 1728 -0.550000 15.99940
1729 OM 1729 OM OM1 1729 -0.550000 15.99940
1730 OM 1730 OM OM1 1730 -0.550000 15.99940
1731 OM 1731 OM OM1 1731 -0.550000 15.99940
1732 OM 1732 OM OM1 1732 -0.550000 15.99940
1733 OM 1733 OM OM1 1733 -0.550000 15.99940
1734 OM 1734 OM OM1 1734 -0.550000 15.99940
1735 OM 1735 OM OM1 1735 -0.550000 15.99940
1736 OM 1736 OM OM1 1736 -0.550000 15.99940
1737 OM 1737 OM OM1 1737 -0.550000 15.99940
1738 OM 1738 OM OM1 1738 -0.550000 15.99940
1739 OM 1739 OM OM1 1739 -0.550000 15.99940
1740 OM 1740 OM OM1 1740 -0.550000 15.99940
1741 OM 1741 OM OM1 1741 -0.550000 15.99940
1742 OM 1742 OM OM1 1742 -0.550000 15.99940
1743 OM 1743 OM OM1 1743 -0.550000 15.99940
1744 OM 1744 OM OM1 1744 -0.550000 15.99940
1745 OM 1745 OM OM1 1745 -0.550000 15.99940
1746 OM 1746 OM OM1 1746 -0.550000 15.99940
1747 OM 1747 OM OM1 1747 -0.550000 15.99940
1748 OM 1748 OM OM1 1748 -0.550000 15.99940
1749 OM 1749 OM OM1 1749 -0.550000 15.99940
1750 OM 1750 OM OM1 1750 -0.550000 15.99940
1751 OM 1751 OM OM1 1751 -0.550000 15.99940
1752 OM 1752 OM OM1 1752 -0.550000 15.99940
1753 OM 1753 OM OM1 1753 -0.550000 15.99940
1754 OM 1754 OM OM1 1754 -0.550000 15.99940
1755 OM 1755 OM OM1 1755 -0.550000 15.99940
1756 OM 1756 OM OM1 1756 -0.550000 15.99940
1757 OM 1757 OM OM1 1757 -0.550000 15.99940
1758 OM 1758 OM OM1 1758 -0.550000 15.99940
1759 OM 1759 OM OM1 1759 -0.550000 15.99940
1760 OM 1760 OM OM1 1760 -0.550000 15.99940
1761 OM 1761 OM OM1 1761 -0.550000 15.99940
1762 OM 1762 OM OM1 1762 -0.550000 15.99940
1763 OM 1763 OM OM1 1763 -0.550000 15.99940
1764 OM 1764 OM OM1 1764 -0.550000 15.99940
1765 OM 1765 OM OM1 1765 -0.550000 15.99940
1766 OM 1766 OM OM1 1766 -0.550000 15.99940
1767 OM 1767 OM OM1 1767 -0.550000 15.99940
1768 OM 1768 OM OM1 1768 -0.550000 15.99940
1769 OM 1769 OM OM1 1769 -0.550000 15.99940
1770 OM 1770 OM OM1 1770 -0.550000 15.99940
1771 OM 1771 OM OM1 1771 -0.550000 15.99940
1772 OM 1772 OM OM1 1772 -0.550000 15.99940
1773 OM 1773 OM OM1 1773 -0.550000 15.99940
1774 OM 1774 OM OM1 1774 -0.550000 15.99940
1775 OM 1775 OM OM1 1775 -0.550000 15.99940
1776 OM 1776 OM OM1 1776 -0.550000 15.99940
1777 OM 1777 OM OM1 1777 -0.550000 15.99940
1778 OM 1778 OM OM1 1778 -0.550000 15.99940
1779 OM 1779 OM OM1 1779 -0.550000 15.99940
1780 OM 1780 OM OM1 1780 -0.550000 15.99940
1781 OM 1781 OM OM1 1781 -0.550000 15.99940
1782 OM 1782 OM OM1 1782 -0.550000 15.99940
1783 OM 1783 OM OM1 1783 -0.550000 15.99940
1784 OM 1784 OM OM1 1784 -0.550000 15.99940
1785 OM 1785 OM OM1 1785 -0.550000 15.99940
1786 OM 1786 OM OM1 1786 -0.550000 15.99940
1787 OM 1787 OM OM1 1787 -0.550000 15.99940
1788 OM 1788 OM OM1 1788 -0.550000 15.99940
1789 OM 1789 OM OM1 1789 -0.550000 15.99940
1790 OM 1790 OM OM1 1790 -0.550000 15.99940
1791 OM 1791 OM OM1 1791 -0.550000 15.99940
1792 OM 1792 OM OM1 1792 -0.550000 15.99940
1793 OM 1793 OM OM1 1793 -0.550000 15.99940
1794 OM 1794 OM OM1 1794 -0.550000 15.99940
1795 OM 1795 OM OM1 1795 -0.550000 15.99940
1796 OM 1796 OM OM1 1796 -0.550000 15.99940
1797 OM 1797 OM OM1 1797 -0.550000 15.99940
1798 OM 1798 OM OM1 1798 -0.550000 15.99940
1799 OM 1799 OM OM1 1799 -0.550000 15.99940
1800 OM 1800 OM OM1 1800 -0.550000 15.99940
1801 OM 1801 OM OM1 1801 -0.550000 15.99940
1802 OM 1802 OM OM1 1802 -0.550000 15.99940
1803 OM 1803 OM OM1 1803 -0.550000 15.99940
1804 OM 1804 OM OM1 1804 -0.550000 15.99940
1805 OM 1805 OM OM1 1805 -0.550000 15.99940
1806 OM 1806 OM OM1 1806 -0.550000 15.99940
1807 OM 1807 OM OM1 1807 -0.550000 15.99940
1808 OM 1808 OM OM1 1808 -0.550000 15.99940
1809 OM 1809 OM OM1 1809 -0.550000 15.99940
1810 OM 1810 OM OM1 1810 -0.550000 15.99940
1811 OM 1811 OM OM1 1811 -0.550000 15.99940
1812 OM 1812 OM OM1 1812 -0.550000 15.99940
1813 OM 1813 OM OM1 1813 -0.550000 15.99940
1814 OM 1814 OM OM1 1814 -0.550000 15.99940
1815 OM 1815 OM OM1 1815 -0.550000 15.99940
1816 OM 1816 OM OM1 1816 -0.550000 15.99940
1817 OM 1817 OM OM1 1817 -0.550000 15.99940
1818 OM 1818 OM OM1 1818 -0.550000 15.99940
1819 OM 1819 OM OM1 1819 -0.550000 15.99940
1820 OM 1820 OM OM1 1820 -0.550000 15.99940
1821 OM 1821 OM OM1 1821 -0.550000 15.99940
1822 OM 1822 OM OM1 1822 -0.550000 15.99940
1823 OM 1823 OM OM1 1823 -0.550000 15.99940
1824 OM 1824 OM OM1 1824 -0.550000 15.99940
1825 OM 1825 OM OM1 1825 -0.550000 15.99940
1826 OM 1826 OM OM1 1826 -0.550000 15.99940
1827 OM 1827 OM OM1 1827 -0.550000 15.99940
1828 OM 1828 OM OM1 1828 -0.550000 15.99940
1829 OM 1829 OM OM1 1829 -0.550000 15.99940
1830 OM 1830 OM OM1 1830 -0.550000 15.99940
1831 OM 1831 OM OM1 1831 -0.550000 15.99940
1832 OM 1832 OM OM1 1832 -0.550000 15.99940
1833 OM 1833 OM OM1 1833 -0.550000 15.99940
1834 OM 1834 OM OM1 1834 -0.550000 15.99940
1835 OM 1835 OM OM1 1835 -0.550000 15.99940
1836 OM 1836 OM OM1 1836 -0.550000 15.99940
1837 OM 1837 OM OM1 1837 -0.550000 15.99940
1838 OM 1838 OM OM1 1838 -0.550000 15.99940
1839 OM 1839 OM OM1 1839 -0.550000 15.99940
1840 OM 1840 OM OM1 1840 -0.550000 15.99940
1841 OM 1841 OM OM1 1841 -0.550000 15.99940
1842 OM 1842 OM OM1 1842 -0.550000 15.99940
1843 OM 1843 OM OM1 1843 -0.550000 15.99940
1844 OM 1844 OM OM1 1844 -0.550000 15.99940
1845 OM 1845 OM OM1 1845 -0.550000 15.99940
1846 OM 1846 OM OM1 1846 -0.550000 15.99940
1847 OM 1847 OM OM1 1847 -0.550000 15.99940
1848 OM 1848 OM OM1 1848 -0.550000 15.99940
1849 OM 1849 OM OM1 1849 -0.550000 15.99940
1850 OM 1850 OM OM1 1850 -0.550000 15.99940
1851 OM 1851 OM OM1 1851 -0.550000 15.99940
1852 OM 1852 OM OM1 1852 -0.550000 15.99940
1853 OM 1853 OM OM1 1853 -0.550000 15.99940
1854 OM 1854 OM OM1 1854 -0.550000 15.99940
1855 OM 1855 OM OM1 1855 -0.550000 15.99940
1856 OM 1856 OM OM1 1856 -0.550000 15.99940
1857 OM 1857 OM OM1 1857 -0.550000 15.99940
1858 OM 1858 OM OM1 1858 -0.550000 15.99940
1859 OM 1859 OM OM1 1859 -0.550000 15.99940
1860 OM 1860 OM OM1 1860 -0.550000 15.99940
1861 OM 1861 OM OM1 1861 -0.550000 15.99940
1862 OM 1862 OM OM1 1862 -0.550000 15.99940
1863 OM 1863 OM OM1 1863 -0.550000 15.99940
1864 OM 1864 OM OM1 1864 -0.550000 15.99940
1865 OM 1865 OM OM1 1865 -0.550000 15.99940
1866 OM 1866 OM OM1 1866 -0.550000 15.99940
1867 OM 1867 OM OM1 1867 -0.550000 15.99940
1868 OM 1868 OM OM1 1868 -0.550000 15.99940
1869 OM 1869 OM OM1 1869 -0.550000 15.99940
1870 OM 1870 OM OM1 1870 -0.550000 15.99940
1871 OM 1871 OM OM1 1871 -0.550000 15.99940
1872 OM 1872 OM OM1 1872 -0.550000 15.99940
1873 OM 1873 OM OM1 1873 -0.550000 15.99940
1874 OM 1874 OM OM1 1874 -0.550000 15.99940
1875 OM 1875 OM OM1 1875 -0.550000 15.99940
1876 OM 1876 OM OM1 1876 -0.550000 15.99940
1877 OM 1877 OM OM1 1877 -0.550000 15.99940
1878 OM 1878 OM OM1 1878 -0.550000 15.99940
1879 OM 1879 OM OM1 1879 -0.550000 15.99940
1880 OM 1880 OM OM1 1880 -0.550000 15.99940
1881 OM 1881 OM OM1 1881 -0.550000 15.99940
1882 OM 1882 OM OM1 1882 -0.550000 15.99940
1883 OM 1883 OM OM1 1883 -0.550000 15.99940
1884 OM 1884 OM OM1 1884 -0.550000 15.99940
1885 OM 1885 OM OM1 1885 -0.550000 15.99940
1886 OM 1886 OM OM1 1886 -0.550000 15.99940
1887 OM 1887 OM OM1 1887 -0.550000 15.99940
1888 OM 1888 OM OM1 1888 -0.550000 15.99940
1889 OM 1889 OM OM1 1889 -0.550000 15.99940
1890 OM 1890 OM OM1 1890 -0.550000 15.99940
1891 OM 1891 OM OM1 1891 -0.550000 15.99940
1892 OM 1892 OM OM1 1892 -0.550000 15.99940
1893 OM 1893 OM OM1 1893 -0.550000 15.99940
1894 OM 1894 OM OM1 1894 -0.550000 15.99940
1895 OM 1895 OM OM1 1895 -0.550000 15.99940
1896 OM 1896 OM OM1 1896 -0.550000 15.99940
1897 OM 1897 OM OM1 1897 -0.550000 15.99940
1898 OM 1898 OM OM1 1898 -0.550000 15.99940
1899 OM 1899 OM OM1 1899 -0.550000 15.99940
1900 OM 1900 OM OM1 1900 -0.550000 15.99940
1901 OM 1901 OM OM1 1901 -0.550000 15.99940
1902 OM 1902 OM OM1 1902 -0.550000 15.99940
1903 OM 1903 OM OM1 1903 -0.550000 15.99940
1904 OM 1904 OM OM1 1904 -0.550000 15.99940
1905 OM 1905 OM OM1 1905 -0.550000 15.99940
1906 OM 1906 OM OM1 1906 -0.550000 15.99940
1907 OM 1907 OM OM1 1907 -0.550000 15.99940
1908 OM 1908 OM OM1 1908 -0.550000 15.99940
1909 OM 1909 OM OM1 1909 -0.550000 15.99940
1910 OM 1910 OM OM1 1910 -0.550000 15.99940
1911 OM 1911 OM OM1 1911 -0.550000 15.99940
1912 OM 1912 OM OM1 1912 -0.550000 15.99940
1913 OM 1913 OM OM1 1913 -0.550000 15.99940
1914 OM 1914 OM OM1 1914 -0.550000 15.99940
1915 OM 1915 OM OM1 1915 -0.550000 15.99940
1916 OM 1916 OM OM1 1916 -0.550000 15.99940
1917 OM 1917 OM OM1 1917 -0.550000 15.99940
1918 OM 1918 OM OM1 1918 -0.550000 15.99940
1919 OM 1919 OM OM1 1919 -0.550000 15.99940
1920 OM 1920 OM OM1 1920 -0.550000 15.99940
1921 OM 1921 OM OM1 1921 -0.550000 15.99940
1922 OM 1922 OM OM1 1922 -0.550000 15.99940
1923 OM 1923 OM OM1 1923 -0.550000 15.99940
1924 OM 1924 OM OM1 1924 -0.550000 15.99940
1925 OM 1925 OM OM1 1925 -0.550000 15.99940
1926 OM 1926 OM OM1 1926 -0.550000 15.99940
1927 OM 1927 OM OM1 1927 -0.550000 15.99940
1928 OM 1928 OM OM1 1928 -0.550000 15.99940
1929 OM 1929 OM OM1 1929 -0.550000 15.99940
1930 OM 1930 OM OM1 1930 -0.550000 15.99940
1931 OM 1931 OM OM1 1931 -0.550000 15.99940
1932 OM 1932 OM OM1 1932 -0.550000 15.99940
1933 OM 1933 OM OM1 1933 -0.550000 15.99940
1934 OM 1934 OM OM1 1934 -0.550000 15.99940
1935 OM 1935 OM OM1 1935 -0.550000 15.99940
1936 OM 1936 OM OM1 1936 -0.550000 15.99940
1937 OM 1937 OM OM1 1937 -0.550000 15.99940
1938 OM 1938 OM OM1 1938 -0.550000 15.99940
1939 OM 1939 OM OM1 1939 -0.550000 15.99940
1940 OM 1940 OM OM1 1940 -0.550000 15.99940
1941 OM 1941 OM OM1 1941 -0.550000 15.99940
1942 OM 1942 OM OM1 1942 -0.550000 15.99940
1943 OM 1943 OM OM1 1943 -0.550000 15.99940
1944 OM 1944 OM OM1 1944 -0.550000 15.99940
1945 OM 1945 OM OM1 1945 -0.550000 15.99940
1946 OM 1946 OM OM1 1946 -0.550000 15.99940
1947 OM 1947 OM OM1 1947 -0.550000 15.99940
1948 OM 1948 OM OM1 1948 -0.550000 15.99940
1949 OM 1949 OM OM1 1949 -0.550000 15.99940
1950 OM 1950 OM OM1 1950 -0.550000 15.99940
1951 OM 1951 OM OM1 1951 -0.550000 15.99940
1952 OM 1952 OM OM1 1952 -0.550000 15.99940
1953 OM 1953 OM OM1 1953 -0.550000 15.99940
1954 OM 1954 OM OM1 1954 -0.550000 15.99940
1955 OM 1955 OM OM1 1955 -0.550000 15.99940
1956 OM 1956 OM OM1 1956 -0.550000 15.99940
1957 OM 1957 OM OM1 1957 -0.550000 15.99940
1958 OM 1958 OM OM1 1958 -0.550000 15.99940
1959 OM 1959 OM OM1 1959 -0.550000 15.99940
1960 OM 1960 OM OM1 1960 -0.550000 15.99940
1961 OM 1961 OM OM1 1961 -0.550000 15.99940
1962 OM 1962 OM OM1 1962 -0.550000 15.99940
1963 OM 1963 OM OM1 1963 -0.550000 15.99940
1964 OM 1964 OM OM1 1964 -0.550000 15.99940
1965 OM 1965 OM OM1 1965 -0.550000 15.99940
1966 OM 1966 OM OM1 1966 -0.550000 15.99940
1967 OM 1967 OM OM1 1967 -0.550000 15.99940
1968 OM 1968 OM OM1 1968 -0.550000 15.99940
1969 OM 1969 OM OM1 1969 -0.550000 15.99940
1970 OM 1970 OM OM1 1970 -0.550000 15.99940
1971 OM 1971 OM OM1 1971 -0.550000 15.99940
1972 OM 1972 OM OM1 1972 -0.550000 15.99940
1973 OM 1973 OM OM1 1973 -0.550000 15.99940
1974 OM 1974 OM OM1 1974 -0.550000 15.99940
1975 OM 1975 OM OM1 1975 -0.550000 15.99940
1976 OM 1976 OM OM1 1976 -0.550000 15.99940
1977 OM 1977 OM OM1 1977 -0.550000 15.99940
1978 OM 1978 OM OM1 1978 -0.550000 15.99940
1979 OM 1979 OM OM1 1979 -0.550000 15.99940
1980 OM 1980 OM OM1 1980 -0.550000 15.99940
1981 OM 1981 OM OM1 1981 -0.550000 15.99940
1982 OM 1982 OM OM1 1982 -0.550000 15.99940
1983 OM 1983 OM OM1 1983 -0.550000 15.99940
1984 OM 1984 OM OM1 1984 -0.550000 15.99940
1985 OM 1985 OM OM1 1985 -0.550000 15.99940
1986 OM 1986 OM OM1 1986 -0.550000 15.99940
1987 OM 1987 OM OM1 1987 -0.550000 15.99940
1988 OM 1988 OM OM1 1988 -0.550000 15.99940
1989 OM 1989 OM OM1 1989 -0.550000 15.99940
1990 OM 1990 OM OM1 1990 -0.550000 15.99940
1991 OM 1991 OM OM1 1991 -0.550000 15.99940
1992 OM 1992 OM OM1 1992 -0.550000 15.99940
1993 OM 1993 OM OM1 1993 -0.550000 15.99940
1994 OM 1994 OM OM1 1994 -0.550000 15.99940
1995 OM 1995 OM OM1 1995 -0.550000 15.99940
1996 OM 1996 OM OM1 1996 -0.550000 15.99940
1997 OM 1997 OM OM1 1997 -0.550000 15.99940
1998 OM 1998 OM OM1 1998 -0.550000 15.99940
1999 OM 1999 OM OM1 1999 -0.550000 15.99940
2000 OM 2000 OM OM1 2000 -0.550000 15.99940
2001 OM 2001 OM OM1 2001 -0.550000 15.99940
2002 OM 2002 OM OM1 2002 -0.550000 15.99940
2003 OM 2003 OM OM1 2003 -0.550000 15.99940
2004 OM 2004 OM OM1 2004 -0.550000 15.99940
2005 OM 2005 OM OM1 2005 -0.550000 15.99940
2006 OM 2006 OM OM1 2006 -0.550000 15.99940
2007 OM 2007 OM OM1 2007 -0.550000 15.99940
2008 OM 2008 OM OM1 2008 -0.550000 15.99940
2009 OM 2009 OM OM1 2009 -0.550000 15.99940
2010 OM 2010 OM OM1 2010 -0.550000 15.99940
2011 OM 2011 OM OM1 2011 -0.550000 15.99940
2012 OM 2012 OM OM1 2012 -0.550000 15.99940
2013 OM 2013 OM OM1 2013 -0.550000 15.99940
2014 OM 2014 OM OM1 2014 -0.550000 15.99940
2015 OM 2015 OM OM1 2015 -0.550000 15.99940
2016 OM 2016 OM OM1 2016 -0.550000 15.99940
2017 OM 2017 OM OM1 2017 -0.550000 15.99940
2018 OM 2018 OM OM1 2018 -0.550000 15.99940
2019 OM 2019 OM OM1 2019 -0.550000 15.99940
2020 OM 2020 OM OM1 2020 -0.550000 15.99940
2021 OM 2021 OM OM1 2021 -0.550000 15.99940
2022 OM 2022 OM OM1 2022 -0.550000 15.99940
2023 OM 2023 OM OM1 2023 -0.550000 15.99940
2024 OM 2024 OM OM1 2024 -0.550000 15.99940
2025 OM 2025 OM OM1 2025 -0.550000 15.99940
2026 OM 2026 OM OM1 2026 -0.550000 15.99940
2027 OM 2027 OM OM1 2027 -0.550000 15.99940
2028 OM 2028 OM OM1 2028 -0.550000 15.99940
2029 OM 2029 OM OM1 2029 -0.550000 15.99940
2030 OM 2030 OM OM1 2030 -0.550000 15.99940
2031 OM 2031 OM OM1 2031 -0.550000 15.99940
2032 OM 2032 OM OM1 2032 -0.550000 15.99940
2033 OM 2033 OM OM1 2033 -0.550000 15.99940
2034 OM 2034 OM OM1 2034 -0.550000 15.99940
2035 OM 2035 OM OM1 2035 -0.550000 15.99940
2036 OM 2036 OM OM1 2036 -0.550000 15.99940
2037 OM 2037 OM OM1 2037 -0.550000 15.99940
2038 OM 2038 OM OM1 2038 -0.550000 15.99940
2039 OM 2039 OM OM1 2039 -0.550000 15.99940
2040 OM 2040 OM OM1 2040 -0.550000 15.99940
2041 OM 2041 OM OM1 2041 -0.550000 15.99940
2042 OM 2042 OM OM1 2042 -0.550000 15.99940
2043 OM 2043 OM OM1 2043 -0.550000 15.99940
2044 OM 2044 OM OM1 2044 -0.550000 15.99940
2045 OM 2045 OM OM1 2045 -0.550000 15.99940
2046 OM 2046 OM OM1 2046 -0.550000 15.99940
2047 OM 2047 OM OM1 2047 -0.550000 15.99940
2048 OM 2048 OM OM1 2048 -0.550000 15.99940
2049 OM 2049 OM OM1 2049 -0.550000 15.99940
2050 OM 2050 OM OM1 2050 -0.550000 15.99940
2051 OM 2051 OM OM1 2051 -0.550000 15.99940
2052 OM 2052 OM OM1 2052 -0.550000 15.99940
2053 OM 2053 OM OM1 2053 -0.550000 15.99940
2054 OM 2054 OM OM1 2054 -0.550000 15.99940
2055 OM 2055 OM OM1 2055 -0.550000 15.99940
2056 OM 2056 OM OM1 2056 -0.550000 15.99940
2057 OM 2057 OM OM1 2057 -0.550000 15.99940
2058 OM 2058 OM OM1 2058 -0.550000 15.99940
2059 OM 2059 OM OM1 2059 -0.550000 15.99940
2060 OM 2060 OM OM1 2060 -0.550000 15.99940
2061 OM 2061 OM OM1 2061 -0.550000 15.99940
2062 OM 2062 OM OM1 2062 -0.550000 15.99940
2063 OM 2063 OM OM1 2063 -0.550000 15.99940
2064 OM 2064 OM OM1 2064 -0.550000 15.99940
2065 OM 2065 OM OM1 2065 -0.550000 15.99940
2066 OM 2066 OM OM1 2066 -0.550000 15.99940
2067 OM 2067 OM OM1 2067 -0.550000 15.99940
2068 OM 2068 OM OM1 2068 -0.550000 15.99940
2069 OM 2069 OM OM1 2069 -0.550000 15.99940
2070 OM 2070 OM OM1 2070 -0.550000 15.99940
2071 OM 2071 OM OM1 2071 -0.550000 15.99940
2072 OM 2072 OM OM1 2072 -0.550000 15.99940
2073 OM 2073 OM OM1 2073 -0.550000 15.99940
2074 OM 2074 OM OM1 2074 -0.550000 15.99940
2075 OM 2075 OM OM1 2075 -0.550000 15.99940
2076 OM 2076 OM OM1 2076 -0.550000 15.99940
2077 OM 2077 OM OM1 2077 -0.550000 15.99940
2078 OM 2078 OM OM1 2078 -0.550000 15.99940
2079 OM 2079 OM OM1 2079 -0.550000 15.99940
2080 OM 2080 OM OM1 2080 -0.550000 15.99940
2081 OM 2081 OM OM1 2081 -0.550000 15.99940
2082 OM 2082 OM OM1 2082 -0.550000 15.99940
2083 OM 2083 OM OM1 2083 -0.550000 15.99940
2084 OM 2084 OM OM1 2084 -0.550000 15.99940
2085 OM 2085 OM OM1 2085 -0.550000 15.99940
2086 OM 2086 OM OM1 2086 -0.550000 15.99940
2087 OM 2087 OM OM1 2087 -0.550000 15.99940
2088 OM 2088 OM OM1 2088 -0.550000 15.99940
2089 OM 2089 OM OM1 2089 -0.550000 15.99940
2090 OM 2090 OM OM1 2090 -0.550000 15.99940
2091 OM 2091 OM OM1 2091 -0.550000 15.99940
2092 OM 2092 OM OM1 2092 -0.550000 15.99940
2093 OM 2093 OM OM1 2093 -0.550000 15.99940
2094 OM 2094 OM OM1 2094 -0.550000 15.99940
2095 OM 2095 OM OM1 2095 -0.550000 15.99940
2096 OM 2096 OM OM1 2096 -0.550000 15.99940
2097 OM 2097 OM OM1 2097 -0.550000 15.99940
2098 OM 2098 OM OM1 2098 -0.550000 15.99940
2099 OM 2099 OM OM1 2099 -0.550000 15.99940
2100 OM 2100 OM OM1 2100 -0.550000 15.99940
2101 OM 2101 OM OM1 2101 -0.550000 15.99940
2102 OM 2102 OM OM1 2102 -0.550000 15.99940
2103 OM 2103 OM OM1 2103 -0.550000 15.99940
2104 OM 2104 OM OM1 2104 -0.550000 15.99940
2105 OM 2105 OM OM1 2105 -0.550000 15.99940
2106 OM 2106 OM OM1 2106 -0.550000 15.99940
2107 OM 2107 OM OM1 2107 -0.550000 15.99940
2108 OM 2108 OM OM1 2108 -0.550000 15.99940
2109 OM 2109 OM OM1 2109 -0.550000 15.99940
2110 OM 2110 OM OM1 2110 -0.550000 15.99940
2111 OM 2111 OM OM1 2111 -0.550000 15.99940
2112 OM 2112 OM OM1 2112 -0.550000 15.99940
2113 OM 2113 OM OM1 2113 -0.550000 15.99940
2114 OM 2114 OM OM1 2114 -0.550000 15.99940
2115 OM 2115 OM OM1 2115 -0.550000 15.99940
2116 OM 2116 OM OM1 2116 -0.550000 15.99940
2117 OM 2117 OM OM1 2117 -0.550000 15.99940
2118 OM 2118 OM OM1 2118 -0.550000 15.99940
2119 OM 2119 OM OM1 2119 -0.550000 15.99940
2120 OM 2120 OM OM1 2120 -0.550000 15.99940
2121 OM 2121 OM OM1 2121 -0.550000 15.99940
2122 OM 2122 OM OM1 2122 -0.550000 15.99940
2123 OM 2123 OM OM1 2123 -0.550000 15.99940
2124 OM 2124 OM OM1 2124 -0.550000 15.99940
2125 OM 2125 OM OM1 2125 -0.550000 15.99940
2126 OM 2126 OM OM1 2126 -0.550000 15.99940
2127 OM 2127 OM OM1 2127 -0.550000 15.99940
2128 OM 2128 OM OM1 2128 -0.550000 15.99940
2129 OM 2129 OM OM1 2129 -0.550000 15.99940
2130 OM 2130 OM OM1 2130 -0.550000 15.99940
2131 OM 2131 OM OM1 2131 -0.550000 15.99940
2132 OM 2132 OM OM1 2132 -0.550000 15.99940
2133 OM 2133 OM OM1 2133 -0.550000 15.99940
2134 OM 2134 OM OM1 2134 -0.550000 15.99940
2135 OM 2135 OM OM1 2135 -0.550000 15.99940
2136 OM 2136 OM OM1 2136 -0.550000 15.99940
2137 OM 2137 OM OM1 2137 -0.550000 15.99940
2138 OM 2138 OM OM1 2138 -0.550000 15.99940
2139 OM 2139 OM OM1 2139 -0.550000 15.99940
2140 OM 2140 OM OM1 2140 -0.550000 15.99940
2141 OM 2141 OM OM1 2141 -0.550000 15.99940
2142 OM 2142 OM OM1 2142 -0.550000 15.99940
2143 OM 2143 OM OM1 2143 -0.550000 15.99940
2144 OM 2144 OM OM1 2144 -0.550000 15.99940
2145 OM 2145 OM OM1 2145 -0.550000 15.99940
2146 OM 2146 OM OM1 2146 -0.550000 15.99940
2147 OM 2147 OM OM1 2147 -0.550000 15.99940
2148 OM 2148 OM OM1 2148 -0.550000 15.99940
2149 OM 2149 OM OM1 2149 -0.550000 15.99940
2150 OM 2150 OM OM1 2150 -0.550000 15.99940
2151 OM 2151 OM OM1 2151 -0.550000 15.99940
2152 OM 2152 OM OM1 2152 -0.550000 15.99940
2153 OM 2153 OM OM1 2153 -0.550000 15.99940
2154 OM 2154 OM OM1 2154 -0.550000 15.99940
2155 OM 2155 OM OM1 2155 -0.550000 15.99940
2156 OM 2156 OM OM1 2156 -0.550000 15.99940
2157 OM 2157 OM OM1 2157 -0.550000 15.99940
2158 OM 2158 OM OM1 2158 -0.550000 15.99940
2159 OM 2159 OM OM1 2159 -0.550000 15.99940
2160 OM 2160 OM OM1 2160 -0.550000 15.99940
2161 OM 2161 OM OM1 2161 -0.550000 15.99940
2162 OM 2162 OM OM1 2162 -0.550000 15.99940
2163 OM 2163 OM OM1 2163 -0.550000 15.99940
2164 OM 2164 OM OM1 2164 -0.550000 15.99940
2165 OM 2165 OM OM1 2165 -0.550000 15.99940
2166 OM 2166 OM OM1 2166 -0.550000 15.99940
2167 OM 2167 OM OM1 2167 -0.550000 15.99940
2168 OM 2168 OM OM1 2168 -0.550000 15.99940
2169 OM 2169 OM OM1 2169 -0.550000 15.99940
2170 OM 2170 OM OM1 2170 -0.550000 15.99940
2171 OM 2171 OM OM1 2171 -0.550000 15.99940
2172 OM 2172 OM OM1 2172 -0.550000 15.99940
2173 OM 2173 OM OM1 2173 -0.550000 15.99940
2174 OM 2174 OM OM1 2174 -0.550000 15.99940
2175 OM 2175 OM OM1 2175 -0.550000 15.99940
2176 OM 2176 OM OM1 2176 -0.550000 15.99940
2177 OM 2177 OM OM1 2177 -0.550000 15.99940
2178 OM 2178 OM OM1 2178 -0.550000 15.99940
2179 OM 2179 OM OM1 2179 -0.550000 15.99940
2180 OM 2180 OM OM1 2180 -0.550000 15.99940
2181 OM 2181 OM OM1 2181 -0.550000 15.99940
2182 OM 2182 OM OM1 2182 -0.550000 15.99940
2183 OM 2183 OM OM1 2183 -0.550000 15.99940
2184 OM 2184 OM OM1 2184 -0.550000 15.99940
2185 OM 2185 OM OM1 2185 -0.550000 15.99940
2186 OM 2186 OM OM1 2186 -0.550000 15.99940
2187 OM 2187 OM OM1 2187 -0.550000 15.99940
2188 OM 2188 OM OM1 2188 -0.550000 15.99940
2189 OM 2189 OM OM1 2189 -0.550000 15.99940
2190 OM 2190 OM OM1 2190 -0.550000 15.99940
2191 OM 2191 OM OM1 2191 -0.550000 15.99940
2192 OM 2192 OM OM1 2192 -0.550000 15.99940
2193 OM 2193 OM OM1 2193 -0.550000 15.99940
2194 OM 2194 OM OM1 2194 -0.550000 15.99940
2195 OM 2195 OM OM1 2195 -0.550000 15.99940
2196 OM 2196 OM OM1 2196 -0.550000 15.99940
2197 OM 2197 OM OM1 2197 -0.550000 15.99940
2198 OM 2198 OM OM1 2198 -0.550000 15.99940
2199 OM 2199 OM OM1 2199 -0.550000 15.99940
2200 OM 2200 OM OM1 2200 -0.550000 15.99940
2201 OM 2201 OM OM1 2201 -0.550000 15.99940
2202 OM 2202 OM OM1 2202 -0.550000 15.99940
2203 OM 2203 OM OM1 2203 -0.550000 15.99940
2204 OM 2204 OM OM1 2204 -0.550000 15.99940
2205 OM 2205 OM OM1 2205 -0.550000 15.99940
2206 OM 2206 OM OM1 2206 -0.550000 15.99940
2207 OM 2207 OM OM1 2207 -0.550000 15.99940
2208 OM 2208 OM OM1 2208 -0.550000 15.99940
2209 OM 2209 OM OM1 2209 -0.550000 15.99940
2210 OM 2210 OM OM1 2210 -0.550000 15.99940
2211 OM 2211 OM OM1 2211 -0.550000 15.99940
2212 OM 2212 OM OM1 2212 -0.550000 15.99940
2213 OM 2213 OM OM1 2213 -0.550000 15.99940
2214 OM 2214 OM OM1 2214 -0.550000 15.99940
2215 OM 2215 OM OM1 2215 -0.550000 15.99940
2216 OM 2216 OM OM1 2216 -0.550000 15.99940
2217 OM 2217 OM OM1 2217 -0.550000 15.99940
2218 OM 2218 OM OM1 2218 -0.550000 15.99940
2219 OM 2219 OM OM1 2219 -0.550000 15.99940
2220 OM 2220 OM OM1 2220 -0.550000 15.99940
2221 OM 2221 OM OM1 2221 -0.550000 15.99940
2222 OM 2222 OM OM1 2222 -0.550000 15.99940
2223 OM 2223 OM OM1 2223 -0.550000 15.99940
2224 OM 2224 OM OM1 2224 -0.550000 15.99940
2225 OM 2225 OM OM1 2225 -0.550000 15.99940
2226 OM 2226 OM OM1 2226 -0.550000 15.99940
2227 OM 2227 OM OM1 2227 -0.550000 15.99940
2228 OM 2228 OM OM1 2228 -0.550000 15.99940
2229 OM 2229 OM OM1 2229 -0.550000 15.99940
2230 OM 2230 OM OM1 2230 -0.550000 15.99940
2231 OM 2231 OM OM1 2231 -0.550000 15.99940
2232 OM 2232 OM OM1 2232 -0.550000 15.99940
2233 OM 2233 OM OM1 2233 -0.550000 15.99940
2234 OM 2234 OM OM1 2234 -0.550000 15.99940
2235 OM 2235 OM OM1 2235 -0.550000 15.99940
2236 OM 2236 OM OM1 2236 -0.550000 15.99940
2237 OM 2237 OM OM1 2237 -0.550000 15.99940
2238 OM 2238 OM OM1 2238 -0.550000 15.99940
2239 OM 2239 OM OM1 2239 -0.550000 15.99940
2240 OM 2240 OM OM1 2240 -0.550000 15.99940
2241 OM 2241 OM OM1 2241 -0.550000 15.99940
2242 OM 2242 OM OM1 2242 -0.550000 15.99940
2243 OM 2243 OM OM1 2243 -0.550000 15.99940
2244 OM 2244 OM OM1 2244 -0.550000 15.99940
2245 OM 2245 OM OM1 2245 -0.550000 15.99940
2246 OM 2246 OM OM1 2246 -0.550000 15.99940
2247 OM 2247 OM OM1 2247 -0.550000 15.99940
2248 OM 2248 OM OM1 2248 -0.550000 15.99940
2249 OM 2249 OM OM1 2249 -0.550000 15.99940
2250 OM 2250 OM OM1 2250 -0.550000 15.99940
2251 OM 2251 OM OM1 2251 -0.550000 15.99940
2252 OM 2252 OM OM1 2252 -0.550000 15.99940
2253 OM 2253 OM OM1 2253 -0.550000 15.99940
2254 OM 2254 OM OM1 2254 -0.550000 15.99940
2255 OM 2255 OM OM1 2255 -0.550000 15.99940
2256 OM 2256 OM OM1 2256 -0.550000 15.99940
2257 OM 2257 OM OM1 2257 -0.550000 15.99940
2258 OM 2258 OM OM1 2258 -0.550000 15.99940
2259 OM 2259 OM OM1 2259 -0.550000 15.99940
2260 OM 2260 OM OM1 2260 -0.550000 15.99940
2261 OM 2261 OM OM1 2261 -0.550000 15.99940
2262 OM 2262 OM OM1 2262 -0.550000 15.99940
2263 OM 2263 OM OM1 2263 -0.550000 15.99940
2264 OM 2264 OM OM1 2264 -0.550000 15.99940
2265 OM 2265 OM OM1 2265 -0.550000 15.99940
2266 OM 2266 OM OM1 2266 -0.550000 15.99940
2267 OM 2267 OM OM1 2267 -0.550000 15.99940
2268 OM 2268 OM OM1 2268 -0.550000 15.99940
2269 OM 2269 OM OM1 2269 -0.550000 15.99940
2270 OM 2270 OM OM1 2270 -0.550000 15.99940
2271 OM 2271 OM OM1 2271 -0.550000 15.99940
2272 OM 2272 OM OM1 2272 -0.550000 15.99940
2273 OM 2273 OM OM1 2273 -0.550000 15.99940
2274 OM 2274 OM OM1 2274 -0.550000 15.99940
2275 OM 2275 OM OM1 2275 -0.550000 15.99940
2276 OM 2276 OM OM1 2276 -0.550000 15.99940
2277 OM 2277 OM OM1 2277 -0.550000 15.99940
2278 OM 2278 OM OM1 2278 -0.550000 15.99940
2279 OM 2279 OM OM1 2279 -0.550000 15.99940
2280 OM 2280 OM OM1 2280 -0.550000 15.99940
2281 OM 2281 OM OM1 2281 -0.550000 15.99940
2282 OM 2282 OM OM1 2282 -0.550000 15.99940
2283 OM 2283 OM OM1 2283 -0.550000 15.99940
2284 OM 2284 OM OM1 2284 -0.550000 15.99940
2285 OM 2285 OM OM1 2285 -0.550000 15.99940
2286 OM 2286 OM OM1 2286 -0.550000 15.99940
2287 OM 2287 OM OM1 2287 -0.550000 15.99940
2288 OM 2288 OM OM1 2288 -0.550000 15.99940
2289 OM 2289 OM OM1 2289 -0.550000 15.99940
2290 OM 2290 OM OM1 2290 -0.550000 15.99940
2291 OM 2291 OM OM1 2291 -0.550000 15.99940
2292 OM 2292 OM OM1 2292 -0.550000 15.99940
2293 OM 2293 OM OM1 2293 -0.550000 15.99940
2294 OM 2294 OM OM1 2294 -0.550000 15.99940
2295 OM 2295 OM OM1 2295 -0.550000 15.99940
2296 OM 2296 OM OM1 2296 -0.550000 15.99940
2297 OM 2297 OM OM1 2297 -0.550000 15.99940
2298 OM 2298 OM OM1 2298 -0.550000 15.99940
2299 OM 2299 OM OM1 2299 -0.550000 15.99940
2300 OM 2300 OM OM1 2300 -0.550000 15.99940
2301 OM 2301 OM OM1 2301 -0.550000 15.99940
2302 OM 2302 OM OM1 2302 -0.550000 15.99940
2303 OM 2303 OM OM1 2303 -0.550000 15.99940
2304 OM 2304 OM OM1 2304 -0.550000 15.99940
2305 OM 2305 OM OM1 2305 -0.550000 15.99940
2306 OM 2306 OM OM1 2306 -0.550000 15.99940
2307 OM 2307 OM OM1 2307 -0.550000 15.99940
2308 OM 2308 OM OM1 2308 -0.550000 15.99940
2309 OM 2309 OM OM1 2309 -0.550000 15.99940
2310 OM 2310 OM OM1 2310 -0.550000 15.99940
2311 OM 2311 OM OM1 2311 -0.550000 15.99940
2312 OM 2312 OM OM1 2312 -0.550000 15.99940
2313 OM 2313 OM OM1 2313 -0.550000 15.99940
2314 OM 2314 OM OM1 2314 -0.550000 15.99940
2315 OM 2315 OM OM1 2315 -0.550000 15.99940
2316 OM 2316 OM OM1 2316 -0.550000 15.99940
2317 OM 2317 OM OM1 2317 -0.550000 15.99940
2318 OM 2318 OM OM1 2318 -0.550000 15.99940
2319 OM 2319 OM OM1 2319 -0.550000 15.99940
2320 OM 2320 OM OM1 2320 -0.550000 15.99940
2321 OM 2321 OM OM1 2321 -0.550000 15.99940
2322 OM 2322 OM OM1 2322 -0.550000 15.99940
2323 OM 2323 OM OM1 2323 -0.550000 15.99940
2324 OM 2324 OM OM1 2324 -0.550000 15.99940
2325 OM 2325 OM OM1 2325 -0.550000 15.99940
2326 OM 2326 OM OM1 2326 -0.550000 15.99940
2327 OM 2327 OM OM1 2327 -0.550000 15.99940
2328 OM 2328 OM OM1 2328 -0.550000 15.99940
2329 OM 2329 OM OM1 2329 -0.550000 15.99940
2330 OM 2330 OM OM1 2330 -0.550000 15.99940
2331 OM 2331 OM OM1 2331 -0.550000 15.99940
2332 OM 2332 OM OM1 2332 -0.550000 15.99940
2333 OM 2333 OM OM1 2333 -0.550000 15.99940
2334 OM 2334 OM OM1 2334 -0.550000 15.99940
2335 OM 2335 OM OM1 2335 -0.550000 15.99940
2336 OM 2336 OM OM1 2336 -0.550000 15.99940
2337 OM 2337 OM OM1 2337 -0.550000 15.99940
2338 OM 2338 OM OM1 2338 -0.550000 15.99940
2339 OM 2339 OM OM1 2339 -0.550000 15.99940
2340 OM 2340 OM OM1 2340 -0.550000 15.99940
2341 OM 2341 OM OM1 2341 -0.550000 15.99940
2342 OM 2342 OM OM1 2342 -0.550000 15.99940
2343 OM 2343 OM OM1 2343 -0.550000 15.99940
2344 OM 2344 OM OM1 2344 -0.550000 15.99940
2345 OM 2345 OM OM1 2345 -0.550000 15.99940
2346 OM 2346 OM OM1 2346 -0.550000 15.99940
2347 OM 2347 OM OM1 2347 -0.550000 15.99940
2348 OM 2348 OM OM1 2348 -0.550000 15.99940
2349 OM 2349 OM OM1 2349 -0.550000 15.99940
2350 OM 2350 OM OM1 2350 -0.550000 15.99940
2351 OM 2351 OM OM1 2351 -0.550000 15.99940
2352 OM 2352 OM OM1 2352 -0.550000 15.99940
2353 OM 2353 OM OM1 2353 -0.550000 15.99940
2354 OM 2354 OM OM1 2354 -0.550000 15.99940
2355 OM 2355 OM OM1 2355 -0.550000 15.99940
2356 OM 2356 OM OM1 2356 -0.550000 15.99940
2357 OM 2357 OM OM1 2357 -0.550000 15.99940
2358 OM 2358 OM OM1 2358 -0.550000 15.99940
2359 OM 2359 OM OM1 2359 -0.550000 15.99940
2360 OM 2360 OM OM1 2360 -0.550000 15.99940
2361 OM 2361 OM OM1 2361 -0.550000 15.99940
2362 OM 2362 OM OM1 2362 -0.550000 15.99940
2363 OM 2363 OM OM1 2363 -0.550000 15.99940
2364 OM 2364 OM OM1 2364 -0.550000 15.99940
2365 OM 2365 OM OM1 2365 -0.550000 15.99940
2366 OM 2366 OM OM1 2366 -0.550000 15.99940
2367 OM 2367 OM OM1 2367 -0.550000 15.99940
2368 OM 2368 OM OM1 2368 -0.550000 15.99940
2369 OM 2369 OM OM1 2369 -0.550000 15.99940
2370 OM 2370 OM OM1 2370 -0.550000 15.99940
2371 OM 2371 OM OM1 2371 -0.550000 15.99940
2372 OM 2372 OM OM1 2372 -0.550000 15.99940
2373 OM 2373 OM OM1 2373 -0.550000 15.99940
2374 OM 2374 OM OM1 2374 -0.550000 15.99940
2375 OM 2375 OM OM1 2375 -0.550000 15.99940
2376 OM 2376 OM OM1 2376 -0.550000 15.99940
2377 OM 2377 OM OM1 2377 -0.550000 15.99940
2378 OM 2378 OM OM1 2378 -0.550000 15.99940
2379 OM 2379 OM OM1 2379 -0.550000 15.99940
2380 OM 2380 OM OM1 2380 -0.550000 15.99940
2381 OM 2381 OM OM1 2381 -0.550000 15.99940
2382 OM 2382 OM OM1 2382 -0.550000 15.99940
2383 OM 2383 OM OM1 2383 -0.550000 15.99940
2384 OM 2384 OM OM1 2384 -0.550000 15.99940
2385 OM 2385 OM OM1 2385 -0.550000 15.99940
2386 OM 2386 OM OM1 2386 -0.550000 15.99940
2387 OM 2387 OM OM1 2387 -0.550000 15.99940
2388 OM 2388 OM OM1 2388 -0.550000 15.99940
2389 OM 2389 OM OM1 2389 -0.550000 15.99940
2390 OM 2390 OM OM1 2390 -0.550000 15.99940
2391 OM 2391 OM OM1 2391 -0.550000 15.99940
2392 OM 2392 OM OM1 2392 -0.550000 15.99940
2393 OM 2393 OM OM1 2393 -0.550000 15.99940
2394 OM 2394 OM OM1 2394 -0.550000 15.99940
2395 OM 2395 OM OM1 2395 -0.550000 15.99940
2396 OM 2396 OM OM1 2396 -0.550000 15.99940
2397 OM 2397 OM OM1 2397 -0.550000 15.99940
2398 OM 2398 OM OM1 2398 -0.550000 15.99940
2399 OM 2399 OM OM1 2399 -0.550000 15.99940
2400 OM 2400 OM OM1 2400 -0.550000 15.99940
2401 OM 2401 OM OM1 2401 -0.550000 15.99940
2402 OM 2402 OM OM1 2402 -0.550000 15.99940
2403 OM 2403 OM OM1 2403 -0.550000 15.99940
2404 OM 2404 OM OM1 2404 -0.550000 15.99940
2405 OM 2405 OM OM1 2405 -0.550000 15.99940
2406 OM 2406 OM OM1 2406 -0.550000 15.99940
2407 OM 2407 OM OM1 2407 -0.550000 15.99940
2408 OM 2408 OM OM1 2408 -0.550000 15.99940
2409 OM 2409 OM OM1 2409 -0.550000 15.99940
2410 OM 2410 OM OM1 2410 -0.550000 15.99940
2411 OM 2411 OM OM1 2411 -0.550000 15.99940
2412 OM 2412 OM OM1 2412 -0.550000 15.99940
2413 OM 2413 OM OM1 2413 -0.550000 15.99940
2414 OM 2414 OM OM1 2414 -0.550000 15.99940
2415 OM 2415 OM OM1 2415 -0.550000 15.99940
2416 OM 2416 OM OM1 2416 -0.550000 15.99940
2417 OM 2417 OM OM1 2417 -0.550000 15.99940
2418 OM 2418 OM OM1 2418 -0.550000 15.99940
2419 OM 2419 OM OM1 2419 -0.550000 15.99940
2420 OM 2420 OM OM1 2420 -0.550000 15.99940
2421 OM 2421 OM OM1 2421 -0.550000 15.99940
2422 OM 2422 OM OM1 2422 -0.550000 15.99940
2423 OM 2423 OM OM1 2423 -0.550000 15.99940
2424 OM 2424 OM OM1 2424 -0.550000 15.99940
2425 OM 2425 OM OM1 2425 -0.550000 15.99940
2426 OM 2426 OM OM1 2426 -0.550000 15.99940
2427 OM 2427 OM OM1 2427 -0.550000 15.99940
2428 OM 2428 OM OM1 2428 -0.550000 15.99940
2429 OM 2429 OM OM1 2429 -0.550000 15.99940
2430 OM 2430 OM OM1 2430 -0.550000 15.99940
2431 OM 2431 OM OM1 2431 -0.550000 15.99940
2432 OM 2432 OM OM1 2432 -0.550000 15.99940
2433 OM 2433 OM OM1 2433 -0.550000 15.99940
2434 OM 2434 OM OM1 2434 -0.550000 15.99940
2435 OM 2435 OM OM1 2435 -0.550000 15.99940
2436 OM 2436 OM OM1 2436 -0.550000 15.99940
2437 OM 2437 OM OM1 2437 -0.550000 15.99940
2438 OM 2438 OM OM1 2438 -0.550000 15.99940
2439 OM 2439 OM OM1 2439 -0.550000 15.99940
2440 OM 2440 OM OM1 2440 -0.550000 15.99940
2441 OM 2441 OM OM1 2441 -0.550000 15.99940
2442 OM 2442 OM OM1 2442 -0.550000 15.99940
2443 OM 2443 OM OM1 2443 -0.550000 15.99940
2444 OM 2444 OM OM1 2444 -0.550000 15.99940
2445 OM 2445 OM OM1 2445 -0.550000 15.99940
2446 OM 2446 OM OM1 2446 -0.550000 15.99940
2447 OM 2447 OM OM1 2447 -0.550000 15.99940
2448 OM 2448 OM OM1 2448 -0.550000 15.99940
2449 OM 2449 OM OM1 2449 -0.550000 15.99940
2450 OM 2450 OM OM1 2450 -0.550000 15.99940
2451 OM 2451 OM OM1 2451 -0.550000 15.99940
2452 OM 2452 OM OM1 2452 -0.550000 15.99940
2453 OM 2453 OM OM1 2453 -0.550000 15.99940
2454 OM 2454 OM OM1 2454 -0.550000 15.99940
2455 OM 2455 OM OM1 2455 -0.550000 15.99940
2456 OM 2456 OM OM1 2456 -0.550000 15.99940
2457 OM 2457 OM OM1 2457 -0.550000 15.99940
2458 OM 2458 OM OM1 2458 -0.550000 15.99940
2459 OM 2459 OM OM1 2459 -0.550000 15.99940
2460 OM 2460 OM OM1 2460 -0.550000 15.99940
2461 OM 2461 OM OM1 2461 -0.550000 15.99940
2462 OM 2462 OM OM1 2462 -0.550000 15.99940
2463 OM 2463 OM OM1 2463 -0.550000 15.99940
2464 OM 2464 OM OM1 2464 -0.550000 15.99940
2465 OM 2465 OM OM1 2465 -0.550000 15.99940
2466 OM 2466 OM OM1 2466 -0.550000 15.99940
2467 OM 2467 OM OM1 2467 -0.550000 15.99940
2468 OM 2468 OM OM1 2468 -0.550000 15.99940
2469 OM 2469 OM OM1 2469 -0.550000 15.99940
2470 OM 2470 OM OM1 2470 -0.550000 15.99940
2471 OM 2471 OM OM1 2471 -0.550000 15.99940
2472 OM 2472 OM OM1 2472 -0.550000 15.99940
2473 OM 2473 OM OM1 2473 -0.550000 15.99940
2474 OM 2474 OM OM1 2474 -0.550000 15.99940
2475 OM 2475 OM OM1 2475 -0.550000 15.99940
2476 OM 2476 OM OM1 2476 -0.550000 15.99940
2477 OM 2477 OM OM1 2477 -0.550000 15.99940
2478 OM 2478 OM OM1 2478 -0.550000 15.99940
2479 OM 2479 OM OM1 2479 -0.550000 15.99940
2480 OM 2480 OM OM1 2480 -0.550000 15.99940
2481 OM 2481 OM OM1 2481 -0.550000 15.99940
2482 OM 2482 OM OM1 2482 -0.550000 15.99940
2483 OM 2483 OM OM1 2483 -0.550000 15.99940
2484 OM 2484 OM OM1 2484 -0.550000 15.99940
2485 OM 2485 OM OM1 2485 -0.550000 15.99940
2486 OM 2486 OM OM1 2486 -0.550000 15.99940
2487 OM 2487 OM OM1 2487 -0.550000 15.99940
2488 OM 2488 OM OM1 2488 -0.550000 15.99940
2489 OM 2489 OM OM1 2489 -0.550000 15.99940
2490 OM 2490 OM OM1 2490 -0.550000 15.99940
2491 OM 2491 OM OM1 2491 -0.550000 15.99940
2492 OM 2492 OM OM1 2492 -0.550000 15.99940
2493 OM 2493 OM OM1 2493 -0.550000 15.99940
2494 OM 2494 OM OM1 2494 -0.550000 15.99940
2495 OM 2495 OM OM1 2495 -0.550000 15.99940
2496 OM 2496 OM OM1 2496 -0.550000 15.99940
2497 OM 2497 OM OM1 2497 -0.550000 15.99940
2498 OM 2498 OM OM1 2498 -0.550000 15.99940
2499 OM 2499 OM OM1 2499 -0.550000 15.99940
2500 OM 2500 OM OM1 2500 -0.550000 15.99940
2501 OM 2501 OM OM1 2501 -0.550000 15.99940
2502 OM 2502 OM OM1 2502 -0.550000 15.99940
2503 OM 2503 OM OM1 2503 -0.550000 15.99940
2504 OM 2504 OM OM1 2504 -0.550000 15.99940
2505 OM 2505 OM OM1 2505 -0.550000 15.99940
2506 OM 2506 OM OM1 2506 -0.550000 15.99940
2507 OM 2507 OM OM1 2507 -0.550000 15.99940
2508 OM 2508 OM OM1 2508 -0.550000 15.99940
2509 OM 2509 OM OM1 2509 -0.550000 15.99940
2510 OM 2510 OM OM1 2510 -0.550000 15.99940
2511 OM 2511 OM OM1 2511 -0.550000 15.99940
2512 OM 2512 OM OM1 2512 -0.550000 15.99940
2513 OM 2513 OM OM1 2513 -0.550000 15.99940
2514 OM 2514 OM OM1 2514 -0.550000 15.99940
2515 OM 2515 OM OM1 2515 -0.550000 15.99940
2516 OM 2516 OM OM1 2516 -0.550000 15.99940
2517 OM 2517 OM OM1 2517 -0.550000 15.99940
2518 OM 2518 OM OM1 2518 -0.550000 15.99940
2519 OM 2519 OM OM1 2519 -0.550000 15.99940
2520 OM 2520 OM OM1 2520 -0.550000 15.99940
2521 OM 2521 OM OM1 2521 -0.550000 15.99940
2522 OM 2522 OM OM1 2522 -0.550000 15.99940
2523 OM 2523 OM OM1 2523 -0.550000 15.99940
2524 OM 2524 OM OM1 2524 -0.550000 15.99940
2525 OM 2525 OM OM1 2525 -0.550000 15.99940
2526 OM 2526 OM OM1 2526 -0.550000 15.99940
2527 OM 2527 OM OM1 2527 -0.550000 15.99940
2528 OM 2528 OM OM1 2528 -0.550000 15.99940
2529 OM 2529 OM OM1 2529 -0.550000 15.99940
2530 OM 2530 OM OM1 2530 -0.550000 15.99940
2531 OM 2531 OM OM1 2531 -0.550000 15.99940
2532 OM 2532 OM OM1 2532 -0.550000 15.99940
2533 OM 2533 OM OM1 2533 -0.550000 15.99940
2534 OM 2534 OM OM1 2534 -0.550000 15.99940
2535 OM 2535 OM OM1 2535 -0.550000 15.99940
2536 OM 2536 OM OM1 2536 -0.550000 15.99940
2537 OM 2537 OM OM1 2537 -0.550000 15.99940
2538 OM 2538 OM OM1 2538 -0.550000 15.99940
2539 OM 2539 OM OM1 2539 -0.550000 15.99940
2540 OM 2540 OM OM1 2540 -0.550000 15.99940
2541 OM 2541 OM OM1 2541 -0.550000 15.99940
2542 OM 2542 OM OM1 2542 -0.550000 15.99940
2543 OM 2543 OM OM1 2543 -0.550000 15.99940
2544 OM 2544 OM OM1 2544 -0.550000 15.99940
2545 OM 2545 OM OM1 2545 -0.550000 15.99940
2546 OM 2546 OM OM1 2546 -0.550000 15.99940
2547 OM 2547 OM OM1 2547 -0.550000 15.99940
2548 OM 2548 OM OM1 2548 -0.550000 15.99940
2549 OM 2549 OM OM1 2549 -0.550000 15.99940
2550 OM 2550 OM OM1 2550 -0.550000 15.99940
2551 OM 2551 OM OM1 2551 -0.550000 15.99940
2552 OM 2552 OM OM1 2552 -0.550000 15.99940
2553 OM 2553 OM OM1 2553 -0.550000 15.99940
2554 OM 2554 OM OM1 2554 -0.550000 15.99940
2555 OM 2555 OM OM1 2555 -0.550000 15.99940
2556 OM 2556 OM OM1 2556 -0.550000 15.99940
2557 OM 2557 OM OM1 2557 -0.550000 15.99940
2558 OM 2558 OM OM1 2558 -0.550000 15.99940
2559 OM 2559 OM OM1 2559 -0.550000 15.99940
2560 OM 2560 OM OM1 2560 -0.550000 15.99940
2561 OM 2561 OM OM1 2561 -0.550000 15.99940
2562 OM 2562 OM OM1 2562 -0.550000 15.99940
2563 OM 2563 OM OM1 2563 -0.550000 15.99940
2564 OM 2564 OM OM1 2564 -0.550000 15.99940
2565 OM 2565 OM OM1 2565 -0.550000 15.99940
2566 OM 2566 OM OM1 2566 -0.550000 15.99940
2567 OM 2567 OM OM1 2567 -0.550000 15.99940
2568 OM 2568 OM OM1 2568 -0.550000 15.99940
2569 OM 2569 OM OM1 2569 -0.550000 15.99940
2570 OM 2570 OM OM1 2570 -0.550000 15.99940
2571 OM 2571 OM OM1 2571 -0.550000 15.99940
2572 OM 2572 OM OM1 2572 -0.550000 15.99940
2573 OM 2573 OM OM1 2573 -0.550000 15.99940
2574 OM 2574 OM OM1 2574 -0.550000 15.99940
2575 OM 2575 OM OM1 2575 -0.550000 15.99940
2576 OM 2576 OM OM1 2576 -0.550000 15.99940
2577 OM 2577 OM OM1 2577 -0.550000 15.99940
2578 OM 2578 OM OM1 2578 -0.550000 15.99940
2579 OM 2579 OM OM1 2579 -0.550000 15.99940
2580 OM 2580 OM OM1 2580 -0.550000 15.99940
2581 OM 2581 OM OM1 2581 -0.550000 15.99940
2582 OM 2582 OM OM1 2582 -0.550000 15.99940
2583 OM 2583 OM OM1 2583 -0.550000 15.99940
2584 OM 2584 OM OM1 2584 -0.550000 15.99940
2585 OM 2585 OM OM1 2585 -0.550000 15.99940
2586 OM 2586 OM OM1 2586 -0.550000 15.99940
2587 OM 2587 OM OM1 2587 -0.550000 15.99940
2588 OM 2588 OM OM1 2588 -0.550000 15.99940
2589 OM 2589 OM OM1 2589 -0.550000 15.99940
2590 OM 2590 OM OM1 2590 -0.550000 15.99940
2591 OM 2591 OM OM1 2591 -0.550000 15.99940
2592 OM 2592 OM OM1 2592 -0.550000 15.99940
2593 OM 2593 OM OM1 2593 -0.550000 15.99940
2594 OM 2594 OM OM1 2594 -0.550000 15.99940
2595 OM 2595 OM OM1 2595 -0.550000 15.99940
2596 OM 2596 OM OM1 2596 -0.550000 15.99940
2597 OM 2597 OM OM1 2597 -0.550000 15.99940
2598 OM 2598 OM OM1 2598 -0.550000 15.99940
2599 OM 2599 OM OM1 2599 -0.550000 15.99940
2600 OM 2600 OM OM1 2600 -0.550000 15.99940
2601 OM 2601 OM OM1 2601 -0.550000 15.99940
2602 OM 2602 OM OM1 2602 -0.550000 15.99940
2603 OM 2603 OM OM1 2603 -0.550000 15.99940
2604 OM 2604 OM OM1 2604 -0.550000 15.99940
2605 OM 2605 OM OM1 2605 -0.550000 15.99940
2606 OM 2606 OM OM1 2606 -0.550000 15.99940
2607 OM 2607 OM OM1 2607 -0.550000 15.99940
2608 OM 2608 OM OM1 2608 -0.550000 15.99940
2609 OM 2609 OM OM1 2609 -0.550000 15.99940
2610 OM 2610 OM OM1 2610 -0.550000 15.99940
2611 OM 2611 OM OM1 2611 -0.550000 15.99940
2612 OM 2612 OM OM1 2612 -0.550000 15.99940
2613 OM 2613 OM OM1 2613 -0.550000 15.99940
2614 OM 2614 OM OM1 2614 -0.550000 15.99940
2615 OM 2615 OM OM1 2615 -0.550000 15.99940
2616 OM 2616 OM OM1 2616 -0.550000 15.99940
2617 OM 2617 OM OM1 2617 -0.550000 15.99940
2618 OM 2618 OM OM1 2618 -0.550000 15.99940
2619 OM 2619 OM OM1 2619 -0.550000 15.99940
2620 OM 2620 OM OM1 2620 -0.550000 15.99940
2621 OM 2621 OM OM1 2621 -0.550000 15.99940
2622 OM 2622 OM OM1 2622 -0.550000 15.99940
2623 OM 2623 OM OM1 2623 -0.550000 15.99940
2624 OM 2624 OM OM1 2624 -0.550000 15.99940
2625 OM 2625 OM OM1 2625 -0.550000 15.99940
2626 OM 2626 OM OM1 2626 -0.550000 15.99940
2627 OM 2627 OM OM1 2627 -0.550000 15.99940
2628 OM 2628 OM OM1 2628 -0.550000 15.99940
2629 OM 2629 OM OM1 2629 -0.550000 15.99940
2630 OM 2630 OM OM1 2630 -0.550000 15.99940
2631 OM 2631 OM OM1 2631 -0.550000 15.99940
2632 OM 2632 OM OM1 2632 -0.550000 15.99940
2633 OM 2633 OM OM1 2633 -0.550000 15.99940
2634 OM 2634 OM OM1 2634 -0.550000 15.99940
2635 OM 2635 OM OM1 2635 -0.550000 15.99940
2636 OM 2636 OM OM1 2636 -0.550000 15.99940
2637 OM 2637 OM OM1 2637 -0.550000 15.99940
2638 OM 2638 OM OM1 2638 -0.550000 15.99940
2639 OM 2639 OM OM1 2639 -0.550000 15.99940
2640 OM 2640 OM OM1 2640 -0.550000 15.99940
2641 OM 2641 OM OM1 2641 -0.550000 15.99940
2642 OM 2642 OM OM1 2642 -0.550000 15.99940
2643 OM 2643 OM OM1 2643 -0.550000 15.99940
2644 OM 2644 OM OM1 2644 -0.550000 15.99940
2645 OM 2645 OM OM1 2645 -0.550000 15.99940
2646 OM 2646 OM OM1 2646 -0.550000 15.99940
2647 OM 2647 OM OM1 2647 -0.550000 15.99940
2648 OM 2648 OM OM1 2648 -0.550000 15.99940
2649 OM 2649 OM OM1 2649 -0.550000 15.99940
2650 OM 2650 OM OM1 2650 -0.550000 15.99940
2651 OM 2651 OM OM1 2651 -0.550000 15.99940
2652 OM 2652 OM OM1 2652 -0.550000 15.99940
2653 OM 2653 OM OM1 2653 -0.550000 15.99940
2654 OM 2654 OM OM1 2654 -0.550000 15.99940
2655 OM 2655 OM OM1 2655 -0.550000 15.99940
2656 OM 2656 OM OM1 2656 -0.550000 15.99940
2657 OM 2657 OM OM1 2657 -0.550000 15.99940
2658 OM 2658 OM OM1 2658 -0.550000 15.99940
2659 OM 2659 OM OM1 2659 -0.550000 15.99940
2660 OM 2660 OM OM1 2660 -0.550000 15.99940
2661 OM 2661 OM OM1 2661 -0.550000 15.99940
2662 OM 2662 OM OM1 2662 -0.550000 15.99940
2663 OM 2663 OM OM1 2663 -0.550000 15.99940
2664 OM 2664 OM OM1 2664 -0.550000 15.99940
2665 OM 2665 OM OM1 2665 -0.550000 15.99940
2666 OM 2666 OM OM1 2666 -0.550000 15.99940
2667 OM 2667 OM OM1 2667 -0.550000 15.99940
2668 OM 2668 OM OM1 2668 -0.550000 15.99940
2669 OM 2669 OM OM1 2669 -0.550000 15.99940
2670 OM 2670 OM OM1 2670 -0.550000 15.99940
2671 OM 2671 OM OM1 2671 -0.550000 15.99940
2672 OM 2672 OM OM1 2672 -0.550000 15.99940
2673 OM 2673 OM OM1 2673 -0.550000 15.99940
2674 OM 2674 OM OM1 2674 -0.550000 15.99940
2675 OM 2675 OM OM1 2675 -0.550000 15.99940
2676 OM 2676 OM OM1 2676 -0.550000 15.99940
2677 OM 2677 OM OM1 2677 -0.550000 15.99940
2678 OM 2678 OM OM1 2678 -0.550000 15.99940
2679 OM 2679 OM OM1 2679 -0.550000 15.99940
2680 OM 2680 OM OM1 2680 -0.550000 15.99940
2681 OM 2681 OM OM1 2681 -0.550000 15.99940
2682 OM 2682 OM OM1 2682 -0.550000 15.99940
2683 OM 2683 OM OM1 2683 -0.550000 15.99940
2684 OM 2684 OM OM1 2684 -0.550000 15.99940
2685 OM 2685 OM OM1 2685 -0.550000 15.99940
2686 OM 2686 OM OM1 2686 -0.550000 15.99940
2687 OM 2687 OM OM1 2687 -0.550000 15.99940
2688 OM 2688 OM OM1 2688 -0.550000 15.99940
2689 OM 2689 OM OM1 2689 -0.550000 15.99940
2690 OM 2690 OM OM1 2690 -0.550000 15.99940
2691 OM 2691 OM OM1 2691 -0.550000 15.99940
2692 OM 2692 OM OM1 2692 -0.550000 15.99940
2693 OM 2693 OM OM1 2693 -0.550000 15.99940
2694 OM 2694 OM OM1 2694 -0.550000 15.99940
2695 OM 2695 OM OM1 2695 -0.550000 15.99940
2696 OM 2696 OM OM1 2696 -0.550000 15.99940
2697 OM 2697 OM OM1 2697 -0.550000 15.99940
2698 OM 2698 OM OM1 2698 -0.550000 15.99940
2699 OM 2699 OM OM1 2699 -0.550000 15.99940
2700 OM 2700 OM OM1 2700 -0.550000 15.99940
2701 OM 2701 OM OM1 2701 -0.550000 15.99940
2702 OM 2702 OM OM1 2702 -0.550000 15.99940
2703 OM 2703 OM OM1 2703 -0.550000 15.99940
2704 OM 2704 OM OM1 2704 -0.550000 15.99940
2705 OM 2705 OM OM1 2705 -0.550000 15.99940
2706 OM 2706 OM OM1 2706 -0.550000 15.99940
2707 OM 2707 OM OM1 2707 -0.550000 15.99940
2708 OM 2708 OM OM1 2708 -0.550000 15.99940
2709 OM 2709 OM OM1 2709 -0.550000 15.99940
2710 OM 2710 OM OM1 2710 -0.550000 15.99940
2711 OM 2711 OM OM1 2711 -0.550000 15.99940
2712 OM 2712 OM OM1 2712 -0.550000 15.99940
2713 OM 2713 OM OM1 2713 -0.550000 15.99940
2714 OM 2714 OM OM1 2714 -0.550000 15.99940
2715 OM 2715 OM OM1 2715 -0.550000 15.99940
2716 OM 2716 OM OM1 2716 -0.550000 15.99940
2717 OM 2717 OM OM1 2717 -0.550000 15.99940
2718 OM 2718 OM OM1 2718 -0.550000 15.99940
2719 OM 2719 OM OM1 2719 -0.550000 15.99940
2720 OM 2720 OM OM1 2720 -0.550000 15.99940
2721 OM 2721 OM OM1 2721 -0.550000 15.99940
2722 OM 2722 OM OM1 2722 -0.550000 15.99940
2723 OM 2723 OM OM1 2723 -0.550000 15.99940
2724 OM 2724 OM OM1 2724 -0.550000 15.99940
2725 OM 2725 OM OM1 2725 -0.550000 15.99940
2726 OM 2726 OM OM1 2726 -0.550000 15.99940
2727 OM 2727 OM OM1 2727 -0.550000 15.99940
2728 OM 2728 OM OM1 2728 -0.550000 15.99940
2729 OM 2729 OM OM1 2729 -0.550000 15.99940
2730 OM 2730 OM OM1 2730 -0.550000 15.99940
2731 OM 2731 OM OM1 2731 -0.550000 15.99940
2732 OM 2732 OM OM1 2732 -0.550000 15.99940
2733 OM 2733 OM OM1 2733 -0.550000 15.99940
2734 OM 2734 OM OM1 2734 -0.550000 15.99940
2735 OM 2735 OM OM1 2735 -0.550000 15.99940
2736 OM 2736 OM OM1 2736 -0.550000 15.99940
2737 OM 2737 OM OM1 2737 -0.550000 15.99940
2738 OM 2738 OM OM1 2738 -0.550000 15.99940
2739 OM 2739 OM OM1 2739 -0.550000 15.99940
2740 OM 2740 OM OM1 2740 -0.550000 15.99940
2741 OM 2741 OM OM1 2741 -0.550000 15.99940
2742 OM 2742 OM OM1 2742 -0.550000 15.99940
2743 OM 2743 OM OM1 2743 -0.550000 15.99940
2744 OM 2744 OM OM1 2744 -0.550000 15.99940
2745 OM 2745 OM OM1 2745 -0.550000 15.99940
2746 OM 2746 OM OM1 2746 -0.550000 15.99940
2747 OM 2747 OM OM1 2747 -0.550000 15.99940
2748 OM 2748 OM OM1 2748 -0.550000 15.99940
2749 OM 2749 OM OM1 2749 -0.550000 15.99940
2750 OM 2750 OM OM1 2750 -0.550000 15.99940
2751 OM 2751 OM OM1 2751 -0.550000 15.99940
2752 OM 2752 OM OM1 2752 -0.550000 15.99940
2753 OM 2753 OM OM1 2753 -0.550000 15.99940
2754 OM 2754 OM OM1 2754 -0.550000 15.99940
2755 OM 2755 OM OM1 2755 -0.550000 15.99940
2756 OM 2756 OM OM1 2756 -0.550000 15.99940
2757 OM 2757 OM OM1 2757 -0.550000 15.99940
2758 OM 2758 OM OM1 2758 -0.550000 15.99940
2759 OM 2759 OM OM1 2759 -0.550000 15.99940
2760 OM 2760 OM OM1 2760 -0.550000 15.99940
2761 OM 2761 OM OM1 2761 -0.550000 15.99940
2762 OM 2762 OM OM1 2762 -0.550000 15.99940
2763 OM 2763 OM OM1 2763 -0.550000 15.99940
2764 OM 2764 OM OM1 2764 -0.550000 15.99940
2765 OM 2765 OM OM1 2765 -0.550000 15.99940
2766 OM 2766 OM OM1 2766 -0.550000 15.99940
2767 OM 2767 OM OM1 2767 -0.550000 15.99940
2768 OM 2768 OM OM1 2768 -0.550000 15.99940
2769 OM 2769 OM OM1 2769 -0.550000 15.99940
2770 OM 2770 OM OM1 2770 -0.550000 15.99940
2771 OM 2771 OM OM1 2771 -0.550000 15.99940
2772 OM 2772 OM OM1 2772 -0.550000 15.99940
2773 OM 2773 OM OM1 2773 -0.550000 15.99940
2774 OM 2774 OM OM1 2774 -0.550000 15.99940
2775 OM 2775 OM OM1 2775 -0.550000 15.99940
2776 OM 2776 OM OM1 2776 -0.550000 15.99940
2777 OM 2777 OM OM1 2777 -0.550000 15.99940
2778 OM 2778 OM OM1 2778 -0.550000 15.99940
2779 OM 2779 OM OM1 2779 -0.550000 15.99940
2780 OM 2780 OM OM1 2780 -0.550000 15.99940
2781 OM 2781 OM OM1 2781 -0.550000 15.99940
2782 OM 2782 OM OM1 2782 -0.550000 15.99940
2783 OM 2783 OM OM1 2783 -0.550000 15.99940
2784 OM 2784 OM OM1 2784 -0.550000 15.99940
2785 OM 2785 OM OM1 2785 -0.550000 15.99940
2786 OM 2786 OM OM1 2786 -0.550000 15.99940
2787 OM 2787 OM OM1 2787 -0.550000 15.99940
2788 OM 2788 OM OM1 2788 -0.550000 15.99940
2789 OM 2789 OM OM1 2789 -0.550000 15.99940
2790 OM 2790 OM OM1 2790 -0.550000 15.99940
2791 OM 2791 OM OM1 2791 -0.550000 15.99940
2792 OM 2792 OM OM1 2792 -0.550000 15.99940
2793 OM 2793 OM OM1 2793 -0.550000 15.99940
2794 OM 2794 OM OM1 2794 -0.550000 15.99940
2795 OM 2795 OM OM1 2795 -0.550000 15.99940
2796 OM 2796 OM OM1 2796 -0.550000 15.99940
2797 OM 2797 OM OM1 2797 -0.550000 15.99940
2798 OM 2798 OM OM1 2798 -0.550000 15.99940
2799 OM 2799 OM OM1 2799 -0.550000 15.99940
2800 OM 2800 OM OM1 2800 -0.550000 15.99940
2801 OM 2801 OM OM1 2801 -0.550000 15.99940
2802 OM 2802 OM OM1 2802 -0.550000 15.99940
2803 OM 2803 OM OM1 2803 -0.550000 15.99940
2804 OM 2804 OM OM1 2804 -0.550000 15.99940
2805 OM 2805 OM OM1 2805 -0.550000 15.99940
2806 OM 2806 OM OM1 2806 -0.550000 15.99940
2807 OM 2807 OM OM1 2807 -0.550000 15.99940
2808 OM 2808 OM OM1 2808 -0.550000 15.99940
2809 OM 2809 OM OM1 2809 -0.550000 15.99940
2810 OM 2810 OM OM1 2810 -0.550000 15.99940
2811 OM 2811 OM OM1 2811 -0.550000 15.99940
2812 OM 2812 OM OM1 2812 -0.550000 15.99940
2813 OM 2813 OM OM1 2813 -0.550000 15.99940
2814 OM 2814 OM OM1 2814 -0.550000 15.99940
2815 OM 2815 OM OM1 2815 -0.550000 15.99940
2816 OM 2816 OM OM1 2816 -0.550000 15.99940
2817 OM 2817 OM OM1 2817 -0.550000 15.99940
2818 OM 2818 OM OM1 2818 -0.550000 15.99940
2819 OM 2819 OM OM1 2819 -0.550000 15.99940
2820 OM 2820 OM OM1 2820 -0.550000 15.99940
2821 OM 2821 OM OM1 2821 -0.550000 15.99940
2822 OM 2822 OM OM1 2822 -0.550000 15.99940
2823 OM 2823 OM OM1 2823 -0.550000 15.99940
2824 OM 2824 OM OM1 2824 -0.550000 15.99940
2825 OM 2825 OM OM1 2825 -0.550000 15.99940
2826 OM 2826 OM OM1 2826 -0.550000 15.99940
2827 OM 2827 OM OM1 2827 -0.550000 15.99940
2828 OM 2828 OM OM1 2828 -0.550000 15.99940
2829 OM 2829 OM OM1 2829 -0.550000 15.99940
2830 OM 2830 OM OM1 2830 -0.550000 15.99940
2831 OM 2831 OM OM1 2831 -0.550000 15.99940
2832 OM 2832 OM OM1 2832 -0.550000 15.99940
2833 OM 2833 OM OM1 2833 -0.550000 15.99940
2834 OM 2834 OM OM1 2834 -0.550000 15.99940
2835 OM 2835 OM OM1 2835 -0.550000 15.99940
2836 OM 2836 OM OM1 2836 -0.550000 15.99940
2837 OM 2837 OM OM1 2837 -0.550000 15.99940
2838 OM 2838 OM OM1 2838 -0.550000 15.99940
2839 OM 2839 OM OM1 2839 -0.550000 15.99940
2840 OM 2840 OM OM1 2840 -0.550000 15.99940
2841 OM 2841 OM OM1 2841 -0.550000 15.99940
2842 OM 2842 OM OM1 2842 -0.550000 15.99940
2843 OM 2843 OM OM1 2843 -0.550000 15.99940
2844 OM 2844 OM OM1 2844 -0.550000 15.99940
2845 OM 2845 OM OM1 2845 -0.550000 15.99940
2846 OM 2846 OM OM1 2846 -0.550000 15.99940
2847 OM 2847 OM OM1 2847 -0.550000 15.99940
2848 OM 2848 OM OM1 2848 -0.550000 15.99940
2849 OM 2849 OM OM1 2849 -0.550000 15.99940
2850 OM 2850 OM OM1 2850 -0.550000 15.99940
2851 OM 2851 OM OM1 2851 -0.550000 15.99940
2852 OM 2852 OM OM1 2852 -0.550000 15.99940
2853 OM 2853 OM OM1 2853 -0.550000 15.99940
2854 OM 2854 OM OM1 2854 -0.550000 15.99940
2855 OM 2855 OM OM1 2855 -0.550000 15.99940
2856 OM 2856 OM OM1 2856 -0.550000 15.99940
2857 OM 2857 OM OM1 2857 -0.550000 15.99940
2858 OM 2858 OM OM1 2858 -0.550000 15.99940
2859 OM 2859 OM OM1 2859 -0.550000 15.99940
2860 OM 2860 OM OM1 2860 -0.550000 15.99940
2861 OM 2861 OM OM1 2861 -0.550000 15.99940
2862 OM 2862 OM OM1 2862 -0.550000 15.99940
2863 OM 2863 OM OM1 2863 -0.550000 15.99940
2864 OM 2864 OM OM1 2864 -0.550000 15.99940
2865 OM 2865 OM OM1 2865 -0.550000 15.99940
2866 OM 2866 OM OM1 2866 -0.550000 15.99940
2867 OM 2867 OM OM1 2867 -0.550000 15.99940
2868 OM 2868 OM OM1 2868 -0.550000 15.99940
2869 OM 2869 OM OM1 2869 -0.550000 15.99940
2870 OM 2870 OM OM1 2870 -0.550000 15.99940
2871 OM 2871 OM OM1 2871 -0.550000 15.99940
2872 OM 2872 OM OM1 2872 -0.550000 15.99940
2873 OM 2873 OM OM1 2873 -0.550000 15.99940
2874 OM 2874 OM OM1 2874 -0.550000 15.99940
2875 OM 2875 OM OM1 2875 -0.550000 15.99940
2876 OM 2876 OM OM1 2876 -0.550000 15.99940
2877 OM 2877 OM OM1 2877 -0.550000 15.99940
2878 OM 2878 OM OM1 2878 -0.550000 15.99940
2879 OM 2879 OM OM1 2879 -0.550000 15.99940
2880 OM 2880 OM OM1 2880 -0.550000 15.99940
2881 OM 2881 OM OM1 2881 -0.550000 15.99940
2882 OM 2882 OM OM1 2882 -0.550000 15.99940
2883 OM 2883 OM OM1 2883 -0.550000 15.99940
2884 OM 2884 OM OM1 2884 -0.550000 15.99940
2885 OM 2885 OM OM1 2885 -0.550000 15.99940
2886 OM 2886 OM OM1 2886 -0.550000 15.99940
2887 OM 2887 OM OM1 2887 -0.550000 15.99940
2888 OM 2888 OM OM1 2888 -0.550000 15.99940
2889 OM 2889 OM OM1 2889 -0.550000 15.99940
2890 OM 2890 OM OM1 2890 -0.550000 15.99940
2891 OM 2891 OM OM1 2891 -0.550000 15.99940
2892 OM 2892 OM OM1 2892 -0.550000 15.99940
2893 OM 2893 OM OM1 2893 -0.550000 15.99940
2894 OM 2894 OM OM1 2894 -0.550000 15.99940
2895 OM 2895 OM OM1 2895 -0.550000 15.99940
2896 OM 2896 OM OM1 2896 -0.550000 15.99940
2897 OM 2897 OM OM1 2897 -0.550000 15.99940
2898 OM 2898 OM OM1 2898 -0.550000 15.99940
2899 OM 2899 OM OM1 2899 -0.550000 15.99940
2900 OM 2900 OM OM1 2900 -0.550000 15.99940
2901 OM 2901 OM OM1 2901 -0.550000 15.99940
2902 OM 2902 OM OM1 2902 -0.550000 15.99940
2903 OM 2903 OM OM1 2903 -0.550000 15.99940
2904 OM 2904 OM OM1 2904 -0.550000 15.99940
2905 OM 2905 OM OM1 2905 -0.550000 15.99940
2906 OM 2906 OM OM1 2906 -0.550000 15.99940
2907 OM 2907 OM OM1 2907 -0.550000 15.99940
2908 OM 2908 OM OM1 2908 -0.550000 15.99940
2909 OM 2909 OM OM1 2909 -0.550000 15.99940
2910 OM 2910 OM OM1 2910 -0.550000 15.99940
2911 OM 2911 OM OM1 2911 -0.550000 15.99940
2912 OM 2912 OM OM1 2912 -0.550000 15.99940
2913 OM 2913 OM OM1 2913 -0.550000 15.99940
2914 OM 2914 OM OM1 2914 -0.550000 15.99940
2915 OM 2915 OM OM1 2915 -0.550000 15.99940
2916 OM 2916 OM OM1 2916 -0.550000 15.99940
2917 OM 2917 OM OM1 2917 -0.550000 15.99940
2918 OM 2918 OM OM1 2918 -0.550000 15.99940
2919 OM 2919 OM OM1 2919 -0.550000 15.99940
2920 OM 2920 OM OM1 2920 -0.550000 15.99940
2921 OM 2921 OM OM1 2921 -0.550000 15.99940
2922 OM 2922 OM OM1 2922 -0.550000 15.99940
2923 OM 2923 OM OM1 2923 -0.550000 15.99940
2924 OM 2924 OM OM1 2924 -0.550000 15.99940
2925 OM 2925 OM OM1 2925 -0.550000 15.99940
2926 OM 2926 OM OM1 2926 -0.550000 15.99940
2927 OM 2927 OM OM1 2927 -0.550000 15.99940
2928 OM 2928 OM OM1 2928 -0.550000 15.99940
2929 OM 2929 OM OM1 2929 -0.550000 15.99940
2930 OM 2930 OM OM1 2930 -0.550000 15.99940
2931 OM 2931 OM OM1 2931 -0.550000 15.99940
2932 OM 2932 OM OM1 2932 -0.550000 15.99940
2933 OM 2933 OM OM1 2933 -0.550000 15.99940
2934 OM 2934 OM OM1 2934 -0.550000 15.99940
2935 OM 2935 OM OM1 2935 -0.550000 15.99940
2936 OM 2936 OM OM1 2936 -0.550000 15.99940
2937 OM 2937 OM OM1 2937 -0.550000 15.99940
2938 OM 2938 OM OM1 2938 -0.550000 15.99940
2939 OM 2939 OM OM1 2939 -0.550000 15.99940
2940 OM 2940 OM OM1 2940 -0.550000 15.99940
2941 OM 2941 OM OM1 2941 -0.550000 15.99940
2942 OM 2942 OM OM1 2942 -0.550000 15.99940
2943 OM 2943 OM OM1 2943 -0.550000 15.99940
2944 OM 2944 OM OM1 2944 -0.550000 15.99940
2945 OM 2945 OM OM1 2945 -0.550000 15.99940
2946 OM 2946 OM OM1 2946 -0.550000 15.99940
2947 OM 2947 OM OM1 2947 -0.550000 15.99940
2948 OM 2948 OM OM1 2948 -0.550000 15.99940
2949 OM 2949 OM OM1 2949 -0.550000 15.99940
2950 OM 2950 OM OM1 2950 -0.550000 15.99940
2951 OM 2951 OM OM1 2951 -0.550000 15.99940
2952 OM 2952 OM OM1 2952 -0.550000 15.99940
2953 OM 2953 OM OM1 2953 -0.550000 15.99940
2954 OM 2954 OM OM1 2954 -0.550000 15.99940
2955 OM 2955 OM OM1 2955 -0.550000 15.99940
2956 OM 2956 OM OM1 2956 -0.550000 15.99940
2957 OM 2957 OM OM1 2957 -0.550000 15.99940
2958 OM 2958 OM OM1 2958 -0.550000 15.99940
2959 OM 2959 OM OM1 2959 -0.550000 15.99940
2960 OM 2960 OM OM1 2960 -0.550000 15.99940
2961 OM 2961 OM OM1 2961 -0.550000 15.99940
2962 OM 2962 OM OM1 2962 -0.550000 15.99940
2963 OM 2963 OM OM1 2963 -0.550000 15.99940
2964 OM 2964 OM OM1 2964 -0.550000 15.99940
2965 OM 2965 OM OM1 2965 -0.550000 15.99940
2966 OM 2966 OM OM1 2966 -0.550000 15.99940
2967 OM 2967 OM OM1 2967 -0.550000 15.99940
2968 OM 2968 OM OM1 2968 -0.550000 15.99940
2969 OM 2969 OM OM1 2969 -0.550000 15.99940
2970 OM 2970 OM OM1 2970 -0.550000 15.99940
2971 OM 2971 OM OM1 2971 -0.550000 15.99940
2972 OM 2972 OM OM1 2972 -0.550000 15.99940
2973 OM 2973 OM OM1 2973 -0.550000 15.99940
2974 OM 2974 OM OM1 2974 -0.550000 15.99940
2975 OM 2975 OM OM1 2975 -0.550000 15.99940
2976 OM 2976 OM OM1 2976 -0.550000 15.99940
2977 OM 2977 OM OM1 2977 -0.550000 15.99940
2978 OM 2978 OM OM1 2978 -0.550000 15.99940
2979 OM 2979 OM OM1 2979 -0.550000 15.99940
2980 OM 2980 OM OM1 2980 -0.550000 15.99940
2981 OM 2981 OM OM1 2981 -0.550000 15.99940
2982 OM 2982 OM OM1 2982 -0.550000 15.99940
2983 OM 2983 OM OM1 2983 -0.550000 15.99940
2984 OM 2984 OM OM1 2984 -0.550000 15.99940
2985 OM 2985 OM OM1 2985 -0.550000 15.99940
2986 OM 2986 OM OM1 2986 -0.550000 15.99940
2987 OM 2987 OM OM1 2987 -0.550000 15.99940
2988 OM 2988 OM OM1 2988 -0.550000 15.99940
2989 OM 2989 OM OM1 2989 -0.550000 15.99940
2990 OM 2990 OM OM1 2990 -0.550000 15.99940
2991 OM 2991 OM OM1 2991 -0.550000 15.99940
2992 OM 2992 OM OM1 2992 -0.550000 15.99940
2993 OM 2993 OM OM1 2993 -0.550000 15.99940
2994 OM 2994 OM OM1 2994 -0.550000 15.99940
2995 OM 2995 OM OM1 2995 -0.550000 15.99940
2996 OM 2996 OM OM1 2996 -0.550000 15.99940
2997 OM 2997 OM OM1 2997 -0.550000 15.99940
2998 OM 2998 OM OM1 2998 -0.550000 15.99940
2999 OM 2999 OM OM1 2999 -0.550000 15.99940
3000 OM 3000 OM OM1 3000 -0.550000 15.99940
3001 OM 3001 OM OM1 3001 -0.550000 15.99940
3002 OM 3002 OM OM1 3002 -0.550000 15.99940
3003 OM 3003 OM OM1 3003 -0.550000 15.99940
3004 OM 3004 OM OM1 3004 -0.550000 15.99940
3005 OM 3005 OM OM1 3005 -0.550000 15.99940
3006 OM 3006 OM OM1 3006 -0.550000 15.99940
3007 OM 3007 OM OM1 3007 -0.550000 15.99940
3008 OM 3008 OM OM1 3008 -0.550000 15.99940
3009 OM 3009 OM OM1 3009 -0.550000 15.99940
3010 OM 3010 OM OM1 3010 -0.550000 15.99940
3011 OM 3011 OM OM1 3011 -0.550000 15.99940
3012 OM 3012 OM OM1 3012 -0.550000 15.99940
3013 OM 3013 OM OM1 3013 -0.550000 15.99940
3014 OM 3014 OM OM1 3014 -0.550000 15.99940
3015 OM 3015 OM OM1 3015 -0.550000 15.99940
3016 OM 3016 OM OM1 3016 -0.550000 15.99940
3017 OM 3017 OM OM1 3017 -0.550000 15.99940
3018 OM 3018 OM OM1 3018 -0.550000 15.99940
3019 OM 3019 OM OM1 3019 -0.550000 15.99940
3020 OM 3020 OM OM1 3020 -0.550000 15.99940
3021 OM 3021 OM OM1 3021 -0.550000 15.99940
3022 OM 3022 OM OM1 3022 -0.550000 15.99940
3023 OM 3023 OM OM1 3023 -0.550000 15.99940
3024 OM 3024 OM OM1 3024 -0.550000 15.99940
3025 OM 3025 OM OM1 3025 -0.550000 15.99940
3026 OM 3026 OM OM1 3026 -0.550000 15.99940
3027 OM 3027 OM OM1 3027 -0.550000 15.99940
3028 OM 3028 OM OM1 3028 -0.550000 15.99940
3029 OM 3029 OM OM1 3029 -0.550000 15.99940
3030 OM 3030 OM OM1 3030 -0.550000 15.99940
3031 OM 3031 OM OM1 3031 -0.550000 15.99940
3032 OM 3032 OM OM1 3032 -0.550000 15.99940
3033 OM 3033 OM OM1 3033 -0.550000 15.99940
3034 OM 3034 OM OM1 3034 -0.550000 15.99940
3035 OM 3035 OM OM1 3035 -0.550000 15.99940
3036 OM 3036 OM OM1 3036 -0.550000 15.99940
3037 OM 3037 OM OM1 3037 -0.550000 15.99940
3038 OM 3038 OM OM1 3038 -0.550000 15.99940
3039 OM 3039 OM OM1 3039 -0.550000 15.99940
3040 OM 3040 OM OM1 3040 -0.550000 15.99940
3041 OM 3041 OM OM1 3041 -0.550000 15.99940
3042 OM 3042 OM OM1 3042 -0.550000 15.99940
3043 OM 3043 OM OM1 3043 -0.550000 15.99940
3044 OM 3044 OM OM1 3044 -0.550000 15.99940
3045 OM 3045 OM OM1 3045 -0.550000 15.99940
3046 OM 3046 OM OM1 3046 -0.550000 15.99940
3047 OM 3047 OM OM1 3047 -0.550000 15.99940
3048 OM 3048 OM OM1 3048 -0.550000 15.99940
3049 OM 3049 OM OM1 3049 -0.550000 15.99940
3050 OM 3050 OM OM1 3050 -0.550000 15.99940
3051 OM 3051 OM OM1 3051 -0.550000 15.99940
3052 OM 3052 OM OM1 3052 -0.550000 15.99940
3053 OM 3053 OM OM1 3053 -0.550000 15.99940
3054 OM 3054 OM OM1 3054 -0.550000 15.99940
3055 OM 3055 OM OM1 3055 -0.550000 15.99940
3056 OM 3056 OM OM1 3056 -0.550000 15.99940
3057 OM 3057 OM OM1 3057 -0.550000 15.99940
3058 OM 3058 OM OM1 3058 -0.550000 15.99940
3059 OM 3059 OM OM1 3059 -0.550000 15.99940
3060 OM 3060 OM OM1 3060 -0.550000 15.99940
3061 OM 3061 OM OM1 3061 -0.550000 15.99940
3062 OM 3062 OM OM1 3062 -0.550000 15.99940
3063 OM 3063 OM OM1 3063 -0.550000 15.99940
3064 OM 3064 OM OM1 3064 -0.550000 15.99940
3065 OM 3065 OM OM1 3065 -0.550000 15.99940
3066 OM 3066 OM OM1 3066 -0.550000 15.99940
3067 OM 3067 OM OM1 3067 -0.550000 15.99940
3068 OM 3068 OM OM1 3068 -0.550000 15.99940
3069 OM 3069 OM OM1 3069 -0.550000 15.99940
3070 OM 3070 OM OM1 3070 -0.550000 15.99940
3071 OM 3071 OM OM1 3071 -0.550000 15.99940
3072 OM 3072 OM OM1 3072 -0.550000 15.99940
3073 OM 3073 OM OM1 3073 -0.550000 15.99940
3074 OM 3074 OM OM1 3074 -0.550000 15.99940
3075 OM 3075 OM OM1 3075 -0.550000 15.99940
3076 OM 3076 OM OM1 3076 -0.550000 15.99940
3077 OM 3077 OM OM1 3077 -0.550000 15.99940
3078 OM 3078 OM OM1 3078 -0.550000 15.99940
3079 OM 3079 OM OM1 3079 -0.550000 15.99940
3080 OM 3080 OM OM1 3080 -0.550000 15.99940
3081 OM 3081 OM OM1 3081 -0.550000 15.99940
3082 OM 3082 OM OM1 3082 -0.550000 15.99940
3083 OM 3083 OM OM1 3083 -0.550000 15.99940
3084 OM 3084 OM OM1 3084 -0.550000 15.99940
3085 OM 3085 OM OM1 3085 -0.550000 15.99940
3086 OM 3086 OM OM1 3086 -0.550000 15.99940
3087 OM 3087 OM OM1 3087 -0.550000 15.99940
3088 OM 3088 OM OM1 3088 -0.550000 15.99940
3089 OM 3089 OM OM1 3089 -0.550000 15.99940
3090 OM 3090 OM OM1 3090 -0.550000 15.99940
3091 OM 3091 OM OM1 3091 -0.550000 15.99940
3092 OM 3092 OM OM1 3092 -0.550000 15.99940
3093 OM 3093 OM OM1 3093 -0.550000 15.99940
3094 OM 3094 OM OM1 3094 -0.550000 15.99940
3095 OM 3095 OM OM1 3095 -0.550000 15.99940
3096 OM 3096 OM OM1 3096 -0.550000 15.99940
3097 OM 3097 OM OM1 3097 -0.550000 15.99940
3098 OM 3098 OM OM1 3098 -0.550000 15.99940
3099 OM 3099 OM OM1 3099 -0.550000 15.99940
3100 OM 3100 OM OM1 3100 -0.550000 15.99940
3101 OM 3101 OM OM1 3101 -0.550000 15.99940
3102 OM 3102 OM OM1 3102 -0.550000 15.99940
3103 OM 3103 OM OM1 3103 -0.550000 15.99940
3104 OM 3104 OM OM1 3104 -0.550000 15.99940
3105 OM 3105 OM OM1 3105 -0.550000 15.99940
3106 OM 3106 OM OM1 3106 -0.550000 15.99940
3107 OM 3107 OM OM1 3107 -0.550000 15.99940
3108 OM 3108 OM OM1 3108 -0.550000 15.99940
3109 OM 3109 OM OM1 3109 -0.550000 15.99940
3110 OM 3110 OM OM1 3110 -0.550000 15.99940
3111 OM 3111 OM OM1 3111 -0.550000 15.99940
3112 OM 3112 OM OM1 3112 -0.550000 15.99940
3113 OM 3113 OM OM1 3113 -0.550000 15.99940
3114 OM 3114 OM OM1 3114 -0.550000 15.99940
3115 OM 3115 OM OM1 3115 -0.550000 15.99940
3116 OM 3116 OM OM1 3116 -0.550000 15.99940
3117 OM 3117 OM OM1 3117 -0.550000 15.99940
3118 OM 3118 OM OM1 3118 -0.550000 15.99940
3119 OM 3119 OM OM1 3119 -0.550000 15.99940
3120 OM 3120 OM OM1 3120 -0.550000 15.99940
3121 OM 3121 OM OM1 3121 -0.550000 15.99940
3122 OM 3122 OM OM1 3122 -0.550000 15.99940
3123 OM 3123 OM OM1 3123 -0.550000 15.99940
3124 OM 3124 OM OM1 3124 -0.550000 15.99940
3125 OM 3125 OM OM1 3125 -0.550000 15.99940
3126 OM 3126 OM OM1 3126 -0.550000 15.99940
3127 OM 3127 OM OM1 3127 -0.550000 15.99940
3128 OM 3128 OM OM1 3128 -0.550000 15.99940
3129 OM 3129 OM OM1 3129 -0.550000 15.99940
3130 OM 3130 OM OM1 3130 -0.550000 15.99940
3131 OM 3131 OM OM1 3131 -0.550000 15.99940
3132 OM 3132 OM OM1 3132 -0.550000 15.99940
3133 OM 3133 OM OM1 3133 -0.550000 15.99940
3134 OM 3134 OM OM1 3134 -0.550000 15.99940
3135 OM 3135 OM OM1 3135 -0.550000 15.99940
3136 OM 3136 OM OM1 3136 -0.550000 15.99940
3137 OM 3137 OM OM1 3137 -0.550000 15.99940
3138 OM 3138 OM OM1 3138 -0.550000 15.99940
3139 OM 3139 OM OM1 3139 -0.550000 15.99940
3140 OM 3140 OM OM1 3140 -0.550000 15.99940
3141 OM 3141 OM OM1 3141 -0.550000 15.99940
3142 OM 3142 OM OM1 3142 -0.550000 15.99940
3143 OM 3143 OM OM1 3143 -0.550000 15.99940
3144 OM 3144 OM OM1 3144 -0.550000 15.99940
3145 OM 3145 OM OM1 3145 -0.550000 15.99940
3146 OM 3146 OM OM1 3146 -0.550000 15.99940
3147 OM 3147 OM OM1 3147 -0.550000 15.99940
3148 OM 3148 OM OM1 3148 -0.550000 15.99940
3149 OM 3149 OM OM1 3149 -0.550000 15.99940
3150 OM 3150 OM OM1 3150 -0.550000 15.99940
3151 OM 3151 OM OM1 3151 -0.550000 15.99940
3152 OM 3152 OM OM1 3152 -0.550000 15.99940
3153 OM 3153 OM OM1 3153 -0.550000 15.99940
3154 OM 3154 OM OM1 3154 -0.550000 15.99940
3155 OM 3155 OM OM1 3155 -0.550000 15.99940
3156 OM 3156 OM OM1 3156 -0.550000 15.99940
3157 OM 3157 OM OM1 3157 -0.550000 15.99940
3158 OM 3158 OM OM1 3158 -0.550000 15.99940
3159 OM 3159 OM OM1 3159 -0.550000 15.99940
3160 OM 3160 OM OM1 3160 -0.550000 15.99940
3161 OM 3161 OM OM1 3161 -0.550000 15.99940
3162 OM 3162 OM OM1 3162 -0.550000 15.99940
3163 OM 3163 OM OM1 3163 -0.550000 15.99940
3164 OM 3164 OM OM1 3164 -0.550000 15.99940
3165 OM 3165 OM OM1 3165 -0.550000 15.99940
3166 OM 3166 OM OM1 3166 -0.550000 15.99940
3167 OM 3167 OM OM1 3167 -0.550000 15.99940
3168 OM 3168 OM OM1 3168 -0.550000 15.99940
3169 OM 3169 OM OM1 3169 -0.550000 15.99940
3170 OM 3170 OM OM1 3170 -0.550000 15.99940
3171 OM 3171 OM OM1 3171 -0.550000 15.99940
3172 OM 3172 OM OM1 3172 -0.550000 15.99940
3173 OM 3173 OM OM1 3173 -0.550000 15.99940
3174 OM 3174 OM OM1 3174 -0.550000 15.99940
3175 OM 3175 OM OM1 3175 -0.550000 15.99940
3176 OM 3176 OM OM1 3176 -0.550000 15.99940
3177 OM 3177 OM OM1 3177 -0.550000 15.99940
3178 OM 3178 OM OM1 3178 -0.550000 15.99940
3179 OM 3179 OM OM1 3179 -0.550000 15.99940
3180 OM 3180 OM OM1 3180 -0.550000 15.99940
3181 OM 3181 OM OM1 3181 -0.550000 15.99940
3182 OM 3182 OM OM1 3182 -0.550000 15.99940
3183 OM 3183 OM OM1 3183 -0.550000 15.99940
3184 OM 3184 OM OM1 3184 -0.550000 15.99940
3185 OM 3185 OM OM1 3185 -0.550000 15.99940
3186 OM 3186 OM OM1 3186 -0.550000 15.99940
3187 OM 3187 OM OM1 3187 -0.550000 15.99940
3188 OM 3188 OM OM1 3188 -0.550000 15.99940
3189 OM 3189 OM OM1 3189 -0.550000 15.99940
3190 OM 3190 OM OM1 3190 -0.550000 15.99940
3191 OM 3191 OM OM1 3191 -0.550000 15.99940
3192 OM 3192 OM OM1 3192 -0.550000 15.99940
3193 OM 3193 OM OM1 3193 -0.550000 15.99940
3194 OM 3194 OM OM1 3194 -0.550000 15.99940
3195 OM 3195 OM OM1 3195 -0.550000 15.99940
3196 OM 3196 OM OM1 3196 -0.550000 15.99940
3197 OM 3197 OM OM1 3197 -0.550000 15.99940
3198 OM 3198 OM OM1 3198 -0.550000 15.99940
3199 OM 3199 OM OM1 3199 -0.550000 15.99940
3200 OM 3200 OM OM1 3200 -0.550000 15.99940
3201 OM 3201 OM OM1 3201 -0.550000 15.99940
3202 OM 3202 OM OM1 3202 -0.550000 15.99940
3203 OM 3203 OM OM1 3203 -0.550000 15.99940
3204 OM 3204 OM OM1 3204 -0.550000 15.99940
3205 OM 3205 OM OM1 3205 -0.550000 15.99940
3206 OM 3206 OM OM1 3206 -0.550000 15.99940
3207 OM 3207 OM OM1 3207 -0.550000 15.99940
3208 OM 3208 OM OM1 3208 -0.550000 15.99940
3209 OM 3209 OM OM1 3209 -0.550000 15.99940
3210 OM 3210 OM OM1 3210 -0.550000 15.99940
3211 OM 3211 OM OM1 3211 -0.550000 15.99940
3212 OM 3212 OM OM1 3212 -0.550000 15.99940
3213 OM 3213 OM OM1 3213 -0.550000 15.99940
3214 OM 3214 OM OM1 3214 -0.550000 15.99940
3215 OM 3215 OM OM1 3215 -0.550000 15.99940
3216 OM 3216 OM OM1 3216 -0.550000 15.99940
3217 OM 3217 OM OM1 3217 -0.550000 15.99940
3218 OM 3218 OM OM1 3218 -0.550000 15.99940
3219 OM 3219 OM OM1 3219 -0.550000 15.99940
3220 OM 3220 OM OM1 3220 -0.550000 15.99940
3221 OM 3221 OM OM1 3221 -0.550000 15.99940
3222 OM 3222 OM OM1 3222 -0.550000 15.99940
3223 OM 3223 OM OM1 3223 -0.550000 15.99940
3224 OM 3224 OM OM1 3224 -0.550000 15.99940
3225 OM 3225 OM OM1 3225 -0.550000 15.99940
3226 OM 3226 OM OM1 3226 -0.550000 15.99940
3227 OM 3227 OM OM1 3227 -0.550000 15.99940
3228 OM 3228 OM OM1 3228 -0.550000 15.99940
3229 OM 3229 OM OM1 3229 -0.550000 15.99940
3230 OM 3230 OM OM1 3230 -0.550000 15.99940
3231 OM 3231 OM OM1 3231 -0.550000 15.99940
3232 OM 3232 OM OM1 3232 -0.550000 15.99940
3233 OM 3233 OM OM1 3233 -0.550000 15.99940
3234 OM 3234 OM OM1 3234 -0.550000 15.99940
3235 OM 3235 OM OM1 3235 -0.550000 15.99940
3236 OM 3236 OM OM1 3236 -0.550000 15.99940
3237 OM 3237 OM OM1 3237 -0.550000 15.99940
3238 OM 3238 OM OM1 3238 -0.550000 15.99940
3239 OM 3239 OM OM1 3239 -0.550000 15.99940
3240 OM 3240 OM OM1 3240 -0.550000 15.99940
3241 OM 3241 OM OM1 3241 -0.550000 15.99940
3242 OM 3242 OM OM1 3242 -0.550000 15.99940
3243 OM 3243 OM OM1 3243 -0.550000 15.99940
3244 OM 3244 OM OM1 3244 -0.550000 15.99940
3245 OM 3245 OM OM1 3245 -0.550000 15.99940
3246 OM 3246 OM OM1 3246 -0.550000 15.99940
3247 OM 3247 OM OM1 3247 -0.550000 15.99940
3248 OM 3248 OM OM1 3248 -0.550000 15.99940
3249 OM 3249 OM OM1 3249 -0.550000 15.99940
3250 OM 3250 OM OM1 3250 -0.550000 15.99940
3251 OM 3251 OM OM1 3251 -0.550000 15.99940
3252 OM 3252 OM OM1 3252 -0.550000 15.99940
3253 OM 3253 OM OM1 3253 -0.550000 15.99940
3254 OM 3254 OM OM1 3254 -0.550000 15.99940
3255 OM 3255 OM OM1 3255 -0.550000 15.99940
3256 OM 3256 OM OM1 3256 -0.550000 15.99940
3257 OM 3257 OM OM1 3257 -0.550000 15.99940
3258 OM 3258 OM OM1 3258 -0.550000 15.99940
3259 OM 3259 OM OM1 3259 -0.550000 15.99940
3260 OM 3260 OM OM1 3260 -0.550000 15.99940
3261 OM 3261 OM OM1 3261 -0.550000 15.99940
3262 OM 3262 OM OM1 3262 -0.550000 15.99940
3263 OM 3263 OM OM1 3263 -0.550000 15.99940
3264 OM 3264 OM OM1 3264 -0.550000 15.99940
3265 OM 3265 OM OM1 3265 -0.550000 15.99940
3266 OM 3266 OM OM1 3266 -0.550000 15.99940
3267 OM 3267 OM OM1 3267 -0.550000 15.99940
3268 OM 3268 OM OM1 3268 -0.550000 15.99940
3269 OM 3269 OM OM1 3269 -0.550000 15.99940
3270 OM 3270 OM OM1 3270 -0.550000 15.99940
3271 OM 3271 OM OM1 3271 -0.550000 15.99940
3272 OM 3272 OM OM1 3272 -0.550000 15.99940
3273 OM 3273 OM OM1 3273 -0.550000 15.99940
3274 OM 3274 OM OM1 3274 -0.550000 15.99940
3275 OM 3275 OM OM1 3275 -0.550000 15.99940
3276 OM 3276 OM OM1 3276 -0.550000 15.99940
3277 OM 3277 OM OM1 3277 -0.550000 15.99940
3278 OM 3278 OM OM1 3278 -0.550000 15.99940
3279 OM 3279 OM OM1 3279 -0.550000 15.99940
3280 OM 3280 OM OM1 3280 -0.550000 15.99940
3281 OM 3281 OM OM1 3281 -0.550000 15.99940
3282 OM 3282 OM OM1 3282 -0.550000 15.99940
3283 OM 3283 OM OM1 3283 -0.550000 15.99940
3284 OM 3284 OM OM1 3284 -0.550000 15.99940
3285 OM 3285 OM OM1 3285 -0.550000 15.99940
3286 OM 3286 OM OM1 3286 -0.550000 15.99940
3287 OM 3287 OM OM1 3287 -0.550000 15.99940
3288 OM 3288 OM OM1 3288 -0.550000 15.99940
3289 OM 3289 OM OM1 3289 -0.550000 15.99940
3290 OM 3290 OM OM1 3290 -0.550000 15.99940
3291 OM 3291 OM OM1 3291 -0.550000 15.99940
3292 OM 3292 OM OM1 3292 -0.550000 15.99940
3293 OM 3293 OM OM1 3293 -0.550000 15.99940
3294 OM 3294 OM OM1 3294 -0.550000 15.99940
3295 OM 3295 OM OM1 3295 -0.550000 15.99940
3296 OM 3296 OM OM1 3296 -0.550000 15.99940
3297 OM 3297 OM OM1 3297 -0.550000 15.99940
3298 OM 3298 OM OM1 3298 -0.550000 15.99940
3299 OM 3299 OM OM1 3299 -0.550000 15.99940
3300 OM 3300 OM OM1 3300 -0.550000 15.99940
3301 OM 3301 OM OM1 3301 -0.550000 15.99940
3302 OM 3302 OM OM1 3302 -0.550000 15.99940
3303 OM 3303 OM OM1 3303 -0.550000 15.99940
3304 OM 3304 OM OM1 3304 -0.550000 15.99940
3305 OM 3305 OM OM1 3305 -0.550000 15.99940
3306 OM 3306 OM OM1 3306 -0.550000 15.99940
3307 OM 3307 OM OM1 3307 -0.550000 15.99940
3308 OM 3308 OM OM1 3308 -0.550000 15.99940
3309 OM 3309 OM OM1 3309 -0.550000 15.99940
3310 OM 3310 OM OM1 3310 -0.550000 15.99940
3311 OM 3311 OM OM1 3311 -0.550000 15.99940
3312 OM 3312 OM OM1 3312 -0.550000 15.99940
3313 OM 3313 OM OM1 3313 -0.550000 15.99940
3314 OM 3314 OM OM1 3314 -0.550000 15.99940
3315 OM 3315 OM OM1 3315 -0.550000 15.99940
3316 OM 3316 OM OM1 3316 -0.550000 15.99940
3317 OM 3317 OM OM1 3317 -0.550000 15.99940
3318 OM 3318 OM OM1 3318 -0.550000 15.99940
3319 OM 3319 OM OM1 3319 -0.550000 15.99940
3320 OM 3320 OM OM1 3320 -0.550000 15.99940
3321 OM 3321 OM OM1 3321 -0.550000 15.99940
3322 OM 3322 OM OM1 3322 -0.550000 15.99940
3323 OM 3323 OM OM1 3323 -0.550000 15.99940
3324 OM 3324 OM OM1 3324 -0.550000 15.99940
3325 OM 3325 OM OM1 3325 -0.550000 15.99940
3326 OM 3326 OM OM1 3326 -0.550000 15.99940
3327 OM 3327 OM OM1 3327 -0.550000 15.99940
3328 OM 3328 OM OM1 3328 -0.550000 15.99940
3329 OM 3329 OM OM1 3329 -0.550000 15.99940
3330 OM 3330 OM OM1 3330 -0.550000 15.99940
3331 OM 3331 OM OM1 3331 -0.550000 15.99940
3332 OM 3332 OM OM1 3332 -0.550000 15.99940
3333 OM 3333 OM OM1 3333 -0.550000 15.99940
3334 OM 3334 OM OM1 3334 -0.550000 15.99940
3335 OM 3335 OM OM1 3335 -0.550000 15.99940
3336 OM 3336 OM OM1 3336 -0.550000 15.99940
3337 OM 3337 OM OM1 3337 -0.550000 15.99940
3338 OM 3338 OM OM1 3338 -0.550000 15.99940
3339 OM 3339 OM OM1 3339 -0.550000 15.99940
3340 OM 3340 OM OM1 3340 -0.550000 15.99940
3341 OM 3341 OM OM1 3341 -0.550000 15.99940
3342 OM 3342 OM OM1 3342 -0.550000 15.99940
3343 OM 3343 OM OM1 3343 -0.550000 15.99940
3344 OM 3344 OM OM1 3344 -0.550000 15.99940
3345 OM 3345 OM OM1 3345 -0.550000 15.99940
3346 OM 3346 OM OM1 3346 -0.550000 15.99940
3347 OM 3347 OM OM1 3347 -0.550000 15.99940
3348 OM 3348 OM OM1 3348 -0.550000 15.99940
3349 OM 3349 OM OM1 3349 -0.550000 15.99940
3350 OM 3350 OM OM1 3350 -0.550000 15.99940
3351 OM 3351 OM OM1 3351 -0.550000 15.99940
3352 OM 3352 OM OM1 3352 -0.550000 15.99940
3353 OM 3353 OM OM1 3353 -0.550000 15.99940
3354 OM 3354 OM OM1 3354 -0.550000 15.99940
3355 OM 3355 OM OM1 3355 -0.550000 15.99940
3356 OM 3356 OM OM1 3356 -0.550000 15.99940
3357 OM 3357 OM OM1 3357 -0.550000 15.99940
3358 OM 3358 OM OM1 3358 -0.550000 15.99940
3359 OM 3359 OM OM1 3359 -0.550000 15.99940
3360 OM 3360 OM OM1 3360 -0.550000 15.99940
3361 OM 3361 OM OM1 3361 -0.550000 15.99940
3362 OM 3362 OM OM1 3362 -0.550000 15.99940
3363 OM 3363 OM OM1 3363 -0.550000 15.99940
3364 OM 3364 OM OM1 3364 -0.550000 15.99940
3365 OM 3365 OM OM1 3365 -0.550000 15.99940
3366 OM 3366 OM OM1 3366 -0.550000 15.99940
3367 OM 3367 OM OM1 3367 -0.550000 15.99940
3368 OM 3368 OM OM1 3368 -0.550000 15.99940
3369 OM 3369 OM OM1 3369 -0.550000 15.99940
3370 OM 3370 OM OM1 3370 -0.550000 15.99940
3371 OM 3371 OM OM1 3371 -0.550000 15.99940
3372 OM 3372 OM OM1 3372 -0.550000 15.99940
3373 OM 3373 OM OM1 3373 -0.550000 15.99940
3374 OM 3374 OM OM1 3374 -0.550000 15.99940
3375 OM 3375 OM OM1 3375 -0.550000 15.99940
3376 OM 3376 OM OM1 3376 -0.550000 15.99940
3377 OM 3377 OM OM1 3377 -0.550000 15.99940
3378 OM 3378 OM OM1 3378 -0.550000 15.99940
3379 OM 3379 OM OM1 3379 -0.550000 15.99940
3380 OM 3380 OM OM1 3380 -0.550000 15.99940
3381 OM 3381 OM OM1 3381 -0.550000 15.99940
3382 OM 3382 OM OM1 3382 -0.550000 15.99940
3383 OM 3383 OM OM1 3383 -0.550000 15.99940
3384 OM 3384 OM OM1 3384 -0.550000 15.99940
3385 OM 3385 OM OM1 3385 -0.550000 15.99940
3386 OM 3386 OM OM1 3386 -0.550000 15.99940
3387 OM 3387 OM OM1 3387 -0.550000 15.99940
3388 OM 3388 OM OM1 3388 -0.550000 15.99940
3389 OM 3389 OM OM1 3389 -0.550000 15.99940
3390 OM 3390 OM OM1 3390 -0.550000 15.99940
3391 OM 3391 OM OM1 3391 -0.550000 15.99940
3392 OM 3392 OM OM1 3392 -0.550000 15.99940
3393 OM 3393 OM OM1 3393 -0.550000 15.99940
3394 OM 3394 OM OM1 3394 -0.550000 15.99940
3395 OM 3395 OM OM1 3395 -0.550000 15.99940
3396 OM 3396 OM OM1 3396 -0.550000 15.99940
3397 OM 3397 OM OM1 3397 -0.550000 15.99940
3398 OM 3398 OM OM1 3398 -0.550000 15.99940
3399 OM 3399 OM OM1 3399 -0.550000 15.99940
3400 OM 3400 OM OM1 3400 -0.550000 15.99940
3401 OM 3401 OM OM1 3401 -0.550000 15.99940
3402 OM 3402 OM OM1 3402 -0.550000 15.99940
3403 OM 3403 OM OM1 3403 -0.550000 15.99940
3404 OM 3404 OM OM1 3404 -0.550000 15.99940
3405 OM 3405 OM OM1 3405 -0.550000 15.99940
3406 OM 3406 OM OM1 3406 -0.550000 15.99940
3407 OM 3407 OM OM1 3407 -0.550000 15.99940
3408 OM 3408 OM OM1 3408 -0.550000 15.99940
3409 OM 3409 OM OM1 3409 -0.550000 15.99940
3410 OM 3410 OM OM1 3410 -0.550000 15.99940
3411 OM 3411 OM OM1 3411 -0.550000 15.99940
3412 OM 3412 OM OM1 3412 -0.550000 15.99940
3413 OM 3413 OM OM1 3413 -0.550000 15.99940
3414 OM 3414 OM OM1 3414 -0.550000 15.99940
3415 OM 3415 OM OM1 3415 -0.550000 15.99940
3416 OM 3416 OM OM1 3416 -0.550000 15.99940
3417 OM 3417 OM OM1 3417 -0.550000 15.99940
3418 OM 3418 OM OM1 3418 -0.550000 15.99940
3419 OM 3419 OM OM1 3419 -0.550000 15.99940
3420 OM 3420 OM OM1 3420 -0.550000 15.99940
3421 OM 3421 OM OM1 3421 -0.550000 15.99940
3422 OM 3422 OM OM1 3422 -0.550000 15.99940
3423 OM 3423 OM OM1 3423 -0.550000 15.99940
3424 OM 3424 OM OM1 3424 -0.550000 15.99940
3425 OM 3425 OM OM1 3425 -0.550000 15.99940
3426 OM 3426 OM OM1 3426 -0.550000 15.99940
3427 OM 3427 OM OM1 3427 -0.550000 15.99940
3428 OM 3428 OM OM1 3428 -0.550000 15.99940
3429 OM 3429 OM OM1 3429 -0.550000 15.99940
3430 OM 3430 OM OM1 3430 -0.550000 15.99940
3431 OM 3431 OM OM1 3431 -0.550000 15.99940
3432 OM 3432 OM OM1 3432 -0.550000 15.99940
3433 OM 3433 OM OM1 3433 -0.550000 15.99940
3434 OM 3434 OM OM1 3434 -0.550000 15.99940
3435 OM 3435 OM OM1 3435 -0.550000 15.99940
3436 OM 3436 OM OM1 3436 -0.550000 15.99940
3437 OM 3437 OM OM1 3437 -0.550000 15.99940
3438 OM 3438 OM OM1 3438 -0.550000 15.99940
3439 OM 3439 OM OM1 3439 -0.550000 15.99940
3440 OM 3440 OM OM1 3440 -0.550000 15.99940
3441 OM 3441 OM OM1 3441 -0.550000 15.99940
3442 OM 3442 OM OM1 3442 -0.550000 15.99940
3443 OM 3443 OM OM1 3443 -0.550000 15.99940
3444 OM 3444 OM OM1 3444 -0.550000 15.99940
3445 OM 3445 OM OM1 3445 -0.550000 15.99940
3446 OM 3446 OM OM1 3446 -0.550000 15.99940
3447 OM 3447 OM OM1 3447 -0.550000 15.99940
3448 OM 3448 OM OM1 3448 -0.550000 15.99940
3449 OM 3449 OM OM1 3449 -0.550000 15.99940
3450 OM 3450 OM OM1 3450 -0.550000 15.99940
3451 OM 3451 OM OM1 3451 -0.550000 15.99940
3452 OM 3452 OM OM1 3452 -0.550000 15.99940
3453 OM 3453 OM OM1 3453 -0.550000 15.99940
3454 OM 3454 OM OM1 3454 -0.550000 15.99940
3455 OM 3455 OM OM1 3455 -0.550000 15.99940
3456 OM 3456 OM OM1 3456 -0.550000 15.99940
3457 OM 3457 OM OM1 3457 -0.550000 15.99940
3458 OM 3458 OM OM1 3458 -0.550000 15.99940
3459 OM 3459 OM OM1 3459 -0.550000 15.99940
3460 OM 3460 OM OM1 3460 -0.550000 15.99940
3461 OM 3461 OM OM1 3461 -0.550000 15.99940
3462 OM 3462 OM OM1 3462 -0.550000 15.99940
3463 OM 3463 OM OM1 3463 -0.550000 15.99940
3464 OM 3464 OM OM1 3464 -0.550000 15.99940
3465 OM 3465 OM OM1 3465 -0.550000 15.99940
3466 OM 3466 OM OM1 3466 -0.550000 15.99940
3467 OM 3467 OM OM1 3467 -0.550000 15.99940
3468 OM 3468 OM OM1 3468 -0.550000 15.99940
3469 OM 3469 OM OM1 3469 -0.550000 15.99940
3470 OM 3470 OM OM1 3470 -0.550000 15.99940
3471 OM 3471 OM OM1 3471 -0.550000 15.99940
3472 OM 3472 OM OM1 3472 -0.550000 15.99940
3473 OM 3473 OM OM1 3473 -0.550000 15.99940
3474 OM 3474 OM OM1 3474 -0.550000 15.99940
3475 OM 3475 OM OM1 3475 -0.550000 15.99940
3476 OM 3476 OM OM1 3476 -0.550000 15.99940
3477 OM 3477 OM OM1 3477 -0.550000 15.99940
3478 OM 3478 OM OM1 3478 -0.550000 15.99940
3479 OM 3479 OM OM1 3479 -0.550000 15.99940
3480 OM 3480 OM OM1 3480 -0.550000 15.99940
3481 OM 3481 OM OM1 3481 -0.550000 15.99940
3482 OM 3482 OM OM1 3482 -0.550000 15.99940
3483 OM 3483 OM OM1 3483 -0.550000 15.99940
3484 OM 3484 OM OM1 3484 -0.550000 15.99940
3485 OM 3485 OM OM1 3485 -0.550000 15.99940
3486 OM 3486 OM OM1 3486 -0.550000 15.99940
3487 OM 3487 OM OM1 3487 -0.550000 15.99940
3488 OM 3488 OM OM1 3488 -0.550000 15.99940
3489 OM 3489 OM OM1 3489 -0.550000 15.99940
3490 OM 3490 OM OM1 3490 -0.550000 15.99940
3491 OM 3491 OM OM1 3491 -0.550000 15.99940
3492 OM 3492 OM OM1 3492 -0.550000 15.99940
3493 OM 3493 OM OM1 3493 -0.550000 15.99940
3494 OM 3494 OM OM1 3494 -0.550000 15.99940
3495 OM 3495 OM OM1 3495 -0.550000 15.99940
3496 OM 3496 OM OM1 3496 -0.550000 15.99940
3497 OM 3497 OM OM1 3497 -0.550000 15.99940
3498 OM 3498 OM OM1 3498 -0.550000 15.99940
3499 OM 3499 OM OM1 3499 -0.550000 15.99940
3500 OM 3500 OM OM1 3500 -0.550000 15.99940
3501 OM 3501 OM OM1 3501 -0.550000 15.99940
3502 OM 3502 OM OM1 3502 -0.550000 15.99940
3503 OM 3503 OM OM1 3503 -0.550000 15.99940
3504 OM 3504 OM OM1 3504 -0.550000 15.99940
3505 OM 3505 OM OM1 3505 -0.550000 15.99940
3506 OM 3506 OM OM1 3506 -0.550000 15.99940
3507 OM 3507 OM OM1 3507 -0.550000 15.99940
3508 OM 3508 OM OM1 3508 -0.550000 15.99940
3509 OM 3509 OM OM1 3509 -0.550000 15.99940
3510 OM 3510 OM OM1 3510 -0.550000 15.99940
3511 OM 3511 OM OM1 3511 -0.550000 15.99940
3512 OM 3512 OM OM1 3512 -0.550000 15.99940
3513 OM 3513 OM OM1 3513 -0.550000 15.99940
3514 OM 3514 OM OM1 3514 -0.550000 15.99940
3515 OM 3515 OM OM1 3515 -0.550000 15.99940
3516 OM 3516 OM OM1 3516 -0.550000 15.99940
3517 OM 3517 OM OM1 3517 -0.550000 15.99940
3518 OM 3518 OM OM1 3518 -0.550000 15.99940
3519 OM 3519 OM OM1 3519 -0.550000 15.99940
3520 OM 3520 OM OM1 3520 -0.550000 15.99940
3521 OM 3521 OM OM1 3521 -0.550000 15.99940
3522 OM 3522 OM OM1 3522 -0.550000 15.99940
3523 OM 3523 OM OM1 3523 -0.550000 15.99940
3524 OM 3524 OM OM1 3524 -0.550000 15.99940
3525 OM 3525 OM OM1 3525 -0.550000 15.99940
3526 OM 3526 OM OM1 3526 -0.550000 15.99940
3527 OM 3527 OM OM1 3527 -0.550000 15.99940
3528 OM 3528 OM OM1 3528 -0.550000 15.99940
3529 OM 3529 OM OM1 3529 -0.550000 15.99940
3530 OM 3530 OM OM1 3530 -0.550000 15.99940
3531 OM 3531 OM OM1 3531 -0.550000 15.99940
3532 OM 3532 OM OM1 3532 -0.550000 15.99940
3533 OM 3533 OM OM1 3533 -0.550000 15.99940
3534 OM 3534 OM OM1 3534 -0.550000 15.99940
3535 OM 3535 OM OM1 3535 -0.550000 15.99940
3536 OM 3536 OM OM1 3536 -0.550000 15.99940
3537 OM 3537 OM OM1 3537 -0.550000 15.99940
3538 OM 3538 OM OM1 3538 -0.550000 15.99940
3539 OM 3539 OM OM1 3539 -0.550000 15.99940
3540 OM 3540 OM OM1 3540 -0.550000 15.99940
3541 OM 3541 OM OM1 3541 -0.550000 15.99940
3542 OM 3542 OM OM1 3542 -0.550000 15.99940
3543 OM 3543 OM OM1 3543 -0.550000 15.99940
3544 OM 3544 OM OM1 3544 -0.550000 15.99940
3545 OM 3545 OM OM1 3545 -0.550000 15.99940
3546 OM 3546 OM OM1 3546 -0.550000 15.99940
3547 OM 3547 OM OM1 3547 -0.550000 15.99940
3548 OM 3548 OM OM1 3548 -0.550000 15.99940
3549 OM 3549 OM OM1 3549 -0.550000 15.99940
3550 OM 3550 OM OM1 3550 -0.550000 15.99940
3551 OM 3551 OM OM1 3551 -0.550000 15.99940
3552 OM 3552 OM OM1 3552 -0.550000 15.99940
3553 OM 3553 OM OM1 3553 -0.550000 15.99940
3554 OM 3554 OM OM1 3554 -0.550000 15.99940
3555 OM 3555 OM OM1 3555 -0.550000 15.99940
3556 OM 3556 OM OM1 3556 -0.550000 15.99940
3557 OM 3557 OM OM1 3557 -0.550000 15.99940
3558 OM 3558 OM OM1 3558 -0.550000 15.99940
3559 OM 3559 OM OM1 3559 -0.550000 15.99940
3560 OM 3560 OM OM1 3560 -0.550000 15.99940
3561 OM 3561 OM OM1 3561 -0.550000 15.99940
3562 OM 3562 OM OM1 3562 -0.550000 15.99940
3563 OM 3563 OM OM1 3563 -0.550000 15.99940
3564 OM 3564 OM OM1 3564 -0.550000 15.99940
3565 OM 3565 OM OM1 3565 -0.550000 15.99940
3566 OM 3566 OM OM1 3566 -0.550000 15.99940
3567 OM 3567 OM OM1 3567 -0.550000 15.99940
3568 OM 3568 OM OM1 3568 -0.550000 15.99940
3569 OM 3569 OM OM1 3569 -0.550000 15.99940
3570 OM 3570 OM OM1 3570 -0.550000 15.99940
3571 OM 3571 OM OM1 3571 -0.550000 15.99940
3572 OM 3572 OM OM1 3572 -0.550000 15.99940
3573 OM 3573 OM OM1 3573 -0.550000 15.99940
3574 OM 3574 OM OM1 3574 -0.550000 15.99940
3575 OM 3575 OM OM1 3575 -0.550000 15.99940
3576 OM 3576 OM OM1 3576 -0.550000 15.99940
3577 OM 3577 OM OM1 3577 -0.550000 15.99940
3578 OM 3578 OM OM1 3578 -0.550000 15.99940
3579 OM 3579 OM OM1 3579 -0.550000 15.99940
3580 OM 3580 OM OM1 3580 -0.550000 15.99940
3581 OM 3581 OM OM1 3581 -0.550000 15.99940
3582 OM 3582 OM OM1 3582 -0.550000 15.99940
3583 OM 3583 OM OM1 3583 -0.550000 15.99940
3584 OM 3584 OM OM1 3584 -0.550000 15.99940
3585 OM 3585 OM OM1 3585 -0.550000 15.99940
3586 OM 3586 OM OM1 3586 -0.550000 15.99940
3587 OM 3587 OM OM1 3587 -0.550000 15.99940
3588 OM 3588 OM OM1 3588 -0.550000 15.99940
3589 OM 3589 OM OM1 3589 -0.550000 15.99940
3590 OM 3590 OM OM1 3590 -0.550000 15.99940
3591 OM 3591 OM OM1 3591 -0.550000 15.99940
3592 OM 3592 OM OM1 3592 -0.550000 15.99940
3593 OM 3593 OM OM1 3593 -0.550000 15.99940
3594 OM 3594 OM OM1 3594 -0.550000 15.99940
3595 OM 3595 OM OM1 3595 -0.550000 15.99940
3596 OM 3596 OM OM1 3596 -0.550000 15.99940
3597 OM 3597 OM OM1 3597 -0.550000 15.99940
3598 OM 3598 OM OM1 3598 -0.550000 15.99940
3599 OM 3599 OM OM1 3599 -0.550000 15.99940
3600 OM 3600 OM OM1 3600 -0.550000 15.99940
3601 OM 3601 OM OM1 3601 -0.550000 15.99940
3602 OM 3602 OM OM1 3602 -0.550000 15.99940
3603 OM 3603 OM OM1 3603 -0.550000 15.99940
3604 OM 3604 OM OM1 3604 -0.550000 15.99940
3605 OM 3605 OM OM1 3605 -0.550000 15.99940
3606 OM 3606 OM OM1 3606 -0.550000 15.99940
3607 OM 3607 OM OM1 3607 -0.550000 15.99940
3608 OM 3608 OM OM1 3608 -0.550000 15.99940
3609 OM 3609 OM OM1 3609 -0.550000 15.99940
3610 OM 3610 OM OM1 3610 -0.550000 15.99940
3611 OM 3611 OM OM1 3611 -0.550000 15.99940
3612 OM 3612 OM OM1 3612 -0.550000 15.99940
3613 OM 3613 OM OM1 3613 -0.550000 15.99940
3614 OM 3614 OM OM1 3614 -0.550000 15.99940
3615 OM 3615 OM OM1 3615 -0.550000 15.99940
3616 OM 3616 OM OM1 3616 -0.550000 15.99940
3617 OM 3617 OM OM1 3617 -0.550000 15.99940
3618 OM 3618 OM OM1 3618 -0.550000 15.99940
3619 OM 3619 OM OM1 3619 -0.550000 15.99940
3620 OM 3620 OM OM1 3620 -0.550000 15.99940
3621 OM 3621 OM OM1 3621 -0.550000 15.99940
3622 OM 3622 OM OM1 3622 -0.550000 15.99940
3623 OM 3623 OM OM1 3623 -0.550000 15.99940
3624 OM 3624 OM OM1 3624 -0.550000 15.99940
3625 OM 3625 OM OM1 3625 -0.550000 15.99940
3626 OM 3626 OM OM1 3626 -0.550000 15.99940
3627 OM 3627 OM OM1 3627 -0.550000 15.99940
3628 OM 3628 OM OM1 3628 -0.550000 15.99940
3629 OM 3629 OM OM1 3629 -0.550000 15.99940
3630 OM 3630 OM OM1 3630 -0.550000 15.99940
3631 OM 3631 OM OM1 3631 -0.550000 15.99940
3632 OM 3632 OM OM1 3632 -0.550000 15.99940
3633 OM 3633 OM OM1 3633 -0.550000 15.99940
3634 OM 3634 OM OM1 3634 -0.550000 15.99940
3635 OM 3635 OM OM1 3635 -0.550000 15.99940
3636 OM 3636 OM OM1 3636 -0.550000 15.99940
3637 OM 3637 OM OM1 3637 -0.550000 15.99940
3638 OM 3638 OM OM1 3638 -0.550000 15.99940
3639 OM 3639 OM OM1 3639 -0.550000 15.99940
3640 OM 3640 OM OM1 3640 -0.550000 15.99940
3641 OM 3641 OM OM1 3641 -0.550000 15.99940
3642 OM 3642 OM OM1 3642 -0.550000 15.99940
3643 OM 3643 OM OM1 3643 -0.550000 15.99940
3644 OM 3644 OM OM1 3644 -0.550000 15.99940
3645 OM 3645 OM OM1 3645 -0.550000 15.99940
3646 OM 3646 OM OM1 3646 -0.550000 15.99940
3647 OM 3647 OM OM1 3647 -0.550000 15.99940
3648 OM 3648 OM OM1 3648 -0.550000 15.99940
3649 OM 3649 OM OM1 3649 -0.550000 15.99940
3650 OM 3650 OM OM1 3650 -0.550000 15.99940
3651 OM 3651 OM OM1 3651 -0.550000 15.99940
3652 OM 3652 OM OM1 3652 -0.550000 15.99940
3653 OM 3653 OM OM1 3653 -0.550000 15.99940
3654 OM 3654 OM OM1 3654 -0.550000 15.99940
3655 OM 3655 OM OM1 3655 -0.550000 15.99940
3656 OM 3656 OM OM1 3656 -0.550000 15.99940
3657 OM 3657 OM OM1 3657 -0.550000 15.99940
3658 OM 3658 OM OM1 3658 -0.550000 15.99940
3659 OM 3659 OM OM1 3659 -0.550000 15.99940
3660 OM 3660 OM OM1 3660 -0.550000 15.99940
3661 OM 3661 OM OM1 3661 -0.550000 15.99940
3662 OM 3662 OM OM1 3662 -0.550000 15.99940
3663 OM 3663 OM OM1 3663 -0.550000 15.99940
3664 OM 3664 OM OM1 3664 -0.550000 15.99940
3665 OM 3665 OM OM1 3665 -0.550000 15.99940
3666 OM 3666 OM OM1 3666 -0.550000 15.99940
3667 OM 3667 OM OM1 3667 -0.550000 15.99940
3668 OM 3668 OM OM1 3668 -0.550000 15.99940
3669 OM 3669 OM OM1 3669 -0.550000 15.99940
3670 OM 3670 OM OM1 3670 -0.550000 15.99940
3671 OM 3671 OM OM1 3671 -0.550000 15.99940
3672 OM 3672 OM OM1 3672 -0.550000 15.99940
3673 OM 3673 OM OM1 3673 -0.550000 15.99940
3674 OM 3674 OM OM1 3674 -0.550000 15.99940
3675 OM 3675 OM OM1 3675 -0.550000 15.99940
3676 OM 3676 OM OM1 3676 -0.550000 15.99940
3677 OM 3677 OM OM1 3677 -0.550000 15.99940
3678 OM 3678 OM OM1 3678 -0.550000 15.99940
3679 OM 3679 OM OM1 3679 -0.550000 15.99940
3680 OM 3680 OM OM1 3680 -0.550000 15.99940
3681 OM 3681 OM OM1 3681 -0.550000 15.99940
3682 OM 3682 OM OM1 3682 -0.550000 15.99940
3683 OM 3683 OM OM1 3683 -0.550000 15.99940
3684 OM 3684 OM OM1 3684 -0.550000 15.99940
3685 OM 3685 OM OM1 3685 -0.550000 15.99940
3686 OM 3686 OM OM1 3686 -0.550000 15.99940
3687 OM 3687 OM OM1 3687 -0.550000 15.99940
3688 OM 3688 OM OM1 3688 -0.550000 15.99940
3689 OM 3689 OM OM1 3689 -0.550000 15.99940
3690 OM 3690 OM OM1 3690 -0.550000 15.99940
3691 OM 3691 OM OM1 3691 -0.550000 15.99940
3692 OM 3692 OM OM1 3692 -0.550000 15.99940
3693 OM 3693 OM OM1 3693 -0.550000 15.99940
3694 OM 3694 OM OM1 3694 -0.550000 15.99940
3695 OM 3695 OM OM1 3695 -0.550000 15.99940
3696 OM 3696 OM OM1 3696 -0.550000 15.99940
3697 OM 3697 OM OM1 3697 -0.550000 15.99940
3698 OM 3698 OM OM1 3698 -0.550000 15.99940
3699 OM 3699 OM OM1 3699 -0.550000 15.99940
3700 OM 3700 OM OM1 3700 -0.550000 15.99940
3701 OM 3701 OM OM1 3701 -0.550000 15.99940
3702 OM 3702 OM OM1 3702 -0.550000 15.99940
3703 OM 3703 OM OM1 3703 -0.550000 15.99940
3704 OM 3704 OM OM1 3704 -0.550000 15.99940
3705 OM 3705 OM OM1 3705 -0.550000 15.99940
3706 OM 3706 OM OM1 3706 -0.550000 15.99940
3707 OM 3707 OM OM1 3707 -0.550000 15.99940
3708 OM 3708 OM OM1 3708 -0.550000 15.99940
3709 OM 3709 OM OM1 3709 -0.550000 15.99940
3710 OM 3710 OM OM1 3710 -0.550000 15.99940
3711 OM 3711 OM OM1 3711 -0.550000 15.99940
3712 OM 3712 OM OM1 3712 -0.550000 15.99940
3713 OM 3713 OM OM1 3713 -0.550000 15.99940
3714 OM 3714 OM OM1 3714 -0.550000 15.99940
3715 OM 3715 OM OM1 3715 -0.550000 15.99940
3716 OM 3716 OM OM1 3716 -0.550000 15.99940
3717 OM 3717 OM OM1 3717 -0.550000 15.99940
3718 OM 3718 OM OM1 3718 -0.550000 15.99940
3719 OM 3719 OM OM1 3719 -0.550000 15.99940
3720 OM 3720 OM OM1 3720 -0.550000 15.99940
3721 OM 3721 OM OM1 3721 -0.550000 15.99940
3722 OM 3722 OM OM1 3722 -0.550000 15.99940
3723 OM 3723 OM OM1 3723 -0.550000 15.99940
3724 OM 3724 OM OM1 3724 -0.550000 15.99940
3725 OM 3725 OM OM1 3725 -0.550000 15.99940
3726 OM 3726 OM OM1 3726 -0.550000 15.99940
3727 OM 3727 OM OM1 3727 -0.550000 15.99940
3728 OM 3728 OM OM1 3728 -0.550000 15.99940
3729 OM 3729 OM OM1 3729 -0.550000 15.99940
3730 OM 3730 OM OM1 3730 -0.550000 15.99940
3731 OM 3731 OM OM1 3731 -0.550000 15.99940
3732 OM 3732 OM OM1 3732 -0.550000 15.99940
3733 OM 3733 OM OM1 3733 -0.550000 15.99940
3734 OM 3734 OM OM1 3734 -0.550000 15.99940
3735 OM 3735 OM OM1 3735 -0.550000 15.99940
3736 OM 3736 OM OM1 3736 -0.550000 15.99940
3737 OM 3737 OM OM1 3737 -0.550000 15.99940
3738 OM 3738 OM OM1 3738 -0.550000 15.99940
3739 OM 3739 OM OM1 3739 -0.550000 15.99940
3740 OM 3740 OM OM1 3740 -0.550000 15.99940
3741 OM 3741 OM OM1 3741 -0.550000 15.99940
3742 OM 3742 OM OM1 3742 -0.550000 15.99940
3743 OM 3743 OM OM1 3743 -0.550000 15.99940
3744 OM 3744 OM OM1 3744 -0.550000 15.99940
3745 OM 3745 OM OM1 3745 -0.550000 15.99940
3746 OM 3746 OM OM1 3746 -0.550000 15.99940
3747 OM 3747 OM OM1 3747 -0.550000 15.99940
3748 OM 3748 OM OM1 3748 -0.550000 15.99940
3749 OM 3749 OM OM1 3749 -0.550000 15.99940
3750 OM 3750 OM OM1 3750 -0.550000 15.99940
3751 OM 3751 OM OM1 3751 -0.550000 15.99940
3752 OM 3752 OM OM1 3752 -0.550000 15.99940
3753 OM 3753 OM OM1 3753 -0.550000 15.99940
3754 OM 3754 OM OM1 3754 -0.550000 15.99940
3755 OM 3755 OM OM1 3755 -0.550000 15.99940
3756 OM 3756 OM OM1 3756 -0.550000 15.99940
3757 OM 3757 OM OM1 3757 -0.550000 15.99940
3758 OM 3758 OM OM1 3758 -0.550000 15.99940
3759 OM 3759 OM OM1 3759 -0.550000 15.99940
3760 OM 3760 OM OM1 3760 -0.550000 15.99940
3761 OM 3761 OM OM1 3761 -0.550000 15.99940
3762 OM 3762 OM OM1 3762 -0.550000 15.99940
3763 OM 3763 OM OM1 3763 -0.550000 15.99940
3764 OM 3764 OM OM1 3764 -0.550000 15.99940
3765 OM 3765 OM OM1 3765 -0.550000 15.99940
3766 OM 3766 OM OM1 3766 -0.550000 15.99940
3767 OM 3767 OM OM1 3767 -0.550000 15.99940
3768 OM 3768 OM OM1 3768 -0.550000 15.99940
3769 OM 3769 OM OM1 3769 -0.550000 15.99940
3770 OM 3770 OM OM1 3770 -0.550000 15.99940
3771 OM 3771 OM OM1 3771 -0.550000 15.99940
3772 OM 3772 OM OM1 3772 -0.550000 15.99940
3773 OM 3773 OM OM1 3773 -0.550000 15.99940
3774 OM 3774 OM OM1 3774 -0.550000 15.99940
3775 OM 3775 OM OM1 3775 -0.550000 15.99940
3776 OM 3776 OM OM1 3776 -0.550000 15.99940
3777 OM 3777 OM OM1 3777 -0.550000 15.99940
3778 OM 3778 OM OM1 3778 -0.550000 15.99940
3779 OM 3779 OM OM1 3779 -0.550000 15.99940
3780 OM 3780 OM OM1 3780 -0.550000 15.99940
3781 OM 3781 OM OM1 3781 -0.550000 15.99940
3782 OM 3782 OM OM1 3782 -0.550000 15.99940
3783 OM 3783 OM OM1 3783 -0.550000 15.99940
3784 OM 3784 OM OM1 3784 -0.550000 15.99940
3785 OM 3785 OM OM1 3785 -0.550000 15.99940
3786 OM 3786 OM OM1 3786 -0.550000 15.99940
3787 OM 3787 OM OM1 3787 -0.550000 15.99940
3788 OM 3788 OM OM1 3788 -0.550000 15.99940
3789 OM 3789 OM OM1 3789 -0.550000 15.99940
3790 OM 3790 OM OM1 3790 -0.550000 15.99940
3791 OM 3791 OM OM1 3791 -0.550000 15.99940
3792 OM 3792 OM OM1 3792 -0.550000 15.99940
3793 OM 3793 OM OM1 3793 -0.550000 15.99940
3794 OM 3794 OM OM1 3794 -0.550000 15.99940
3795 OM 3795 OM OM1 3795 -0.550000 15.99940
3796 OM 3796 OM OM1 3796 -0.550000 15.99940
3797 OM 3797 OM OM1 3797 -0.550000 15.99940
3798 OM 3798 OM OM1 3798 -0.550000 15.99940
3799 OM 3799 OM OM1 3799 -0.550000 15.99940
3800 OM 3800 OM OM1 3800 -0.550000 15.99940
3801 OM 3801 OM OM1 3801 -0.550000 15.99940
3802 OM 3802 OM OM1 3802 -0.550000 15.99940
3803 OM 3803 OM OM1 3803 -0.550000 15.99940
3804 OM 3804 OM OM1 3804 -0.550000 15.99940
3805 OM 3805 OM OM1 3805 -0.550000 15.99940
3806 OM 3806 OM OM1 3806 -0.550000 15.99940
3807 OM 3807 OM OM1 3807 -0.550000 15.99940
3808 OM 3808 OM OM1 3808 -0.550000 15.99940
3809 OM 3809 OM OM1 3809 -0.550000 15.99940
3810 OM 3810 OM OM1 3810 -0.550000 15.99940
3811 OM 3811 OM OM1 3811 -0.550000 15.99940
3812 OM 3812 OM OM1 3812 -0.550000 15.99940
3813 OM 3813 OM OM1 3813 -0.550000 15.99940
3814 OM 3814 OM OM1 3814 -0.550000 15.99940
3815 OM 3815 OM OM1 3815 -0.550000 15.99940
3816 OM 3816 OM OM1 3816 -0.550000 15.99940
3817 OM 3817 OM OM1 3817 -0.550000 15.99940
3818 OM 3818 OM OM1 3818 -0.550000 15.99940
3819 OM 3819 OM OM1 3819 -0.550000 15.99940
3820 OM 3820 OM OM1 3820 -0.550000 15.99940
3821 OM 3821 OM OM1 3821 -0.550000 15.99940
3822 OM 3822 OM OM1 3822 -0.550000 15.99940
3823 OM 3823 OM OM1 3823 -0.550000 15.99940
3824 OM 3824 OM OM1 3824 -0.550000 15.99940
3825 OM 3825 OM OM1 3825 -0.550000 15.99940
3826 OM 3826 OM OM1 3826 -0.550000 15.99940
3827 OM 3827 OM OM1 3827 -0.550000 15.99940
3828 OM 3828 OM OM1 3828 -0.550000 15.99940
3829 OM 3829 OM OM1 3829 -0.550000 15.99940
3830 OM 3830 OM OM1 3830 -0.550000 15.99940
3831 OM 3831 OM OM1 3831 -0.550000 15.99940
3832 OM 3832 OM OM1 3832 -0.550000 15.99940
3833 OM 3833 OM OM1 3833 -0.550000 15.99940
3834 OM 3834 OM OM1 3834 -0.550000 15.99940
3835 OM 3835 OM OM1 3835 -0.550000 15.99940
3836 OM 3836 OM OM1 3836 -0.550000 15.99940
3837 OM 3837 OM OM1 3837 -0.550000 15.99940
3838 OM 3838 OM OM1 3838 -0.550000 15.99940
3839 OM 3839 OM OM1 3839 -0.550000 15.99940
3840 OM 3840 OM OM1 3840 -0.550000 15.99940
3841 OM 3841 OM OM1 3841 -0.550000 15.99940
3842 OM 3842 OM OM1 3842 -0.550000 15.99940
3843 OM 3843 OM OM1 3843 -0.550000 15.99940
3844 OM 3844 OM OM1 3844 -0.550000 15.99940
3845 OM 3845 OM OM1 3845 -0.550000 15.99940
3846 OM 3846 OM OM1 3846 -0.550000 15.99940
3847 OM 3847 OM OM1 3847 -0.550000 15.99940
3848 OM 3848 OM OM1 3848 -0.550000 15.99940
3849 OM 3849 OM OM1 3849 -0.550000 15.99940
3850 OM 3850 OM OM1 3850 -0.550000 15.99940
3851 OM 3851 OM OM1 3851 -0.550000 15.99940
3852 OM 3852 OM OM1 3852 -0.550000 15.99940
3853 OM 3853 OM OM1 3853 -0.550000 15.99940
3854 OM 3854 OM OM1 3854 -0.550000 15.99940
3855 OM 3855 OM OM1 3855 -0.550000 15.99940
3856 OM 3856 OM OM1 3856 -0.550000 15.99940
3857 OM 3857 OM OM1 3857 -0.550000 15.99940
3858 OM 3858 OM OM1 3858 -0.550000 15.99940
3859 OM 3859 OM OM1 3859 -0.550000 15.99940
3860 OM 3860 OM OM1 3860 -0.550000 15.99940
3861 OM 3861 OM OM1 3861 -0.550000 15.99940
3862 OM 3862 OM OM1 3862 -0.550000 15.99940
3863 OM 3863 OM OM1 3863 -0.550000 15.99940
3864 OM 3864 OM OM1 3864 -0.550000 15.99940
3865 OM 3865 OM OM1 3865 -0.550000 15.99940
3866 OM 3866 OM OM1 3866 -0.550000 15.99940
3867 OM 3867 OM OM1 3867 -0.550000 15.99940
3868 OM 3868 OM OM1 3868 -0.550000 15.99940
3869 OM 3869 OM OM1 3869 -0.550000 15.99940
3870 OM 3870 OM OM1 3870 -0.550000 15.99940
3871 OM 3871 OM OM1 3871 -0.550000 15.99940
3872 OM 3872 OM OM1 3872 -0.550000 15.99940
3873 OM 3873 OM OM1 3873 -0.550000 15.99940
3874 OM 3874 OM OM1 3874 -0.550000 15.99940
3875 OM 3875 OM OM1 3875 -0.550000 15.99940
3876 OM 3876 OM OM1 3876 -0.550000 15.99940
3877 OM 3877 OM OM1 3877 -0.550000 15.99940
3878 OM 3878 OM OM1 3878 -0.550000 15.99940
3879 OM 3879 OM OM1 3879 -0.550000 15.99940
3880 OM 3880 OM OM1 3880 -0.550000 15.99940
3881 OM 3881 OM OM1 3881 -0.550000 15.99940
3882 OM 3882 OM OM1 3882 -0.550000 15.99940
3883 OM 3883 OM OM1 3883 -0.550000 15.99940
3884 OM 3884 OM OM1 3884 -0.550000 15.99940
3885 OM 3885 OM OM1 3885 -0.550000 15.99940
3886 OM 3886 OM OM1 3886 -0.550000 15.99940
3887 OM 3887 OM OM1 3887 -0.550000 15.99940
3888 OM 3888 OM OM1 3888 -0.550000 15.99940
3889 OM 3889 OM OM1 3889 -0.550000 15.99940
3890 OM 3890 OM OM1 3890 -0.550000 15.99940
3891 OM 3891 OM OM1 3891 -0.550000 15.99940
3892 OM 3892 OM OM1 3892 -0.550000 15.99940
3893 OM 3893 OM OM1 3893 -0.550000 15.99940
3894 OM 3894 OM OM1 3894 -0.550000 15.99940
3895 OM 3895 OM OM1 3895 -0.550000 15.99940
3896 OM 3896 OM OM1 3896 -0.550000 15.99940
3897 OM 3897 OM OM1 3897 -0.550000 15.99940
3898 OM 3898 OM OM1 3898 -0.550000 15.99940
3899 OM 3899 OM OM1 3899 -0.550000 15.99940
3900 OM 3900 OM OM1 3900 -0.550000 15.99940
3901 OM 3901 OM OM1 3901 -0.550000 15.99940
3902 OM 3902 OM OM1 3902 -0.550000 15.99940
3903 OM 3903 OM OM1 3903 -0.550000 15.99940
3904 OM 3904 OM OM1 3904 -0.550000 15.99940
3905 OM 3905 OM OM1 3905 -0.550000 15.99940
3906 OM 3906 OM OM1 3906 -0.550000 15.99940
3907 OM 3907 OM OM1 3907 -0.550000 15.99940
3908 OM 3908 OM OM1 3908 -0.550000 15.99940
3909 OM 3909 OM OM1 3909 -0.550000 15.99940
3910 OM 3910 OM OM1 3910 -0.550000 15.99940
3911 OM 3911 OM OM1 3911 -0.550000 15.99940
3912 OM 3912 OM OM1 3912 -0.550000 15.99940
3913 OM 3913 OM OM1 3913 -0.550000 15.99940
3914 OM 3914 OM OM1 3914 -0.550000 15.99940
3915 OM 3915 OM OM1 3915 -0.550000 15.99940
3916 OM 3916 OM OM1 3916 -0.550000 15.99940
3917 OM 3917 OM OM1 3917 -0.550000 15.99940
3918 OM 3918 OM OM1 3918 -0.550000 15.99940
3919 OM 3919 OM OM1 3919 -0.550000 15.99940
3920 OM 3920 OM OM1 3920 -0.550000 15.99940
3921 OM 3921 OM OM1 3921 -0.550000 15.99940
3922 OM 3922 OM OM1 3922 -0.550000 15.99940
3923 OM 3923 OM OM1 3923 -0.550000 15.99940
3924 OM 3924 OM OM1 3924 -0.550000 15.99940
3925 OM 3925 OM OM1 3925 -0.550000 15.99940
3926 OM 3926 OM OM1 3926 -0.550000 15.99940
3927 OM 3927 OM OM1 3927 -0.550000 15.99940
3928 OM 3928 OM OM1 3928 -0.550000 15.99940
3929 OM 3929 OM OM1 3929 -0.550000 15.99940
3930 OM 3930 OM OM1 3930 -0.550000 15.99940
3931 OM 3931 OM OM1 3931 -0.550000 15.99940
3932 OM 3932 OM OM1 3932 -0.550000 15.99940
3933 OM 3933 OM OM1 3933 -0.550000 15.99940
3934 OM 3934 OM OM1 3934 -0.550000 15.99940
3935 OM 3935 OM OM1 3935 -0.550000 15.99940
3936 OM 3936 OM OM1 3936 -0.550000 15.99940
3937 OM 3937 OM OM1 3937 -0.550000 15.99940
3938 OM 3938 OM OM1 3938 -0.550000 15.99940
3939 OM 3939 OM OM1 3939 -0.550000 15.99940
3940 OM 3940 OM OM1 3940 -0.550000 15.99940
3941 OM 3941 OM OM1 3941 -0.550000 15.99940
3942 OM 3942 OM OM1 3942 -0.550000 15.99940
3943 OM 3943 OM OM1 3943 -0.550000 15.99940
3944 OM 3944 OM OM1 3944 -0.550000 15.99940
3945 OM 3945 OM OM1 3945 -0.550000 15.99940
3946 OM 3946 OM OM1 3946 -0.550000 15.99940
3947 OM 3947 OM OM1 3947 -0.550000 15.99940
3948 OM 3948 OM OM1 3948 -0.550000 15.99940
3949 OM 3949 OM OM1 3949 -0.550000 15.99940
3950 OM 3950 OM OM1 3950 -0.550000 15.99940
3951 OM 3951 OM OM1 3951 -0.550000 15.99940
3952 OM 3952 OM OM1 3952 -0.550000 15.99940
3953 OM 3953 OM OM1 3953 -0.550000 15.99940
3954 OM 3954 OM OM1 3954 -0.550000 15.99940
3955 OM 3955 OM OM1 3955 -0.550000 15.99940
3956 OM 3956 OM OM1 3956 -0.550000 15.99940
3957 OM 3957 OM OM1 3957 -0.550000 15.99940
3958 OM 3958 OM OM1 3958 -0.550000 15.99940
3959 OM 3959 OM OM1 3959 -0.550000 15.99940
3960 OM 3960 OM OM1 3960 -0.550000 15.99940
3961 OM 3961 OM OM1 3961 -0.550000 15.99940
3962 OM 3962 OM OM1 3962 -0.550000 15.99940
3963 OM 3963 OM OM1 3963 -0.550000 15.99940
3964 OM 3964 OM OM1 3964 -0.550000 15.99940
3965 OM 3965 OM OM1 3965 -0.550000 15.99940
3966 OM 3966 OM OM1 3966 -0.550000 15.99940
3967 OM 3967 OM OM1 3967 -0.550000 15.99940
3968 OM 3968 OM OM1 3968 -0.550000 15.99940
3969 OM 3969 OM OM1 3969 -0.550000 15.99940
3970 OM 3970 OM OM1 3970 -0.550000 15.99940
3971 OM 3971 OM OM1 3971 -0.550000 15.99940
3972 OM 3972 OM OM1 3972 -0.550000 15.99940
3973 OM 3973 OM OM1 3973 -0.550000 15.99940
3974 OM 3974 OM OM1 3974 -0.550000 15.99940
3975 OM 3975 OM OM1 3975 -0.550000 15.99940
3976 OM 3976 OM OM1 3976 -0.550000 15.99940
3977 OM 3977 OM OM1 3977 -0.550000 15.99940
3978 OM 3978 OM OM1 3978 -0.550000 15.99940
3979 OM 3979 OM OM1 3979 -0.550000 15.99940
3980 OM 3980 OM OM1 3980 -0.550000 15.99940
3981 OM 3981 OM OM1 3981 -0.550000 15.99940
3982 OM 3982 OM OM1 3982 -0.550000 15.99940
3983 OM 3983 OM OM1 3983 -0.550000 15.99940
3984 OM 3984 OM OM1 3984 -0.550000 15.99940
3985 OM 3985 OM OM1 3985 -0.550000 15.99940
3986 OM 3986 OM OM1 3986 -0.550000 15.99940
3987 OM 3987 OM OM1 3987 -0.550000 15.99940
3988 OM 3988 OM OM1 3988 -0.550000 15.99940
3989 OM 3989 OM OM1 3989 -0.550000 15.99940
3990 OM 3990 OM OM1 3990 -0.550000 15.99940
3991 OM 3991 OM OM1 3991 -0.550000 15.99940
3992 OM 3992 OM OM1 3992 -0.550000 15.99940
3993 OM 3993 OM OM1 3993 -0.550000 15.99940
3994 OM 3994 OM OM1 3994 -0.550000 15.99940
3995 OM 3995 OM OM1 3995 -0.550000 15.99940
3996 OM 3996 OM OM1 3996 -0.550000 15.99940
3997 OM 3997 OM OM1 3997 -0.550000 15.99940
3998 OM 3998 OM OM1 3998 -0.550000 15.99940
3999 OM 3999 OM OM1 3999 -0.550000 15.99940
4000 OM 4000 OM OM1 4000 -0.550000 15.99940
4001 OM 4001 OM OM1 4001 -0.550000 15.99940
4002 OM 4002 OM OM1 4002 -0.550000 15.99940
4003 OM 4003 OM OM1 4003 -0.550000 15.99940
4004 OM 4004 OM OM1 4004 -0.550000 15.99940
4005 OM 4005 OM OM1 4005 -0.550000 15.99940
4006 OM 4006 OM OM1 4006 -0.550000 15.99940
4007 OM 4007 OM OM1 4007 -0.550000 15.99940
4008 OM 4008 OM OM1 4008 -0.550000 15.99940
4009 OM 4009 OM OM1 4009 -0.550000 15.99940
4010 OM 4010 OM OM1 4010 -0.550000 15.99940
4011 OM 4011 OM OM1 4011 -0.550000 15.99940
4012 OM 4012 OM OM1 4012 -0.550000 15.99940
4013 OM 4013 OM OM1 4013 -0.550000 15.99940
4014 OM 4014 OM OM1 4014 -0.550000 15.99940
4015 OM 4015 OM OM1 4015 -0.550000 15.99940
4016 OM 4016 OM OM1 4016 -0.550000 15.99940
4017 OM 4017 OM OM1 4017 -0.550000 15.99940
4018 OM 4018 OM OM1 4018 -0.550000 15.99940
4019 OM 4019 OM OM1 4019 -0.550000 15.99940
4020 OM 4020 OM OM1 4020 -0.550000 15.99940
4021 OM 4021 OM OM1 4021 -0.550000 15.99940
4022 OM 4022 OM OM1 4022 -0.550000 15.99940
4023 OM 4023 OM OM1 4023 -0.550000 15.99940
4024 OM 4024 OM OM1 4024 -0.550000 15.99940
4025 OM 4025 OM OM1 4025 -0.550000 15.99940
4026 OM 4026 OM OM1 4026 -0.550000 15.99940
4027 OM 4027 OM OM1 4027 -0.550000 15.99940
4028 OM 4028 OM OM1 4028 -0.550000 15.99940
4029 OM 4029 OM OM1 4029 -0.550000 15.99940
4030 OM 4030 OM OM1 4030 -0.550000 15.99940
4031 OM 4031 OM OM1 4031 -0.550000 15.99940
4032 OM 4032 OM OM1 4032 -0.550000 15.99940
4033 OM 4033 OM OM1 4033 -0.550000 15.99940
4034 OM 4034 OM OM1 4034 -0.550000 15.99940
4035 OM 4035 OM OM1 4035 -0.550000 15.99940
4036 OM 4036 OM OM1 4036 -0.550000 15.99940
4037 OM 4037 OM OM1 4037 -0.550000 15.99940
4038 OM 4038 OM OM1 4038 -0.550000 15.99940
4039 OM 4039 OM OM1 4039 -0.550000 15.99940
4040 OM 4040 OM OM1 4040 -0.550000 15.99940
4041 OM 4041 OM OM1 4041 -0.550000 15.99940
4042 OM 4042 OM OM1 4042 -0.550000 15.99940
4043 OM 4043 OM OM1 4043 -0.550000 15.99940
4044 OM 4044 OM OM1 4044 -0.550000 15.99940
4045 OM 4045 OM OM1 4045 -0.550000 15.99940
4046 OM 4046 OM OM1 4046 -0.550000 15.99940
4047 OM 4047 OM OM1 4047 -0.550000 15.99940
4048 OM 4048 OM OM1 4048 -0.550000 15.99940
4049 OM 4049 OM OM1 4049 -0.550000 15.99940
4050 OM 4050 OM OM1 4050 -0.550000 15.99940
4051 OM 4051 OM OM1 4051 -0.550000 15.99940
4052 OM 4052 OM OM1 4052 -0.550000 15.99940
4053 OM 4053 OM OM1 4053 -0.550000 15.99940
4054 OM 4054 OM OM1 4054 -0.550000 15.99940
4055 OM 4055 OM OM1 4055 -0.550000 15.99940
4056 OM 4056 OM OM1 4056 -0.550000 15.99940
4057 OM 4057 OM OM1 4057 -0.550000 15.99940
4058 OM 4058 OM OM1 4058 -0.550000 15.99940
4059 OM 4059 OM OM1 4059 -0.550000 15.99940
4060 OM 4060 OM OM1 4060 -0.550000 15.99940
4061 OM 4061 OM OM1 4061 -0.550000 15.99940
4062 OM 4062 OM OM1 4062 -0.550000 15.99940
4063 OM 4063 OM OM1 4063 -0.550000 15.99940
4064 OM 4064 OM OM1 4064 -0.550000 15.99940
4065 OM 4065 OM OM1 4065 -0.550000 15.99940
4066 OM 4066 OM OM1 4066 -0.550000 15.99940
4067 OM 4067 OM OM1 4067 -0.550000 15.99940
4068 OM 4068 OM OM1 4068 -0.550000 15.99940
4069 OM 4069 OM OM1 4069 -0.550000 15.99940
4070 OM 4070 OM OM1 4070 -0.550000 15.99940
4071 OM 4071 OM OM1 4071 -0.550000 15.99940
4072 OM 4072 OM OM1 4072 -0.550000 15.99940
4073 OM 4073 OM OM1 4073 -0.550000 15.99940
4074 OM 4074 OM OM1 4074 -0.550000 15.99940
4075 OM 4075 OM OM1 4075 -0.550000 15.99940
4076 OM 4076 OM OM1 4076 -0.550000 15.99940
4077 OM 4077 OM OM1 4077 -0.550000 15.99940
4078 OM 4078 OM OM1 4078 -0.550000 15.99940
4079 OM 4079 OM OM1 4079 -0.550000 15.99940
4080 OM 4080 OM OM1 4080 -0.550000 15.99940
4081 OM 4081 OM OM1 4081 -0.550000 15.99940
4082 OM 4082 OM OM1 4082 -0.550000 15.99940
4083 OM 4083 OM OM1 4083 -0.550000 15.99940
4084 OM 4084 OM OM1 4084 -0.550000 15.99940
4085 OM 4085 OM OM1 4085 -0.550000 15.99940
4086 OM 4086 OM OM1 4086 -0.550000 15.99940
4087 OM 4087 OM OM1 4087 -0.550000 15.99940
4088 OM 4088 OM OM1 4088 -0.550000 15.99940
4089 OM 4089 OM OM1 4089 -0.550000 15.99940
4090 OM 4090 OM OM1 4090 -0.550000 15.99940
4091 OM 4091 OM OM1 4091 -0.550000 15.99940
4092 OM 4092 OM OM1 4092 -0.550000 15.99940
4093 OM 4093 OM OM1 4093 -0.550000 15.99940
4094 OM 4094 OM OM1 4094 -0.550000 15.99940
4095 OM 4095 OM OM1 4095 -0.550000 15.99940
4096 OM 4096 OM OM1 4096 -0.550000 15.99940
4097 OM 4097 OM OM1 4097 -0.550000 15.99940
4098 OM 4098 OM OM1 4098 -0.550000 15.99940
4099 OM 4099 OM OM1 4099 -0.550000 15.99940
4100 OM 4100 OM OM1 4100 -0.550000 15.99940
4101 OM 4101 OM OM1 4101 -0.550000 15.99940
4102 OM 4102 OM OM1 4102 -0.550000 15.99940
4103 OM 4103 OM OM1 4103 -0.550000 15.99940
4104 OM 4104 OM OM1 4104 -0.550000 15.99940
4105 OM 4105 OM OM1 4105 -0.550000 15.99940
4106 OM 4106 OM OM1 4106 -0.550000 15.99940
4107 OM 4107 OM OM1 4107 -0.550000 15.99940
4108 OM 4108 OM OM1 4108 -0.550000 15.99940
4109 OM 4109 OM OM1 4109 -0.550000 15.99940
4110 OM 4110 OM OM1 4110 -0.550000 15.99940
4111 OM 4111 OM OM1 4111 -0.550000 15.99940
4112 OM 4112 OM OM1 4112 -0.550000 15.99940
4113 OM 4113 OM OM1 4113 -0.550000 15.99940
4114 OM 4114 OM OM1 4114 -0.550000 15.99940
4115 OM 4115 OM OM1 4115 -0.550000 15.99940
4116 OM 4116 OM OM1 4116 -0.550000 15.99940
4117 OM 4117 OM OM1 4117 -0.550000 15.99940
4118 OM 4118 OM OM1 4118 -0.550000 15.99940
4119 OM 4119 OM OM1 4119 -0.550000 15.99940
4120 OM 4120 OM OM1 4120 -0.550000 15.99940
4121 OM 4121 OM OM1 4121 -0.550000 15.99940
4122 OM 4122 OM OM1 4122 -0.550000 15.99940
4123 OM 4123 OM OM1 4123 -0.550000 15.99940
4124 OM 4124 OM OM1 4124 -0.550000 15.99940
4125 OM 4125 OM OM1 4125 -0.550000 15.99940
4126 OM 4126 OM OM1 4126 -0.550000 15.99940
4127 OM 4127 OM OM1 4127 -0.550000 15.99940
4128 OM 4128 OM OM1 4128 -0.550000 15.99940
4129 OM 4129 OM OM1 4129 -0.550000 15.99940
4130 OM 4130 OM OM1 4130 -0.550000 15.99940
4131 OM 4131 OM OM1 4131 -0.550000 15.99940
4132 OM 4132 OM OM1 4132 -0.550000 15.99940
4133 OM 4133 OM OM1 4133 -0.550000 15.99940
4134 OM 4134 OM OM1 4134 -0.550000 15.99940
4135 OM 4135 OM OM1 4135 -0.550000 15.99940
4136 OM 4136 OM OM1 4136 -0.550000 15.99940
4137 OM 4137 OM OM1 4137 -0.550000 15.99940
4138 OM 4138 OM OM1 4138 -0.550000 15.99940
4139 OM 4139 OM OM1 4139 -0.550000 15.99940
4140 OM 4140 OM OM1 4140 -0.550000 15.99940
4141 OM 4141 OM OM1 4141 -0.550000 15.99940
4142 OM 4142 OM OM1 4142 -0.550000 15.99940
4143 OM 4143 OM OM1 4143 -0.550000 15.99940
4144 OM 4144 OM OM1 4144 -0.550000 15.99940
4145 OM 4145 OM OM1 4145 -0.550000 15.99940
4146 OM 4146 OM OM1 4146 -0.550000 15.99940
4147 OM 4147 OM OM1 4147 -0.550000 15.99940
4148 OM 4148 OM OM1 4148 -0.550000 15.99940
4149 OM 4149 OM OM1 4149 -0.550000 15.99940
4150 OM 4150 OM OM1 4150 -0.550000 15.99940
4151 OM 4151 OM OM1 4151 -0.550000 15.99940
4152 OM 4152 OM OM1 4152 -0.550000 15.99940
4153 OM 4153 OM OM1 4153 -0.550000 15.99940
4154 OM 4154 OM OM1 4154 -0.550000 15.99940
4155 OM 4155 OM OM1 4155 -0.550000 15.99940
4156 OM 4156 OM OM1 4156 -0.550000 15.99940
4157 OM 4157 OM OM1 4157 -0.550000 15.99940
4158 OM 4158 OM OM1 4158 -0.550000 15.99940
4159 OM 4159 OM OM1 4159 -0.550000 15.99940
4160 OM 4160 OM OM1 4160 -0.550000 15.99940
4161 OM 4161 OM OM1 4161 -0.550000 15.99940
4162 OM 4162 OM OM1 4162 -0.550000 15.99940
4163 OM 4163 OM OM1 4163 -0.550000 15.99940
4164 OM 4164 OM OM1 4164 -0.550000 15.99940
4165 OM 4165 OM OM1 4165 -0.550000 15.99940
4166 OM 4166 OM OM1 4166 -0.550000 15.99940
4167 OM 4167 OM OM1 4167 -0.550000 15.99940
4168 OM 4168 OM OM1 4168 -0.550000 15.99940
4169 OM 4169 OM OM1 4169 -0.550000 15.99940
4170 OM 4170 OM OM1 4170 -0.550000 15.99940
4171 OM 4171 OM OM1 4171 -0.550000 15.99940
4172 OM 4172 OM OM1 4172 -0.550000 15.99940
4173 OM 4173 OM OM1 4173 -0.550000 15.99940
4174 OM 4174 OM OM1 4174 -0.550000 15.99940
4175 OM 4175 OM OM1 4175 -0.550000 15.99940
4176 OM 4176 OM OM1 4176 -0.550000 15.99940
4177 OM 4177 OM OM1 4177 -0.550000 15.99940
4178 OM 4178 OM OM1 4178 -0.550000 15.99940
4179 OM 4179 OM OM1 4179 -0.550000 15.99940
4180 OM 4180 OM OM1 4180 -0.550000 15.99940
4181 OM 4181 OM OM1 4181 -0.550000 15.99940
4182 OM 4182 OM OM1 4182 -0.550000 15.99940
4183 OM 4183 OM OM1 4183 -0.550000 15.99940
4184 OM 4184 OM OM1 4184 -0.550000 15.99940
4185 OM 4185 OM OM1 4185 -0.550000 15.99940
4186 OM 4186 OM OM1 4186 -0.550000 15.99940
4187 OM 4187 OM OM1 4187 -0.550000 15.99940
4188 OM 4188 OM OM1 4188 -0.550000 15.99940
4189 OM 4189 OM OM1 4189 -0.550000 15.99940
4190 OM 4190 OM OM1 4190 -0.550000 15.99940
4191 OM 4191 OM OM1 4191 -0.550000 15.99940
4192 OM 4192 OM OM1 4192 -0.550000 15.99940
4193 OM 4193 OM OM1 4193 -0.550000 15.99940
4194 OM 4194 OM OM1 4194 -0.550000 15.99940
4195 OM 4195 OM OM1 4195 -0.550000 15.99940
4196 OM 4196 OM OM1 4196 -0.550000 15.99940
4197 OM 4197 OM OM1 4197 -0.550000 15.99940
4198 OM 4198 OM OM1 4198 -0.550000 15.99940
4199 OM 4199 OM OM1 4199 -0.550000 15.99940
4200 OM 4200 OM OM1 4200 -0.550000 15.99940
4201 OM 4201 OM OM1 4201 -0.550000 15.99940
4202 OM 4202 OM OM1 4202 -0.550000 15.99940
4203 OM 4203 OM OM1 4203 -0.550000 15.99940
4204 OM 4204 OM OM1 4204 -0.550000 15.99940
4205 OM 4205 OM OM1 4205 -0.550000 15.99940
4206 OM 4206 OM OM1 4206 -0.550000 15.99940
4207 OM 4207 OM OM1 4207 -0.550000 15.99940
4208 OM 4208 OM OM1 4208 -0.550000 15.99940
4209 OM 4209 OM OM1 4209 -0.550000 15.99940
4210 OM 4210 OM OM1 4210 -0.550000 15.99940
4211 OM 4211 OM OM1 4211 -0.550000 15.99940
4212 OM 4212 OM OM1 4212 -0.550000 15.99940
4213 OM 4213 OM OM1 4213 -0.550000 15.99940
4214 OM 4214 OM OM1 4214 -0.550000 15.99940
4215 OM 4215 OM OM1 4215 -0.550000 15.99940
4216 OM 4216 OM OM1 4216 -0.550000 15.99940
4217 OM 4217 OM OM1 4217 -0.550000 15.99940
4218 OM 4218 OM OM1 4218 -0.550000 15.99940
4219 OM 4219 OM OM1 4219 -0.550000 15.99940
4220 OM 4220 OM OM1 4220 -0.550000 15.99940
4221 OM 4221 OM OM1 4221 -0.550000 15.99940
4222 OM 4222 OM OM1 4222 -0.550000 15.99940
4223 OM 4223 OM OM1 4223 -0.550000 15.99940
4224 OM 4224 OM OM1 4224 -0.550000 15.99940
4225 OM 4225 OM OM1 4225 -0.550000 15.99940
4226 OM 4226 OM OM1 4226 -0.550000 15.99940
4227 OM 4227 OM OM1 4227 -0.550000 15.99940
4228 OM 4228 OM OM1 4228 -0.550000 15.99940
4229 OM 4229 OM OM1 4229 -0.550000 15.99940
4230 OM 4230 OM OM1 4230 -0.550000 15.99940
4231 OM 4231 OM OM1 4231 -0.550000 15.99940
4232 OM 4232 OM OM1 4232 -0.550000 15.99940
4233 OM 4233 OM OM1 4233 -0.550000 15.99940
4234 OM 4234 OM OM1 4234 -0.550000 15.99940
4235 OM 4235 OM OM1 4235 -0.550000 15.99940
4236 OM 4236 OM OM1 4236 -0.550000 15.99940
4237 OM 4237 OM OM1 4237 -0.550000 15.99940
4238 OM 4238 OM OM1 4238 -0.550000 15.99940
4239 OM 4239 OM OM1 4239 -0.550000 15.99940
4240 OM 4240 OM OM1 4240 -0.550000 15.99940
4241 OM 4241 OM OM1 4241 -0.550000 15.99940
4242 OM 4242 OM OM1 4242 -0.550000 15.99940
4243 OM 4243 OM OM1 4243 -0.550000 15.99940
4244 OM 4244 OM OM1 4244 -0.550000 15.99940
4245 OM 4245 OM OM1 4245 -0.550000 15.99940
4246 OM 4246 OM OM1 4246 -0.550000 15.99940
4247 OM 4247 OM OM1 4247 -0.550000 15.99940
4248 OM 4248 OM OM1 4248 -0.550000 15.99940
4249 OM 4249 OM OM1 4249 -0.550000 15.99940
4250 OM 4250 OM OM1 4250 -0.550000 15.99940
4251 OM 4251 OM OM1 4251 -0.550000 15.99940
4252 OM 4252 OM OM1 4252 -0.550000 15.99940
4253 OM 4253 OM OM1 4253 -0.550000 15.99940
4254 OM 4254 OM OM1 4254 -0.550000 15.99940
4255 OM 4255 OM OM1 4255 -0.550000 15.99940
4256 OM 4256 OM OM1 4256 -0.550000 15.99940
4257 OM 4257 OM OM1 4257 -0.550000 15.99940
4258 OM 4258 OM OM1 4258 -0.550000 15.99940
4259 OM 4259 OM OM1 4259 -0.550000 15.99940
4260 OM 4260 OM OM1 4260 -0.550000 15.99940
4261 OM 4261 OM OM1 4261 -0.550000 15.99940
4262 OM 4262 OM OM1 4262 -0.550000 15.99940
4263 OM 4263 OM OM1 4263 -0.550000 15.99940
4264 OM 4264 OM OM1 4264 -0.550000 15.99940
4265 OM 4265 OM OM1 4265 -0.550000 15.99940
4266 OM 4266 OM OM1 4266 -0.550000 15.99940
4267 OM 4267 OM OM1 4267 -0.550000 15.99940
4268 OM 4268 OM OM1 4268 -0.550000 15.99940
4269 OM 4269 OM OM1 4269 -0.550000 15.99940
4270 OM 4270 OM OM1 4270 -0.550000 15.99940
4271 OM 4271 OM OM1 4271 -0.550000 15.99940
4272 OM 4272 OM OM1 4272 -0.550000 15.99940
4273 OM 4273 OM OM1 4273 -0.550000 15.99940
4274 OM 4274 OM OM1 4274 -0.550000 15.99940
4275 OM 4275 OM OM1 4275 -0.550000 15.99940
4276 OM 4276 OM OM1 4276 -0.550000 15.99940
4277 OM 4277 OM OM1 4277 -0.550000 15.99940
4278 OM 4278 OM OM1 4278 -0.550000 15.99940
4279 OM 4279 OM OM1 4279 -0.550000 15.99940
4280 OM 4280 OM OM1 4280 -0.550000 15.99940
4281 OM 4281 OM OM1 4281 -0.550000 15.99940
4282 OM 4282 OM OM1 4282 -0.550000 15.99940
4283 OM 4283 OM OM1 4283 -0.550000 15.99940
4284 OM 4284 OM OM1 4284 -0.550000 15.99940
4285 OM 4285 OM OM1 4285 -0.550000 15.99940
4286 OM 4286 OM OM1 4286 -0.550000 15.99940
4287 OM 4287 OM OM1 4287 -0.550000 15.99940
4288 OM 4288 OM OM1 4288 -0.550000 15.99940
4289 OM 4289 OM OM1 4289 -0.550000 15.99940
4290 OM 4290 OM OM1 4290 -0.550000 15.99940
4291 OM 4291 OM OM1 4291 -0.550000 15.99940
4292 OM 4292 OM OM1 4292 -0.550000 15.99940
4293 OM 4293 OM OM1 4293 -0.550000 15.99940
4294 OM 4294 OM OM1 4294 -0.550000 15.99940
4295 OM 4295 OM OM1 4295 -0.550000 15.99940
4296 OM 4296 OM OM1 4296 -0.550000 15.99940
4297 OM 4297 OM OM1 4297 -0.550000 15.99940
4298 OM 4298 OM OM1 4298 -0.550000 15.99940
4299 OM 4299 OM OM1 4299 -0.550000 15.99940
4300 OM 4300 OM OM1 4300 -0.550000 15.99940
4301 OM 4301 OM OM1 4301 -0.550000 15.99940
4302 OM 4302 OM OM1 4302 -0.550000 15.99940
4303 OM 4303 OM OM1 4303 -0.550000 15.99940
4304 OM 4304 OM OM1 4304 -0.550000 15.99940
4305 OM 4305 OM OM1 4305 -0.550000 15.99940
4306 OM 4306 OM OM1 4306 -0.550000 15.99940
4307 OM 4307 OM OM1 4307 -0.550000 15.99940
4308 OM 4308 OM OM1 4308 -0.550000 15.99940
4309 OM 4309 OM OM1 4309 -0.550000 15.99940
4310 OM 4310 OM OM1 4310 -0.550000 15.99940
4311 OM 4311 OM OM1 4311 -0.550000 15.99940
4312 OM 4312 OM OM1 4312 -0.550000 15.99940
4313 OM 4313 OM OM1 4313 -0.550000 15.99940
4314 OM 4314 OM OM1 4314 -0.550000 15.99940
4315 OM 4315 OM OM1 4315 -0.550000 15.99940
4316 OM 4316 OM OM1 4316 -0.550000 15.99940
4317 OM 4317 OM OM1 4317 -0.550000 15.99940
4318 OM 4318 OM OM1 4318 -0.550000 15.99940
4319 OM 4319 OM OM1 4319 -0.550000 15.99940
4320 OM 4320 OM OM1 4320 -0.550000 15.99940
4321 OM 4321 OM OM1 4321 -0.550000 15.99940
4322 OM 4322 OM OM1 4322 -0.550000 15.99940
4323 OM 4323 OM OM1 4323 -0.550000 15.99940
4324 OM 4324 OM OM1 4324 -0.550000 15.99940
4325 OM 4325 OM OM1 4325 -0.550000 15.99940
4326 OM 4326 OM OM1 4326 -0.550000 15.99940
4327 OM 4327 OM OM1 4327 -0.550000 15.99940
4328 OM 4328 OM OM1 4328 -0.550000 15.99940
4329 OM 4329 OM OM1 4329 -0.550000 15.99940
4330 OM 4330 OM OM1 4330 -0.550000 15.99940
4331 OM 4331 OM OM1 4331 -0.550000 15.99940
4332 OM 4332 OM OM1 4332 -0.550000 15.99940
4333 OM 4333 OM OM1 4333 -0.550000 15.99940
4334 OM 4334 OM OM1 4334 -0.550000 15.99940
4335 OM 4335 OM OM1 4335 -0.550000 15.99940
4336 OM 4336 OM OM1 4336 -0.550000 15.99940
4337 OM 4337 OM OM1 4337 -0.550000 15.99940
4338 OM 4338 OM OM1 4338 -0.550000 15.99940
4339 OM 4339 OM OM1 4339 -0.550000 15.99940
4340 OM 4340 OM OM1 4340 -0.550000 15.99940
4341 OM 4341 OM OM1 4341 -0.550000 15.99940
4342 OM 4342 OM OM1 4342 -0.550000 15.99940
4343 OM 4343 OM OM1 4343 -0.550000 15.99940
4344 OM 4344 OM OM1 4344 -0.550000 15.99940
4345 OM 4345 OM OM1 4345 -0.550000 15.99940
4346 OM 4346 OM OM1 4346 -0.550000 15.99940
4347 OM 4347 OM OM1 4347 -0.550000 15.99940
4348 OM 4348 OM OM1 4348 -0.550000 15.99940
4349 OM 4349 OM OM1 4349 -0.550000 15.99940
4350 OM 4350 OM OM1 4350 -0.550000 15.99940
4351 OM 4351 OM OM1 4351 -0.550000 15.99940
4352 OM 4352 OM OM1 4352 -0.550000 15.99940
4353 OM 4353 OM OM1 4353 -0.550000 15.99940
4354 OM 4354 OM OM1 4354 -0.550000 15.99940
4355 OM 4355 OM OM1 4355 -0.550000 15.99940
4356 OM 4356 OM OM1 4356 -0.550000 15.99940
4357 OM 4357 OM OM1 4357 -0.550000 15.99940
4358 OM 4358 OM OM1 4358 -0.550000 15.99940
4359 OM 4359 OM OM1 4359 -0.550000 15.99940
4360 OM 4360 OM OM1 4360 -0.550000 15.99940
4361 OM 4361 OM OM1 4361 -0.550000 15.99940
4362 OM 4362 OM OM1 4362 -0.550000 15.99940
4363 OM 4363 OM OM1 4363 -0.550000 15.99940
4364 OM 4364 OM OM1 4364 -0.550000 15.99940
4365 OM 4365 OM OM1 4365 -0.550000 15.99940
4366 OM 4366 OM OM1 4366 -0.550000 15.99940
4367 OM 4367 OM OM1 4367 -0.550000 15.99940
4368 OM 4368 OM OM1 4368 -0.550000 15.99940
4369 OM 4369 OM OM1 4369 -0.550000 15.99940
4370 OM 4370 OM OM1 4370 -0.550000 15.99940
4371 OM 4371 OM OM1 4371 -0.550000 15.99940
4372 OM 4372 OM OM1 4372 -0.550000 15.99940
4373 OM 4373 OM OM1 4373 -0.550000 15.99940
4374 OM 4374 OM OM1 4374 -0.550000 15.99940
4375 OM 4375 OM OM1 4375 -0.550000 15.99940
4376 OM 4376 OM OM1 4376 -0.550000 15.99940
4377 OM 4377 OM OM1 4377 -0.550000 15.99940
4378 OM 4378 OM OM1 4378 -0.550000 15.99940
4379 OM 4379 OM OM1 4379 -0.550000 15.99940
4380 OM 4380 OM OM1 4380 -0.550000 15.99940
4381 OM 4381 OM OM1 4381 -0.550000 15.99940
4382 OM 4382 OM OM1 4382 -0.550000 15.99940
4383 OM 4383 OM OM1 4383 -0.550000 15.99940
4384 OM 4384 OM OM1 4384 -0.550000 15.99940
4385 OM 4385 OM OM1 4385 -0.550000 15.99940
4386 OM 4386 OM OM1 4386 -0.550000 15.99940
4387 OM 4387 OM OM1 4387 -0.550000 15.99940
4388 OM 4388 OM OM1 4388 -0.550000 15.99940
4389 OM 4389 OM OM1 4389 -0.550000 15.99940
4390 OM 4390 OM OM1 4390 -0.550000 15.99940
4391 OM 4391 OM OM1 4391 -0.550000 15.99940
4392 OM 4392 OM OM1 4392 -0.550000 15.99940
4393 OM 4393 OM OM1 4393 -0.550000 15.99940
4394 OM 4394 OM OM1 4394 -0.550000 15.99940
4395 OM 4395 OM OM1 4395 -0.550000 15.99940
4396 OM 4396 OM OM1 4396 -0.550000 15.99940
4397 OM 4397 OM OM1 4397 -0.550000 15.99940
4398 OM 4398 OM OM1 4398 -0.550000 15.99940
4399 OM 4399 OM OM1 4399 -0.550000 15.99940
4400 OM 4400 OM OM1 4400 -0.550000 15.99940
4401 OM 4401 OM OM1 4401 -0.550000 15.99940
4402 OM 4402 OM OM1 4402 -0.550000 15.99940
4403 OM 4403 OM OM1 4403 -0.550000 15.99940
4404 OM 4404 OM OM1 4404 -0.550000 15.99940
4405 OM 4405 OM OM1 4405 -0.550000 15.99940
4406 OM 4406 OM OM1 4406 -0.550000 15.99940
4407 OM 4407 OM OM1 4407 -0.550000 15.99940
4408 OM 4408 OM OM1 4408 -0.550000 15.99940
4409 OM 4409 OM OM1 4409 -0.550000 15.99940
4410 OM 4410 OM OM1 4410 -0.550000 15.99940
4411 OM 4411 OM OM1 4411 -0.550000 15.99940
4412 OM 4412 OM OM1 4412 -0.550000 15.99940
4413 OM 4413 OM OM1 4413 -0.550000 15.99940
4414 OM 4414 OM OM1 4414 -0.550000 15.99940
4415 OM 4415 OM OM1 4415 -0.550000 15.99940
4416 OM 4416 OM OM1 4416 -0.550000 15.99940
4417 OM 4417 OM OM1 4417 -0.550000 15.99940
4418 OM 4418 OM OM1 4418 -0.550000 15.99940
4419 OM 4419 OM OM1 4419 -0.550000 15.99940
4420 OM 4420 OM OM1 4420 -0.550000 15.99940
4421 OM 4421 OM OM1 4421 -0.550000 15.99940
4422 OM 4422 OM OM1 4422 -0.550000 15.99940
4423 OM 4423 OM OM1 4423 -0.550000 15.99940
4424 OM 4424 OM OM1 4424 -0.550000 15.99940
4425 OM 4425 OM OM1 4425 -0.550000 15.99940
4426 OM 4426 OM OM1 4426 -0.550000 15.99940
4427 OM 4427 OM OM1 4427 -0.550000 15.99940
4428 OM 4428 OM OM1 4428 -0.550000 15.99940
4429 OM 4429 OM OM1 4429 -0.550000 15.99940
4430 OM 4430 OM OM1 4430 -0.550000 15.99940
4431 OM 4431 OM OM1 4431 -0.550000 15.99940
4432 OM 4432 OM OM1 4432 -0.550000 15.99940
4433 OM 4433 OM OM1 4433 -0.550000 15.99940
4434 OM 4434 OM OM1 4434 -0.550000 15.99940
4435 OM 4435 OM OM1 4435 -0.550000 15.99940
4436 OM 4436 OM OM1 4436 -0.550000 15.99940
4437 OM 4437 OM OM1 4437 -0.550000 15.99940
4438 OM 4438 OM OM1 4438 -0.550000 15.99940
4439 OM 4439 OM OM1 4439 -0.550000 15.99940
4440 OM 4440 OM OM1 4440 -0.550000 15.99940
4441 OM 4441 OM OM1 4441 -0.550000 15.99940
4442 OM 4442 OM OM1 4442 -0.550000 15.99940
4443 OM 4443 OM OM1 4443 -0.550000 15.99940
4444 OM 4444 OM OM1 4444 -0.550000 15.99940
4445 OM 4445 OM OM1 4445 -0.550000 15.99940
4446 OM 4446 OM OM1 4446 -0.550000 15.99940
4447 OM 4447 OM OM1 4447 -0.550000 15.99940
4448 OM 4448 OM OM1 4448 -0.550000 15.99940
4449 OM 4449 OM OM1 4449 -0.550000 15.99940
4450 OM 4450 OM OM1 4450 -0.550000 15.99940
4451 OM 4451 OM OM1 4451 -0.550000 15.99940
4452 OM 4452 OM OM1 4452 -0.550000 15.99940
4453 OM 4453 OM OM1 4453 -0.550000 15.99940
4454 OM 4454 OM OM1 4454 -0.550000 15.99940
4455 OM 4455 OM OM1 4455 -0.550000 15.99940
4456 OM 4456 OM OM1 4456 -0.550000 15.99940
4457 OM 4457 OM OM1 4457 -0.550000 15.99940
4458 OM 4458 OM OM1 4458 -0.550000 15.99940
4459 OM 4459 OM OM1 4459 -0.550000 15.99940
4460 OM 4460 OM OM1 4460 -0.550000 15.99940
4461 OM 4461 OM OM1 4461 -0.550000 15.99940
4462 OM 4462 OM OM1 4462 -0.550000 15.99940
4463 OM 4463 OM OM1 4463 -0.550000 15.99940
4464 OM 4464 OM OM1 4464 -0.550000 15.99940
4465 OM 4465 OM OM1 4465 -0.550000 15.99940
4466 OM 4466 OM OM1 4466 -0.550000 15.99940
4467 OM 4467 OM OM1 4467 -0.550000 15.99940
4468 OM 4468 OM OM1 4468 -0.550000 15.99940
4469 OM 4469 OM OM1 4469 -0.550000 15.99940
4470 OM 4470 OM OM1 4470 -0.550000 15.99940
4471 OM 4471 OM OM1 4471 -0.550000 15.99940
4472 OM 4472 OM OM1 4472 -0.550000 15.99940
4473 OM 4473 OM OM1 4473 -0.550000 15.99940
4474 OM 4474 OM OM1 4474 -0.550000 15.99940
4475 OM 4475 OM OM1 4475 -0.550000 15.99940
4476 OM 4476 OM OM1 4476 -0.550000 15.99940
4477 OM 4477 OM OM1 4477 -0.550000 15.99940
4478 OM 4478 OM OM1 4478 -0.550000 15.99940
4479 OM 4479 OM OM1 4479 -0.550000 15.99940
4480 OM 4480 OM OM1 4480 -0.550000 15.99940
4481 OM 4481 OM OM1 4481 -0.550000 15.99940
4482 OM 4482 OM OM1 4482 -0.550000 15.99940
4483 OM 4483 OM OM1 4483 -0.550000 15.99940
4484 OM 4484 OM OM1 4484 -0.550000 15.99940
4485 OM 4485 OM OM1 4485 -0.550000 15.99940
4486 OM 4486 OM OM1 4486 -0.550000 15.99940
4487 OM 4487 OM OM1 4487 -0.550000 15.99940
4488 OM 4488 OM OM1 4488 -0.550000 15.99940
4489 OM 4489 OM OM1 4489 -0.550000 15.99940
4490 OM 4490 OM OM1 4490 -0.550000 15.99940
4491 OM 4491 OM OM1 4491 -0.550000 15.99940
4492 OM 4492 OM OM1 4492 -0.550000 15.99940
4493 OM 4493 OM OM1 4493 -0.550000 15.99940
4494 OM 4494 OM OM1 4494 -0.550000 15.99940
4495 OM 4495 OM OM1 4495 -0.550000 15.99940
4496 OM 4496 OM OM1 4496 -0.550000 15.99940
4497 OM 4497 OM OM1 4497 -0.550000 15.99940
4498 OM 4498 OM OM1 4498 -0.550000 15.99940
4499 OM 4499 OM OM1 4499 -0.550000 15.99940
4500 OM 4500 OM OM1 4500 -0.550000 15.99940
4501 OM 4501 OM OM1 4501 -0.550000 15.99940
4502 OM 4502 OM OM1 4502 -0.550000 15.99940
4503 OM 4503 OM OM1 4503 -0.550000 15.99940
4504 OM 4504 OM OM1 4504 -0.550000 15.99940
4505 OM 4505 OM OM1 4505 -0.550000 15.99940
4506 OM 4506 OM OM1 4506 -0.550000 15.99940
4507 OM 4507 OM OM1 4507 -0.550000 15.99940
4508 OM 4508 OM OM1 4508 -0.550000 15.99940
4509 OM 4509 OM OM1 4509 -0.550000 15.99940
4510 OM 4510 OM OM1 4510 -0.550000 15.99940
4511 OM 4511 OM OM1 4511 -0.550000 15.99940
4512 OM 4512 OM OM1 4512 -0.550000 15.99940
4513 OM 4513 OM OM1 4513 -0.550000 15.99940
4514 OM 4514 OM OM1 4514 -0.550000 15.99940
4515 OM 4515 OM OM1 4515 -0.550000 15.99940
4516 OM 4516 OM OM1 4516 -0.550000 15.99940
4517 OM 4517 OM OM1 4517 -0.550000 15.99940
4518 OM 4518 OM OM1 4518 -0.550000 15.99940
4519 OM 4519 OM OM1 4519 -0.550000 15.99940
4520 OM 4520 OM OM1 4520 -0.550000 15.99940
4521 OM 4521 OM OM1 4521 -0.550000 15.99940
4522 OM 4522 OM OM1 4522 -0.550000 15.99940
4523 OM 4523 OM OM1 4523 -0.550000 15.99940
4524 OM 4524 OM OM1 4524 -0.550000 15.99940
4525 OM 4525 OM OM1 4525 -0.550000 15.99940
4526 OM 4526 OM OM1 4526 -0.550000 15.99940
4527 OM 4527 OM OM1 4527 -0.550000 15.99940
4528 OM 4528 OM OM1 4528 -0.550000 15.99940
4529 OM 4529 OM OM1 4529 -0.550000 15.99940
4530 OM 4530 OM OM1 4530 -0.550000 15.99940
4531 OM 4531 OM OM1 4531 -0.550000 15.99940
4532 OM 4532 OM OM1 4532 -0.550000 15.99940
4533 OM 4533 OM OM1 4533 -0.550000 15.99940
4534 OM 4534 OM OM1 4534 -0.550000 15.99940
4535 OM 4535 OM OM1 4535 -0.550000 15.99940
4536 OM 4536 OM OM1 4536 -0.550000 15.99940
4537 OM 4537 OM OM1 4537 -0.550000 15.99940
4538 OM 4538 OM OM1 4538 -0.550000 15.99940
4539 OM 4539 OM OM1 4539 -0.550000 15.99940
4540 OM 4540 OM OM1 4540 -0.550000 15.99940
4541 OM 4541 OM OM1 4541 -0.550000 15.99940
4542 OM 4542 OM OM1 4542 -0.550000 15.99940
4543 OM 4543 OM OM1 4543 -0.550000 15.99940
4544 OM 4544 OM OM1 4544 -0.550000 15.99940
4545 OM 4545 OM OM1 4545 -0.550000 15.99940
4546 OM 4546 OM OM1 4546 -0.550000 15.99940
4547 OM 4547 OM OM1 4547 -0.550000 15.99940
4548 OM 4548 OM OM1 4548 -0.550000 15.99940
4549 OM 4549 OM OM1 4549 -0.550000 15.99940
4550 OM 4550 OM OM1 4550 -0.550000 15.99940
4551 OM 4551 OM OM1 4551 -0.550000 15.99940
4552 OM 4552 OM OM1 4552 -0.550000 15.99940
4553 OM 4553 OM OM1 4553 -0.550000 15.99940
4554 OM 4554 OM OM1 4554 -0.550000 15.99940
4555 OM 4555 OM OM1 4555 -0.550000 15.99940
4556 OM 4556 OM OM1 4556 -0.550000 15.99940
4557 OM 4557 OM OM1 4557 -0.550000 15.99940
4558 OM 4558 OM OM1 4558 -0.550000 15.99940
4559 OM 4559 OM OM1 4559 -0.550000 15.99940
4560 OM 4560 OM OM1 4560 -0.550000 15.99940
4561 OM 4561 OM OM1 4561 -0.550000 15.99940
4562 OM 4562 OM OM1 4562 -0.550000 15.99940
4563 OM 4563 OM OM1 4563 -0.550000 15.99940
4564 OM 4564 OM OM1 4564 -0.550000 15.99940
4565 OM 4565 OM OM1 4565 -0.550000 15.99940
4566 OM 4566 OM OM1 4566 -0.550000 15.99940
4567 OM 4567 OM OM1 4567 -0.550000 15.99940
4568 OM 4568 OM OM1 4568 -0.550000 15.99940
4569 OM 4569 OM OM1 4569 -0.550000 15.99940
4570 OM 4570 OM OM1 4570 -0.550000 15.99940
4571 OM 4571 OM OM1 4571 -0.550000 15.99940
4572 OM 4572 OM OM1 4572 -0.550000 15.99940
4573 OM 4573 OM OM1 4573 -0.550000 15.99940
4574 OM 4574 OM OM1 4574 -0.550000 15.99940
4575 OM 4575 OM OM1 4575 -0.550000 15.99940
4576 OM 4576 OM OM1 4576 -0.550000 15.99940
4577 OM 4577 OM OM1 4577 -0.550000 15.99940
4578 OM 4578 OM OM1 4578 -0.550000 15.99940
4579 OM 4579 OM OM1 4579 -0.550000 15.99940
4580 OM 4580 OM OM1 4580 -0.550000 15.99940
4581 OM 4581 OM OM1 4581 -0.550000 15.99940
4582 OM 4582 OM OM1 4582 -0.550000 15.99940
4583 OM 4583 OM OM1 4583 -0.550000 15.99940
4584 OM 4584 OM OM1 4584 -0.550000 15.99940
4585 OM 4585 OM OM1 4585 -0.550000 15.99940
4586 OM 4586 OM OM1 4586 -0.550000 15.99940
4587 OM 4587 OM OM1 4587 -0.550000 15.99940
4588 OM 4588 OM OM1 4588 -0.550000 15.99940
4589 OM 4589 OM OM1 4589 -0.550000 15.99940
4590 OM 4590 OM OM1 4590 -0.550000 15.99940
4591 OM 4591 OM OM1 4591 -0.550000 15.99940
4592 OM 4592 OM OM1 4592 -0.550000 15.99940
4593 OM 4593 OM OM1 4593 -0.550000 15.99940
4594 OM 4594 OM OM1 4594 -0.550000 15.99940
4595 OM 4595 OM OM1 4595 -0.550000 15.99940
4596 OM 4596 OM OM1 4596 -0.550000 15.99940
4597 OM 4597 OM OM1 4597 -0.550000 15.99940
4598 OM 4598 OM OM1 4598 -0.550000 15.99940
4599 OM 4599 OM OM1 4599 -0.550000 15.99940
4600 OM 4600 OM OM1 4600 -0.550000 15.99940
4601 OM 4601 OM OM1 4601 -0.550000 15.99940
4602 OM 4602 OM OM1 4602 -0.550000 15.99940
4603 OM 4603 OM OM1 4603 -0.550000 15.99940
4604 OM 4604 OM OM1 4604 -0.550000 15.99940
4605 OM 4605 OM OM1 4605 -0.550000 15.99940
4606 OM 4606 OM OM1 4606 -0.550000 15.99940
4607 OM 4607 OM OM1 4607 -0.550000 15.99940
4608 OM 4608 OM OM1 4608 -0.550000 15.99940
4609 OM 4609 OM OM1 4609 -0.550000 15.99940
4610 OM 4610 OM OM1 4610 -0.550000 15.99940
4611 OM 4611 OM OM1 4611 -0.550000 15.99940
4612 OM 4612 OM OM1 4612 -0.550000 15.99940
4613 OM 4613 OM OM1 4613 -0.550000 15.99940
4614 OM 4614 OM OM1 4614 -0.550000 15.99940
4615 OM 4615 OM OM1 4615 -0.550000 15.99940
4616 OM 4616 OM OM1 4616 -0.550000 15.99940
4617 OM 4617 OM OM1 4617 -0.550000 15.99940
4618 OM 4618 OM OM1 4618 -0.550000 15.99940
4619 OM 4619 OM OM1 4619 -0.550000 15.99940
4620 OM 4620 OM OM1 4620 -0.550000 15.99940
4621 OM 4621 OM OM1 4621 -0.550000 15.99940
4622 OM 4622 OM OM1 4622 -0.550000 15.99940
4623 OM 4623 OM OM1 4623 -0.550000 15.99940
4624 OM 4624 OM OM1 4624 -0.550000 15.99940
4625 OM 4625 OM OM1 4625 -0.550000 15.99940
4626 OM 4626 OM OM1 4626 -0.550000 15.99940
4627 OM 4627 OM OM1 4627 -0.550000 15.99940
4628 OM 4628 OM OM1 4628 -0.550000 15.99940
4629 OM 4629 OM OM1 4629 -0.550000 15.99940
4630 OM 4630 OM OM1 4630 -0.550000 15.99940
4631 OM 4631 OM OM1 4631 -0.550000 15.99940
4632 OM 4632 OM OM1 4632 -0.550000 15.99940
4633 OM 4633 OM OM1 4633 -0.550000 15.99940
4634 OM 4634 OM OM1 4634 -0.550000 15.99940
4635 OM 4635 OM OM1 4635 -0.550000 15.99940
4636 OM 4636 OM OM1 4636 -0.550000 15.99940
4637 OM 4637 OM OM1 4637 -0.550000 15.99940
4638 OM 4638 OM OM1 4638 -0.550000 15.99940
4639 OM 4639 OM OM1 4639 -0.550000 15.99940
4640 OM 4640 OM OM1 4640 -0.550000 15.99940
4641 OM 4641 OM OM1 4641 -0.550000 15.99940
4642 OM 4642 OM OM1 4642 -0.550000 15.99940
4643 OM 4643 OM OM1 4643 -0.550000 15.99940
4644 OM 4644 OM OM1 4644 -0.550000 15.99940
4645 OM 4645 OM OM1 4645 -0.550000 15.99940
4646 OM 4646 OM OM1 4646 -0.550000 15.99940
4647 OM 4647 OM OM1 4647 -0.550000 15.99940
4648 OM 4648 OM OM1 4648 -0.550000 15.99940
4649 OM 4649 OM OM1 4649 -0.550000 15.99940
4650 OM 4650 OM OM1 4650 -0.550000 15.99940
4651 OM 4651 OM OM1 4651 -0.550000 15.99940
4652 OM 4652 OM OM1 4652 -0.550000 15.99940
4653 OM 4653 OM OM1 4653 -0.550000 15.99940
4654 OM 4654 OM OM1 4654 -0.550000 15.99940
4655 OM 4655 OM OM1 4655 -0.550000 15.99940
4656 OM 4656 OM OM1 4656 -0.550000 15.99940
4657 OM 4657 OM OM1 4657 -0.550000 15.99940
4658 OM 4658 OM OM1 4658 -0.550000 15.99940
4659 OM 4659 OM OM1 4659 -0.550000 15.99940
4660 OM 4660 OM OM1 4660 -0.550000 15.99940
4661 OM 4661 OM OM1 4661 -0.550000 15.99940
4662 OM 4662 OM OM1 4662 -0.550000 15.99940
4663 OM 4663 OM OM1 4663 -0.550000 15.99940
4664 OM 4664 OM OM1 4664 -0.550000 15.99940
4665 OM 4665 OM OM1 4665 -0.550000 15.99940
4666 OM 4666 OM OM1 4666 -0.550000 15.99940
4667 OM 4667 OM OM1 4667 -0.550000 15.99940
4668 OM 4668 OM OM1 4668 -0.550000 15.99940
4669 OM 4669 OM OM1 4669 -0.550000 15.99940
4670 OM 4670 OM OM1 4670 -0.550000 15.99940
4671 OM 4671 OM OM1 4671 -0.550000 15.99940
4672 OM 4672 OM OM1 4672 -0.550000 15.99940
4673 OM 4673 OM OM1 4673 -0.550000 15.99940
4674 OM 4674 OM OM1 4674 -0.550000 15.99940
4675 OM 4675 OM OM1 4675 -0.550000 15.99940
4676 OM 4676 OM OM1 4676 -0.550000 15.99940
4677 OM 4677 OM OM1 4677 -0.550000 15.99940
4678 OM 4678 OM OM1 4678 -0.550000 15.99940
4679 OM 4679 OM OM1 4679 -0.550000 15.99940
4680 OM 4680 OM OM1 4680 -0.550000 15.99940
4681 OM 4681 OM OM1 4681 -0.550000 15.99940
4682 OM 4682 OM OM1 4682 -0.550000 15.99940
4683 OM 4683 OM OM1 4683 -0.550000 15.99940
4684 OM 4684 OM OM1 4684 -0.550000 15.99940
4685 OM 4685 OM OM1 4685 -0.550000 15.99940
4686 OM 4686 OM OM1 4686 -0.550000 15.99940
4687 OM 4687 OM OM1 4687 -0.550000 15.99940
4688 OM 4688 OM OM1 4688 -0.550000 15.99940
4689 OM 4689 OM OM1 4689 -0.550000 15.99940
4690 OM 4690 OM OM1 4690 -0.550000 15.99940
4691 OM 4691 OM OM1 4691 -0.550000 15.99940
4692 OM 4692 OM OM1 4692 -0.550000 15.99940
4693 OM 4693 OM OM1 4693 -0.550000 15.99940
4694 OM 4694 OM OM1 4694 -0.550000 15.99940
4695 OM 4695 OM OM1 4695 -0.550000 15.99940
4696 OM 4696 OM OM1 4696 -0.550000 15.99940
4697 OM 4697 OM OM1 4697 -0.550000 15.99940
4698 OM 4698 OM OM1 4698 -0.550000 15.99940
4699 OM 4699 OM OM1 4699 -0.550000 15.99940
4700 OM 4700 OM OM1 4700 -0.550000 15.99940
4701 OM 4701 OM OM1 4701 -0.550000 15.99940
4702 OM 4702 OM OM1 4702 -0.550000 15.99940
4703 OM 4703 OM OM1 4703 -0.550000 15.99940
4704 OM 4704 OM OM1 4704 -0.550000 15.99940
4705 OM 4705 OM OM1 4705 -0.550000 15.99940
4706 OM 4706 OM OM1 4706 -0.550000 15.99940
4707 OM 4707 OM OM1 4707 -0.550000 15.99940
4708 OM 4708 OM OM1 4708 -0.550000 15.99940
4709 OM 4709 OM OM1 4709 -0.550000 15.99940
4710 OM 4710 OM OM1 4710 -0.550000 15.99940
4711 OM 4711 OM OM1 4711 -0.550000 15.99940
4712 OM 4712 OM OM1 4712 -0.550000 15.99940
4713 OM 4713 OM OM1 4713 -0.550000 15.99940
4714 OM 4714 OM OM1 4714 -0.550000 15.99940
4715 OM 4715 OM OM1 4715 -0.550000 15.99940
4716 OM 4716 OM OM1 4716 -0.550000 15.99940
4717 OM 4717 OM OM1 4717 -0.550000 15.99940
4718 OM 4718 OM OM1 4718 -0.550000 15.99940
4719 OM 4719 OM OM1 4719 -0.550000 15.99940
4720 OM 4720 OM OM1 4720 -0.550000 15.99940
4721 OM 4721 OM OM1 4721 -0.550000 15.99940
4722 OM 4722 OM OM1 4722 -0.550000 15.99940
4723 OM 4723 OM OM1 4723 -0.550000 15.99940
4724 OM 4724 OM OM1 4724 -0.550000 15.99940
4725 OM 4725 OM OM1 4725 -0.550000 15.99940
4726 OM 4726 OM OM1 4726 -0.550000 15.99940
4727 OM 4727 OM OM1 4727 -0.550000 15.99940
4728 OM 4728 OM OM1 4728 -0.550000 15.99940
4729 OM 4729 OM OM1 4729 -0.550000 15.99940
4730 OM 4730 OM OM1 4730 -0.550000 15.99940
4731 OM 4731 OM OM1 4731 -0.550000 15.99940
4732 OM 4732 OM OM1 4732 -0.550000 15.99940
4733 OM 4733 OM OM1 4733 -0.550000 15.99940
4734 OM 4734 OM OM1 4734 -0.550000 15.99940
4735 OM 4735 OM OM1 4735 -0.550000 15.99940
4736 OM 4736 OM OM1 4736 -0.550000 15.99940
4737 OM 4737 OM OM1 4737 -0.550000 15.99940
4738 OM 4738 OM OM1 4738 -0.550000 15.99940
4739 OM 4739 OM OM1 4739 -0.550000 15.99940
4740 OM 4740 OM OM1 4740 -0.550000 15.99940
4741 OM 4741 OM OM1 4741 -0.550000 15.99940
4742 OM 4742 OM OM1 4742 -0.550000 15.99940
4743 OM 4743 OM OM1 4743 -0.550000 15.99940
4744 OM 4744 OM OM1 4744 -0.550000 15.99940
4745 OM 4745 OM OM1 4745 -0.550000 15.99940
4746 OM 4746 OM OM1 4746 -0.550000 15.99940
4747 OM 4747 OM OM1 4747 -0.550000 15.99940
4748 OM 4748 OM OM1 4748 -0.550000 15.99940
4749 OM 4749 OM OM1 4749 -0.550000 15.99940
4750 OM 4750 OM OM1 4750 -0.550000 15.99940
4751 OM 4751 OM OM1 4751 -0.550000 15.99940
4752 OM 4752 OM OM1 4752 -0.550000 15.99940
4753 OM 4753 OM OM1 4753 -0.550000 15.99940
4754 OM 4754 OM OM1 4754 -0.550000 15.99940
4755 OM 4755 OM OM1 4755 -0.550000 15.99940
4756 OM 4756 OM OM1 4756 -0.550000 15.99940
4757 OM 4757 OM OM1 4757 -0.550000 15.99940
4758 OM 4758 OM OM1 4758 -0.550000 15.99940
4759 OM 4759 OM OM1 4759 -0.550000 15.99940
4760 OM 4760 OM OM1 4760 -0.550000 15.99940
4761 OM 4761 OM OM1 4761 -0.550000 15.99940
4762 OM 4762 OM OM1 4762 -0.550000 15.99940
4763 OM 4763 OM OM1 4763 -0.550000 15.99940
4764 OM 4764 OM OM1 4764 -0.550000 15.99940
4765 OM 4765 OM OM1 4765 -0.550000 15.99940
4766 OM 4766 OM OM1 4766 -0.550000 15.99940
4767 OM 4767 OM OM1 4767 -0.550000 15.99940
4768 OM 4768 OM OM1 4768 -0.550000 15.99940
4769 OM 4769 OM OM1 4769 -0.550000 15.99940
4770 OM 4770 OM OM1 4770 -0.550000 15.99940
4771 OM 4771 OM OM1 4771 -0.550000 15.99940
4772 OM 4772 OM OM1 4772 -0.550000 15.99940
4773 OM 4773 OM OM1 4773 -0.550000 15.99940
4774 OM 4774 OM OM1 4774 -0.550000 15.99940
4775 OM 4775 OM OM1 4775 -0.550000 15.99940
4776 OM 4776 OM OM1 4776 -0.550000 15.99940
4777 OM 4777 OM OM1 4777 -0.550000 15.99940
4778 OM 4778 OM OM1 4778 -0.550000 15.99940
4779 OM 4779 OM OM1 4779 -0.550000 15.99940
4780 OM 4780 OM OM1 4780 -0.550000 15.99940
4781 OM 4781 OM OM1 4781 -0.550000 15.99940
4782 OM 4782 OM OM1 4782 -0.550000 15.99940
4783 OM 4783 OM OM1 4783 -0.550000 15.99940
4784 OM 4784 OM OM1 4784 -0.550000 15.99940
4785 OM 4785 OM OM1 4785 -0.550000 15.99940
4786 OM 4786 OM OM1 4786 -0.550000 15.99940
4787 OM 4787 OM OM1 4787 -0.550000 15.99940
4788 OM 4788 OM OM1 4788 -0.550000 15.99940
4789 OM 4789 OM OM1 4789 -0.550000 15.99940
4790 OM 4790 OM OM1 4790 -0.550000 15.99940
4791 OM 4791 OM OM1 4791 -0.550000 15.99940
4792 OM 4792 OM OM1 4792 -0.550000 15.99940
4793 OM 4793 OM OM1 4793 -0.550000 15.99940
4794 OM 4794 OM OM1 4794 -0.550000 15.99940
4795 OM 4795 OM OM1 4795 -0.550000 15.99940
4796 OM 4796 OM OM1 4796 -0.550000 15.99940
4797 OM 4797 OM OM1 4797 -0.550000 15.99940
4798 OM 4798 OM OM1 4798 -0.550000 15.99940
4799 OM 4799 OM OM1 4799 -0.550000 15.99940
4800 OM 4800 OM OM1 4800 -0.550000 15.99940
4801 OM 4801 OM OM1 4801 -0.550000 15.99940
4802 OM 4802 OM OM1 4802 -0.550000 15.99940
4803 OM 4803 OM OM1 4803 -0.550000 15.99940
4804 OM 4804 OM OM1 4804 -0.550000 15.99940
4805 OM 4805 OM OM1 4805 -0.550000 15.99940
4806 OM 4806 OM OM1 4806 -0.550000 15.99940
4807 OM 4807 OM OM1 4807 -0.550000 15.99940
4808 OM 4808 OM OM1 4808 -0.550000 15.99940
4809 OM 4809 OM OM1 4809 -0.550000 15.99940
4810 OM 4810 OM OM1 4810 -0.550000 15.99940
4811 OM 4811 OM OM1 4811 -0.550000 15.99940
4812 OM 4812 OM OM1 4812 -0.550000 15.99940
4813 OM 4813 OM OM1 4813 -0.550000 15.99940
4814 OM 4814 OM OM1 4814 -0.550000 15.99940
4815 OM 4815 OM OM1 4815 -0.550000 15.99940
4816 OM 4816 OM OM1 4816 -0.550000 15.99940
4817 OM 4817 OM OM1 4817 -0.550000 15.99940
4818 OM 4818 OM OM1 4818 -0.550000 15.99940
4819 OM 4819 OM OM1 4819 -0.550000 15.99940
4820 OM 4820 OM OM1 4820 -0.550000 15.99940
4821 OM 4821 OM OM1 4821 -0.550000 15.99940
4822 OM 4822 OM OM1 4822 -0.550000 15.99940
4823 OM 4823 OM OM1 4823 -0.550000 15.99940
4824 OM 4824 OM OM1 4824 -0.550000 15.99940
4825 OM 4825 OM OM1 4825 -0.550000 15.99940
4826 OM 4826 OM OM1 4826 -0.550000 15.99940
4827 OM 4827 OM OM1 4827 -0.550000 15.99940
4828 OM 4828 OM OM1 4828 -0.550000 15.99940
4829 OM 4829 OM OM1 4829 -0.550000 15.99940
4830 OM 4830 OM OM1 4830 -0.550000 15.99940
4831 OM 4831 OM OM1 4831 -0.550000 15.99940
4832 OM 4832 OM OM1 4832 -0.550000 15.99940
4833 OM 4833 OM OM1 4833 -0.550000 15.99940
4834 OM 4834 OM OM1 4834 -0.550000 15.99940
4835 OM 4835 OM OM1 4835 -0.550000 15.99940
4836 OM 4836 OM OM1 4836 -0.550000 15.99940
4837 OM 4837 OM OM1 4837 -0.550000 15.99940
4838 OM 4838 OM OM1 4838 -0.550000 15.99940
4839 OM 4839 OM OM1 4839 -0.550000 15.99940
4840 OM 4840 OM OM1 4840 -0.550000 15.99940
4841 OM 4841 OM OM1 4841 -0.550000 15.99940
4842 OM 4842 OM OM1 4842 -0.550000 15.99940
4843 OM 4843 OM OM1 4843 -0.550000 15.99940
4844 OM 4844 OM OM1 4844 -0.550000 15.99940
4845 OM 4845 OM OM1 4845 -0.550000 15.99940
4846 OM 4846 OM OM1 4846 -0.550000 15.99940
4847 OM 4847 OM OM1 4847 -0.550000 15.99940
4848 OM 4848 OM OM1 4848 -0.550000 15.99940
4849 OM 4849 OM OM1 4849 -0.550000 15.99940
4850 OM 4850 OM OM1 4850 -0.550000 15.99940
4851 OM 4851 OM OM1 4851 -0.550000 15.99940
4852 OM 4852 OM OM1 4852 -0.550000 15.99940
4853 OM 4853 OM OM1 4853 -0.550000 15.99940
4854 OM 4854 OM OM1 4854 -0.550000 15.99940
4855 OM 4855 OM OM1 4855 -0.550000 15.99940
4856 OM 4856 OM OM1 4856 -0.550000 15.99940
4857 OM 4857 OM OM1 4857 -0.550000 15.99940
4858 OM 4858 OM OM1 4858 -0.550000 15.99940
4859 OM 4859 OM OM1 4859 -0.550000 15.99940
4860 OM 4860 OM OM1 4860 -0.550000 15.99940
4861 OM 4861 OM OM1 4861 -0.550000 15.99940
4862 OM 4862 OM OM1 4862 -0.550000 15.99940
4863 OM 4863 OM OM1 4863 -0.550000 15.99940
4864 OM 4864 OM OM1 4864 -0.550000 15.99940
4865 OM 4865 OM OM1 4865 -0.550000 15.99940
4866 OM 4866 OM OM1 4866 -0.550000 15.99940
4867 OM 4867 OM OM1 4867 -0.550000 15.99940
4868 OM 4868 OM OM1 4868 -0.550000 15.99940
4869 OM 4869 OM OM1 4869 -0.550000 15.99940
4870 OM 4870 OM OM1 4870 -0.550000 15.99940
4871 OM 4871 OM OM1 4871 -0.550000 15.99940
4872 OM 4872 OM OM1 4872 -0.550000 15.99940
4873 OM 4873 OM OM1 4873 -0.550000 15.99940
4874 OM 4874 OM OM1 4874 -0.550000 15.99940
4875 OM 4875 OM OM1 4875 -0.550000 15.99940
4876 OM 4876 OM OM1 4876 -0.550000 15.99940
4877 OM 4877 OM OM1 4877 -0.550000 15.99940
4878 OM 4878 OM OM1 4878 -0.550000 15.99940
4879 OM 4879 OM OM1 4879 -0.550000 15.99940
4880 OM 4880 OM OM1 4880 -0.550000 15.99940
4881 OM 4881 OM OM1 4881 -0.550000 15.99940
4882 OM 4882 OM OM1 4882 -0.550000 15.99940
4883 OM 4883 OM OM1 4883 -0.550000 15.99940
4884 OM 4884 OM OM1 4884 -0.550000 15.99940
4885 OM 4885 OM OM1 4885 -0.550000 15.99940
4886 OM 4886 OM OM1 4886 -0.550000 15.99940
4887 OM 4887 OM OM1 4887 -0.550000 15.99940
4888 OM 4888 OM OM1 4888 -0.550000 15.99940
4889 OM 4889 OM OM1 4889 -0.550000 15.99940
4890 OM 4890 OM OM1 4890 -0.550000 15.99940
4891 OM 4891 OM OM1 4891 -0.550000 15.99940
4892 OM 4892 OM OM1 4892 -0.550000 15.99940
4893 OM 4893 OM OM1 4893 -0.550000 15.99940
4894 OM 4894 OM OM1 4894 -0.550000 15.99940
4895 OM 4895 OM OM1 4895 -0.550000 15.99940
4896 OM 4896 OM OM1 4896 -0.550000 15.99940
4897 OM 4897 OM OM1 4897 -0.550000 15.99940
4898 OM 4898 OM OM1 4898 -0.550000 15.99940
4899 OM 4899 OM OM1 4899 -0.550000 15.99940
4900 OM 4900 OM OM1 4900 -0.550000 15.99940
4901 OM 4901 OM OM1 4901 -0.550000 15.99940
4902 OM 4902 OM OM1 4902 -0.550000 15.99940
4903 OM 4903 OM OM1 4903 -0.550000 15.99940
4904 OM 4904 OM OM1 4904 -0.550000 15.99940
4905 OM 4905 OM OM1 4905 -0.550000 15.99940
4906 OM 4906 OM OM1 4906 -0.550000 15.99940
4907 OM 4907 OM OM1 4907 -0.550000 15.99940
4908 OM 4908 OM OM1 4908 -0.550000 15.99940
4909 OM 4909 OM OM1 4909 -0.550000 15.99940
4910 OM 4910 OM OM1 4910 -0.550000 15.99940
4911 OM 4911 OM OM1 4911 -0.550000 15.99940
4912 OM 4912 OM OM1 4912 -0.550000 15.99940
4913 OM 4913 OM OM1 4913 -0.550000 15.99940
4914 OM 4914 OM OM1 4914 -0.550000 15.99940
4915 OM 4915 OM OM1 4915 -0.550000 15.99940
4916 OM 4916 OM OM1 4916 -0.550000 15.99940
4917 OM 4917 OM OM1 4917 -0.550000 15.99940
4918 OM 4918 OM OM1 4918 -0.550000 15.99940
4919 OM 4919 OM OM1 4919 -0.550000 15.99940
4920 OM 4920 OM OM1 4920 -0.550000 15.99940
4921 OM 4921 OM OM1 4921 -0.550000 15.99940
4922 OM 4922 OM OM1 4922 -0.550000 15.99940
4923 OM 4923 OM OM1 4923 -0.550000 15.99940
4924 OM 4924 OM OM1 4924 -0.550000 15.99940
4925 OM 4925 OM OM1 4925 -0.550000 15.99940
4926 OM 4926 OM OM1 4926 -0.550000 15.99940
4927 OM 4927 OM OM1 4927 -0.550000 15.99940
4928 OM 4928 OM OM1 4928 -0.550000 15.99940
4929 OM 4929 OM OM1 4929 -0.550000 15.99940
4930 OM 4930 OM OM1 4930 -0.550000 15.99940
4931 OM 4931 OM OM1 4931 -0.550000 15.99940
4932 OM 4932 OM OM1 4932 -0.550000 15.99940
4933 OM 4933 OM OM1 4933 -0.550000 15.99940
4934 OM 4934 OM OM1 4934 -0.550000 15.99940
4935 OM 4935 OM OM1 4935 -0.550000 15.99940
4936 OM 4936 OM OM1 4936 -0.550000 15.99940
4937 OM 4937 OM OM1 4937 -0.550000 15.99940
4938 OM 4938 OM OM1 4938 -0.550000 15.99940
4939 OM 4939 OM OM1 4939 -0.550000 15.99940
4940 OM 4940 OM OM1 4940 -0.550000 15.99940
4941 OM 4941 OM OM1 4941 -0.550000 15.99940
4942 OM 4942 OM OM1 4942 -0.550000 15.99940
4943 OM 4943 OM OM1 4943 -0.550000 15.99940
4944 OM 4944 OM OM1 4944 -0.550000 15.99940
4945 OM 4945 OM OM1 4945 -0.550000 15.99940
4946 OM 4946 OM OM1 4946 -0.550000 15.99940
4947 OM 4947 OM OM1 4947 -0.550000 15.99940
4948 OM 4948 OM OM1 4948 -0.550000 15.99940
4949 OM 4949 OM OM1 4949 -0.550000 15.99940
4950 OM 4950 OM OM1 4950 -0.550000 15.99940
4951 OM 4951 OM OM1 4951 -0.550000 15.99940
4952 OM 4952 OM OM1 4952 -0.550000 15.99940
4953 OM 4953 OM OM1 4953 -0.550000 15.99940
4954 OM 4954 OM OM1 4954 -0.550000 15.99940
4955 OM 4955 OM OM1 4955 -0.550000 15.99940
4956 OM 4956 OM OM1 4956 -0.550000 15.99940
4957 OM 4957 OM OM1 4957 -0.550000 15.99940
4958 OM 4958 OM OM1 4958 -0.550000 15.99940
4959 OM 4959 OM OM1 4959 -0.550000 15.99940
4960 OM 4960 OM OM1 4960 -0.550000 15.99940
4961 OM 4961 OM OM1 4961 -0.550000 15.99940
4962 OM 4962 OM OM1 4962 -0.550000 15.99940
4963 OM 4963 OM OM1 4963 -0.550000 15.99940
4964 OM 4964 OM OM1 4964 -0.550000 15.99940
4965 OM 4965 OM OM1 4965 -0.550000 15.99940
4966 OM 4966 OM OM1 4966 -0.550000 15.99940
4967 OM 4967 OM OM1 4967 -0.550000 15.99940
4968 OM 4968 OM OM1 4968 -0.550000 15.99940
4969 OM 4969 OM OM1 4969 -0.550000 15.99940
4970 OM 4970 OM OM1 4970 -0.550000 15.99940
4971 OM 4971 OM OM1 4971 -0.550000 15.99940
4972 OM 4972 OM OM1 4972 -0.550000 15.99940
4973 OM 4973 OM OM1 4973 -0.550000 15.99940
4974 OM 4974 OM OM1 4974 -0.550000 15.99940
4975 OM 4975 OM OM1 4975 -0.550000 15.99940
4976 OM 4976 OM OM1 4976 -0.550000 15.99940
4977 OM 4977 OM OM1 4977 -0.550000 15.99940
4978 OM 4978 OM OM1 4978 -0.550000 15.99940
4979 OM 4979 OM OM1 4979 -0.550000 15.99940
4980 OM 4980 OM OM1 4980 -0.550000 15.99940
4981 OM 4981 OM OM1 4981 -0.550000 15.99940
4982 OM 4982 OM OM1 4982 -0.550000 15.99940
4983 OM 4983 OM OM1 4983 -0.550000 15.99940
4984 OM 4984 OM OM1 4984 -0.550000 15.99940
4985 OM 4985 OM OM1 4985 -0.550000 15.99940
4986 OM 4986 OM OM1 4986 -0.550000 15.99940
4987 OM 4987 OM OM1 4987 -0.550000 15.99940
4988 OM 4988 OM OM1 4988 -0.550000 15.99940
4989 OM 4989 OM OM1 4989 -0.550000 15.99940
4990 OM 4990 OM OM1 4990 -0.550000 15.99940
4991 OM 4991 OM OM1 4991 -0.550000 15.99940
4992 OM 4992 OM OM1 4992 -0.550000 15.99940
4993 OM 4993 OM OM1 4993 -0.550000 15.99940
4994 OM 4994 OM OM1 4994 -0.550000 15.99940
4995 OM 4995 OM OM1 4995 -0.550000 15.99940
4996 OM 4996 OM OM1 4996 -0.550000 15.99940
4997 OM 4997 OM OM1 4997 -0.550000 15.99940
4998 OM 4998 OM OM1 4998 -0.550000 15.99940
4999 OM 4999 OM OM1 4999 -0.550000 15.99940
5000 OM 5000 OM OM1 5000 -0.550000 15.99940
5001 OM 5001 OM OM1 5001 -0.550000 15.99940
5002 OM 5002 OM OM1 5002 -0.550000 15.99940
5003 OM 5003 OM OM1 5003 -0.550000 15.99940
5004 OM 5004 OM OM1 5004 -0.550000 15.99940
5005 OM 5005 OM OM1 5005 -0.550000 15.99940
5006 OM 5006 OM OM1 5006 -0.550000 15.99940
5007 OM 5007 OM OM1 5007 -0.550000 15.99940
5008 OM 5008 OM OM1 5008 -0.550000 15.99940
5009 OM 5009 OM OM1 5009 -0.550000 15.99940
5010 OM 5010 OM OM1 5010 -0.550000 15.99940
5011 OM 5011 OM OM1 5011 -0.550000 15.99940
5012 OM 5012 OM OM1 5012 -0.550000 15.99940
5013 OM 5013 OM OM1 5013 -0.550000 15.99940
5014 OM 5014 OM OM1 5014 -0.550000 15.99940
5015 OM 5015 OM OM1 5015 -0.550000 15.99940
5016 OM 5016 OM OM1 5016 -0.550000 15.99940
5017 OM 5017 OM OM1 5017 -0.550000 15.99940
5018 OM 5018 OM OM1 5018 -0.550000 15.99940
5019 OM 5019 OM OM1 5019 -0.550000 15.99940
5020 OM 5020 OM OM1 5020 -0.550000 15.99940
5021 OM 5021 OM OM1 5021 -0.550000 15.99940
5022 OM 5022 OM OM1 5022 -0.550000 15.99940
5023 OM 5023 OM OM1 5023 -0.550000 15.99940
5024 OM 5024 OM OM1 5024 -0.550000 15.99940
5025 OM 5025 OM OM1 5025 -0.550000 15.99940
5026 OM 5026 OM OM1 5026 -0.550000 15.99940
5027 OM 5027 OM OM1 5027 -0.550000 15.99940
5028 OM 5028 OM OM1 5028 -0.550000 15.99940
5029 OM 5029 OM OM1 5029 -0.550000 15.99940
5030 OM 5030 OM OM1 5030 -0.550000 15.99940
5031 OM 5031 OM OM1 5031 -0.550000 15.99940
5032 OM 5032 OM OM1 5032 -0.550000 15.99940
5033 OM 5033 OM OM1 5033 -0.550000 15.99940
5034 OM 5034 OM OM1 5034 -0.550000 15.99940
5035 OM 5035 OM OM1 5035 -0.550000 15.99940
5036 OM 5036 OM OM1 5036 -0.550000 15.99940
5037 OM 5037 OM OM1 5037 -0.550000 15.99940
5038 OM 5038 OM OM1 5038 -0.550000 15.99940
5039 OM 5039 OM OM1 5039 -0.550000 15.99940
5040 OM 5040 OM OM1 5040 -0.550000 15.99940
5041 OM 5041 OM OM1 5041 -0.550000 15.99940
5042 OM 5042 OM OM1 5042 -0.550000 15.99940
5043 OM 5043 OM OM1 5043 -0.550000 15.99940
5044 OM 5044 OM OM1 5044 -0.550000 15.99940
5045 OM 5045 OM OM1 5045 -0.550000 15.99940
5046 OM 5046 OM OM1 5046 -0.550000 15.99940
5047 OM 5047 OM OM1 5047 -0.550000 15.99940
5048 OM 5048 OM OM1 5048 -0.550000 15.99940
5049 OM 5049 OM OM1 5049 -0.550000 15.99940
5050 OM 5050 OM OM1 5050 -0.550000 15.99940
5051 OM 5051 OM OM1 5051 -0.550000 15.99940
5052 OM 5052 OM OM1 5052 -0.550000 15.99940
5053 OM 5053 OM OM1 5053 -0.550000 15.99940
5054 OM 5054 OM OM1 5054 -0.550000 15.99940
5055 OM 5055 OM OM1 5055 -0.550000 15.99940
5056 OM 5056 OM OM1 5056 -0.550000 15.99940
5057 OM 5057 OM OM1 5057 -0.550000 15.99940
5058 OM 5058 OM OM1 5058 -0.550000 15.99940
5059 OM 5059 OM OM1 5059 -0.550000 15.99940
5060 OM 5060 OM OM1 5060 -0.550000 15.99940
5061 OM 5061 OM OM1 5061 -0.550000 15.99940
5062 OM 5062 OM OM1 5062 -0.550000 15.99940
5063 OM 5063 OM OM1 5063 -0.550000 15.99940
5064 OM 5064 OM OM1 5064 -0.550000 15.99940
5065 OM 5065 OM OM1 5065 -0.550000 15.99940
5066 OM 5066 OM OM1 5066 -0.550000 15.99940
5067 OM 5067 OM OM1 5067 -0.550000 15.99940
5068 OM 5068 OM OM1 5068 -0.550000 15.99940
5069 OM 5069 OM OM1 5069 -0.550000 15.99940
5070 OM 5070 OM OM1 5070 -0.550000 15.99940
5071 OM 5071 OM OM1 5071 -0.550000 15.99940
5072 OM 5072 OM OM1 5072 -0.550000 15.99940
5073 OM 5073 OM OM1 5073 -0.550000 15.99940
5074 OM 5074 OM OM1 5074 -0.550000 15.99940
5075 OM 5075 OM OM1 5075 -0.550000 15.99940
5076 OM 5076 OM OM1 5076 -0.550000 15.99940
5077 OM 5077 OM OM1 5077 -0.550000 15.99940
5078 OM 5078 OM OM1 5078 -0.550000 15.99940
5079 OM 5079 OM OM1 5079 -0.550000 15.99940
5080 OM 5080 OM OM1 5080 -0.550000 15.99940
5081 OM 5081 OM OM1 5081 -0.550000 15.99940
5082 OM 5082 OM OM1 5082 -0.550000 15.99940
5083 OM 5083 OM OM1 5083 -0.550000 15.99940
5084 OM 5084 OM OM1 5084 -0.550000 15.99940
5085 OM 5085 OM OM1 5085 -0.550000 15.99940
5086 OM 5086 OM OM1 5086 -0.550000 15.99940
5087 OM 5087 OM OM1 5087 -0.550000 15.99940
5088 OM 5088 OM OM1 5088 -0.550000 15.99940
5089 OM 5089 OM OM1 5089 -0.550000 15.99940
5090 OM 5090 OM OM1 5090 -0.550000 15.99940
5091 OM 5091 OM OM1 5091 -0.550000 15.99940
5092 OM 5092 OM OM1 5092 -0.550000 15.99940
5093 OM 5093 OM OM1 5093 -0.550000 15.99940
5094 OM 5094 OM OM1 5094 -0.550000 15.99940
5095 OM 5095 OM OM1 5095 -0.550000 15.99940
5096 OM 5096 OM OM1 5096 -0.550000 15.99940
5097 OM 5097 OM OM1 5097 -0.550000 15.99940
5098 OM 5098 OM OM1 5098 -0.550000 15.99940
5099 OM 5099 OM OM1 5099 -0.550000 15.99940
5100 OM 5100 OM OM1 5100 -0.550000 15.99940
5101 OM 5101 OM OM1 5101 -0.550000 15.99940
5102 OM 5102 OM OM1 5102 -0.550000 15.99940
5103 OM 5103 OM OM1 5103 -0.550000 15.99940
5104 OM 5104 OM OM1 5104 -0.550000 15.99940
5105 OM 5105 OM OM1 5105 -0.550000 15.99940
5106 OM 5106 OM OM1 5106 -0.550000 15.99940
5107 OM 5107 OM OM1 5107 -0.550000 15.99940
5108 OM 5108 OM OM1 5108 -0.550000 15.99940
5109 OM 5109 OM OM1 5109 -0.550000 15.99940
5110 OM 5110 OM OM1 5110 -0.550000 15.99940
5111 OM 5111 OM OM1 5111 -0.550000 15.99940
5112 OM 5112 OM OM1 5112 -0.550000 15.99940
5113 OM 5113 OM OM1 5113 -0.550000 15.99940
5114 OM 5114 OM OM1 5114 -0.550000 15.99940
5115 OM 5115 OM OM1 5115 -0.550000 15.99940
5116 OM 5116 OM OM1 5116 -0.550000 15.99940
5117 OM 5117 OM OM1 5117 -0.550000 15.99940
5118 OM 5118 OM OM1 5118 -0.550000 15.99940
5119 OM 5119 OM OM1 5119 -0.550000 15.99940
5120 OM 5120 OM OM1 5120 -0.550000 15.99940
5121 OM 5121 OM OM1 5121 -0.550000 15.99940
5122 OM 5122 OM OM1 5122 -0.550000 15.99940
5123 OM 5123 OM OM1 5123 -0.550000 15.99940
5124 OM 5124 OM OM1 5124 -0.550000 15.99940
5125 OM 5125 OM OM1 5125 -0.550000 15.99940
5126 OM 5126 OM OM1 5126 -0.550000 15.99940
5127 OM 5127 OM OM1 5127 -0.550000 15.99940
5128 OM 5128 OM OM1 5128 -0.550000 15.99940
5129 OM 5129 OM OM1 5129 -0.550000 15.99940
5130 OM 5130 OM OM1 5130 -0.550000 15.99940
5131 OM 5131 OM OM1 5131 -0.550000 15.99940
5132 OM 5132 OM OM1 5132 -0.550000 15.99940
5133 OM 5133 OM OM1 5133 -0.550000 15.99940
5134 OM 5134 OM OM1 5134 -0.550000 15.99940
5135 OM 5135 OM OM1 5135 -0.550000 15.99940
5136 OM 5136 OM OM1 5136 -0.550000 15.99940
5137 OM 5137 OM OM1 5137 -0.550000 15.99940
5138 OM 5138 OM OM1 5138 -0.550000 15.99940
5139 OM 5139 OM OM1 5139 -0.550000 15.99940
5140 OM 5140 OM OM1 5140 -0.550000 15.99940
5141 OM 5141 OM OM1 5141 -0.550000 15.99940
5142 OM 5142 OM OM1 5142 -0.550000 15.99940
5143 OM 5143 OM OM1 5143 -0.550000 15.99940
5144 OM 5144 OM OM1 5144 -0.550000 15.99940
5145 OM 5145 OM OM1 5145 -0.550000 15.99940
5146 OM 5146 OM OM1 5146 -0.550000 15.99940
5147 OM 5147 OM OM1 5147 -0.550000 15.99940
5148 OM 5148 OM OM1 5148 -0.550000 15.99940
5149 OM 5149 OM OM1 5149 -0.550000 15.99940
5150 OM 5150 OM OM1 5150 -0.550000 15.99940
5151 OM 5151 OM OM1 5151 -0.550000 15.99940
5152 OM 5152 OM OM1 5152 -0.550000 15.99940
5153 OM 5153 OM OM1 5153 -0.550000 15.99940
5154 OM 5154 OM OM1 5154 -0.550000 15.99940
5155 OM 5155 OM OM1 5155 -0.550000 15.99940
5156 OM 5156 OM OM1 5156 -0.550000 15.99940
5157 OM 5157 OM OM1 5157 -0.550000 15.99940
5158 OM 5158 OM OM1 5158 -0.550000 15.99940
5159 OM 5159 OM OM1 5159 -0.550000 15.99940
5160 OM 5160 OM OM1 5160 -0.550000 15.99940
5161 OM 5161 OM OM1 5161 -0.550000 15.99940
5162 OM 5162 OM OM1 5162 -0.550000 15.99940
5163 OM 5163 OM OM1 5163 -0.550000 15.99940
5164 OM 5164 OM OM1 5164 -0.550000 15.99940
5165 OM 5165 OM OM1 5165 -0.550000 15.99940
5166 OM 5166 OM OM1 5166 -0.550000 15.99940
5167 OM 5167 OM OM1 5167 -0.550000 15.99940
5168 OM 5168 OM OM1 5168 -0.550000 15.99940
5169 OM 5169 OM OM1 5169 -0.550000 15.99940
5170 OM 5170 OM OM1 5170 -0.550000 15.99940
5171 OM 5171 OM OM1 5171 -0.550000 15.99940
5172 OM 5172 OM OM1 5172 -0.550000 15.99940
5173 OM 5173 OM OM1 5173 -0.550000 15.99940
5174 OM 5174 OM OM1 5174 -0.550000 15.99940
5175 OM 5175 OM OM1 5175 -0.550000 15.99940
5176 OM 5176 OM OM1 5176 -0.550000 15.99940
5177 OM 5177 OM OM1 5177 -0.550000 15.99940
5178 OM 5178 OM OM1 5178 -0.550000 15.99940
5179 OM 5179 OM OM1 5179 -0.550000 15.99940
5180 OM 5180 OM OM1 5180 -0.550000 15.99940
5181 OM 5181 OM OM1 5181 -0.550000 15.99940
5182 OM 5182 OM OM1 5182 -0.550000 15.99940
5183 OM 5183 OM OM1 5183 -0.550000 15.99940
5184 OM 5184 OM OM1 5184 -0.550000 15.99940
5185 OM 5185 OM OM1 5185 -0.550000 15.99940
5186 OM 5186 OM OM1 5186 -0.550000 15.99940
5187 OM 5187 OM OM1 5187 -0.550000 15.99940
5188 OM 5188 OM OM1 5188 -0.550000 15.99940
5189 OM 5189 OM OM1 5189 -0.550000 15.99940
5190 OM 5190 OM OM1 5190 -0.550000 15.99940
5191 OM 5191 OM OM1 5191 -0.550000 15.99940
5192 OM 5192 OM OM1 5192 -0.550000 15.99940
5193 OM 5193 OM OM1 5193 -0.550000 15.99940
5194 OM 5194 OM OM1 5194 -0.550000 15.99940
5195 OM 5195 OM OM1 5195 -0.550000 15.99940
5196 OM 5196 OM OM1 5196 -0.550000 15.99940
5197 OM 5197 OM OM1 5197 -0.550000 15.99940
5198 OM 5198 OM OM1 5198 -0.550000 15.99940
5199 OM 5199 OM OM1 5199 -0.550000 15.99940
5200 OM 5200 OM OM1 5200 -0.550000 15.99940
5201 OM 5201 OM OM1 5201 -0.550000 15.99940
5202 OM 5202 OM OM1 5202 -0.550000 15.99940
5203 OM 5203 OM OM1 5203 -0.550000 15.99940
5204 OM 5204 OM OM1 5204 -0.550000 15.99940
5205 OM 5205 OM OM1 5205 -0.550000 15.99940
5206 OM 5206 OM OM1 5206 -0.550000 15.99940
5207 OM 5207 OM OM1 5207 -0.550000 15.99940
5208 OM 5208 OM OM1 5208 -0.550000 15.99940
5209 OM 5209 OM OM1 5209 -0.550000 15.99940
5210 OM 5210 OM OM1 5210 -0.550000 15.99940
5211 OM 5211 OM OM1 5211 -0.550000 15.99940
5212 OM 5212 OM OM1 5212 -0.550000 15.99940
5213 OM 5213 OM OM1 5213 -0.550000 15.99940
5214 OM 5214 OM OM1 5214 -0.550000 15.99940
5215 OM 5215 OM OM1 5215 -0.550000 15.99940
5216 OM 5216 OM OM1 5216 -0.550000 15.99940
5217 OM 5217 OM OM1 5217 -0.550000 15.99940
5218 OM 5218 OM OM1 5218 -0.550000 15.99940
5219 OM 5219 OM OM1 5219 -0.550000 15.99940
5220 OM 5220 OM OM1 5220 -0.550000 15.99940
5221 OM 5221 OM OM1 5221 -0.550000 15.99940
5222 OM 5222 OM OM1 5222 -0.550000 15.99940
5223 OM 5223 OM OM1 5223 -0.550000 15.99940
5224 OM 5224 OM OM1 5224 -0.550000 15.99940
5225 OM 5225 OM OM1 5225 -0.550000 15.99940
5226 OM 5226 OM OM1 5226 -0.550000 15.99940
5227 OM 5227 OM OM1 5227 -0.550000 15.99940
5228 OM 5228 OM OM1 5228 -0.550000 15.99940
5229 OM 5229 OM OM1 5229 -0.550000 15.99940
5230 OM 5230 OM OM1 5230 -0.550000 15.99940
5231 OM 5231 OM OM1 5231 -0.550000 15.99940
5232 OM 5232 OM OM1 5232 -0.550000 15.99940
5233 OM 5233 OM OM1 5233 -0.550000 15.99940
5234 OM 5234 OM OM1 5234 -0.550000 15.99940
5235 OM 5235 OM OM1 5235 -0.550000 15.99940
5236 OM 5236 OM OM1 5236 -0.550000 15.99940
5237 OM 5237 OM OM1 5237 -0.550000 15.99940
5238 OM 5238 OM OM1 5238 -0.550000 15.99940
5239 OM 5239 OM OM1 5239 -0.550000 15.99940
5240 OM 5240 OM OM1 5240 -0.550000 15.99940
5241 OM 5241 OM OM1 5241 -0.550000 15.99940
5242 OM 5242 OM OM1 5242 -0.550000 15.99940
5243 OM 5243 OM OM1 5243 -0.550000 15.99940
5244 OM 5244 OM OM1 5244 -0.550000 15.99940
5245 OM 5245 OM OM1 5245 -0.550000 15.99940
5246 OM 5246 OM OM1 5246 -0.550000 15.99940
5247 OM 5247 OM OM1 5247 -0.550000 15.99940
5248 OM 5248 OM OM1 5248 -0.550000 15.99940
5249 OM 5249 OM OM1 5249 -0.550000 15.99940
5250 OM 5250 OM OM1 5250 -0.550000 15.99940
5251 OM 5251 OM OM1 5251 -0.550000 15.99940
5252 OM 5252 OM OM1 5252 -0.550000 15.99940
5253 OM 5253 OM OM1 5253 -0.550000 15.99940
5254 OM 5254 OM OM1 5254 -0.550000 15.99940
5255 OM 5255 OM OM1 5255 -0.550000 15.99940
5256 OM 5256 OM OM1 5256 -0.550000 15.99940
5257 OM 5257 OM OM1 5257 -0.550000 15.99940
5258 OM 5258 OM OM1 5258 -0.550000 15.99940
5259 OM 5259 OM OM1 5259 -0.550000 15.99940
5260 OM 5260 OM OM1 5260 -0.550000 15.99940
5261 OM 5261 OM OM1 5261 -0.550000 15.99940
5262 OM 5262 OM OM1 5262 -0.550000 15.99940
5263 OM 5263 OM OM1 5263 -0.550000 15.99940
5264 OM 5264 OM OM1 5264 -0.550000 15.99940
5265 OM 5265 OM OM1 5265 -0.550000 15.99940
5266 OM 5266 OM OM1 5266 -0.550000 15.99940
5267 OM 5267 OM OM1 5267 -0.550000 15.99940
5268 OM 5268 OM OM1 5268 -0.550000 15.99940
5269 OM 5269 OM OM1 5269 -0.550000 15.99940
5270 OM 5270 OM OM1 5270 -0.550000 15.99940
5271 OM 5271 OM OM1 5271 -0.550000 15.99940
5272 OM 5272 OM OM1 5272 -0.550000 15.99940
5273 OM 5273 OM OM1 5273 -0.550000 15.99940
5274 OM 5274 OM OM1 5274 -0.550000 15.99940
5275 OM 5275 OM OM1 5275 -0.550000 15.99940
5276 OM 5276 OM OM1 5276 -0.550000 15.99940
5277 OM 5277 OM OM1 5277 -0.550000 15.99940
5278 OM 5278 OM OM1 5278 -0.550000 15.99940
5279 OM 5279 OM OM1 5279 -0.550000 15.99940
5280 OM 5280 OM OM1 5280 -0.550000 15.99940
5281 OM 5281 OM OM1 5281 -0.550000 15.99940
5282 OM 5282 OM OM1 5282 -0.550000 15.99940
5283 OM 5283 OM OM1 5283 -0.550000 15.99940
5284 OM 5284 OM OM1 5284 -0.550000 15.99940
5285 OM 5285 OM OM1 5285 -0.550000 15.99940
5286 OM 5286 OM OM1 5286 -0.550000 15.99940
5287 OM 5287 OM OM1 5287 -0.550000 15.99940
5288 OM 5288 OM OM1 5288 -0.550000 15.99940
5289 OM 5289 OM OM1 5289 -0.550000 15.99940
5290 OM 5290 OM OM1 5290 -0.550000 15.99940
5291 OM 5291 OM OM1 5291 -0.550000 15.99940
5292 OM 5292 OM OM1 5292 -0.550000 15.99940
5293 OM 5293 OM OM1 5293 -0.550000 15.99940
5294 OM 5294 OM OM1 5294 -0.550000 15.99940
5295 OM 5295 OM OM1 5295 -0.550000 15.99940
5296 OM 5296 OM OM1 5296 -0.550000 15.99940
5297 OM 5297 OM OM1 5297 -0.550000 15.99940
5298 OM 5298 OM OM1 5298 -0.550000 15.99940
5299 OM 5299 OM OM1 5299 -0.550000 15.99940
5300 OM 5300 OM OM1 5300 -0.550000 15.99940
5301 OM 5301 OM OM1 5301 -0.550000 15.99940
5302 OM 5302 OM OM1 5302 -0.550000 15.99940
5303 OM 5303 OM OM1 5303 -0.550000 15.99940
5304 OM 5304 OM OM1 5304 -0.550000 15.99940
5305 OM 5305 OM OM1 5305 -0.550000 15.99940
5306 OM 5306 OM OM1 5306 -0.550000 15.99940
5307 OM 5307 OM OM1 5307 -0.550000 15.99940
5308 OM 5308 OM OM1 5308 -0.550000 15.99940
5309 OM 5309 OM OM1 5309 -0.550000 15.99940
5310 OM 5310 OM OM1 5310 -0.550000 15.99940
5311 OM 5311 OM OM1 5311 -0.550000 15.99940
5312 OM 5312 OM OM1 5312 -0.550000 15.99940
5313 OM 5313 OM OM1 5313 -0.550000 15.99940
5314 OM 5314 OM OM1 5314 -0.550000 15.99940
5315 OM 5315 OM OM1 5315 -0.550000 15.99940
5316 OM 5316 OM OM1 5316 -0.550000 15.99940
5317 OM 5317 OM OM1 5317 -0.550000 15.99940
5318 OM 5318 OM OM1 5318 -0.550000 15.99940
5319 OM 5319 OM OM1 5319 -0.550000 15.99940
5320 OM 5320 OM OM1 5320 -0.550000 15.99940
5321 OM 5321 OM OM1 5321 -0.550000 15.99940
5322 OM 5322 OM OM1 5322 -0.550000 15.99940
5323 OM 5323 OM OM1 5323 -0.550000 15.99940
5324 OM 5324 OM OM1 5324 -0.550000 15.99940
5325 OM 5325 OM OM1 5325 -0.550000 15.99940
5326 OM 5326 OM OM1 5326 -0.550000 15.99940
5327 OM 5327 OM OM1 5327 -0.550000 15.99940
5328 OM 5328 OM OM1 5328 -0.550000 15.99940
5329 OM 5329 OM OM1 5329 -0.550000 15.99940
5330 OM 5330 OM OM1 5330 -0.550000 15.99940
5331 OM 5331 OM OM1 5331 -0.550000 15.99940
5332 OM 5332 OM OM1 5332 -0.550000 15.99940
5333 OM 5333 OM OM1 5333 -0.550000 15.99940
5334 OM 5334 OM OM1 5334 -0.550000 15.99940
5335 OM 5335 OM OM1 5335 -0.550000 15.99940
5336 OM 5336 OM OM1 5336 -0.550000 15.99940
5337 OM 5337 OM OM1 5337 -0.550000 15.99940
5338 OM 5338 OM OM1 5338 -0.550000 15.99940
5339 OM 5339 OM OM1 5339 -0.550000 15.99940
5340 OM 5340 OM OM1 5340 -0.550000 15.99940
5341 OM 5341 OM OM1 5341 -0.550000 15.99940
5342 OM 5342 OM OM1 5342 -0.550000 15.99940
5343 OM 5343 OM OM1 5343 -0.550000 15.99940
5344 OM 5344 OM OM1 5344 -0.550000 15.99940
5345 OM 5345 OM OM1 5345 -0.550000 15.99940
5346 OM 5346 OM OM1 5346 -0.550000 15.99940
5347 OM 5347 OM OM1 5347 -0.550000 15.99940
5348 OM 5348 OM OM1 5348 -0.550000 15.99940
5349 OM 5349 OM OM1 5349 -0.550000 15.99940
5350 OM 5350 OM OM1 5350 -0.550000 15.99940
5351 OM 5351 OM OM1 5351 -0.550000 15.99940
5352 OM 5352 OM OM1 5352 -0.550000 15.99940
5353 OM 5353 OM OM1 5353 -0.550000 15.99940
5354 OM 5354 OM OM1 5354 -0.550000 15.99940
5355 OM 5355 OM OM1 5355 -0.550000 15.99940
5356 OM 5356 OM OM1 5356 -0.550000 15.99940
5357 OM 5357 OM OM1 5357 -0.550000 15.99940
5358 OM 5358 OM OM1 5358 -0.550000 15.99940
5359 OM 5359 OM OM1 5359 -0.550000 15.99940
5360 OM 5360 OM OM1 5360 -0.550000 15.99940
5361 OM 5361 OM OM1 5361 -0.550000 15.99940
5362 OM 5362 OM OM1 5362 -0.550000 15.99940
5363 OM 5363 OM OM1 5363 -0.550000 15.99940
5364 OM 5364 OM OM1 5364 -0.550000 15.99940
5365 OM 5365 OM OM1 5365 -0.550000 15.99940
5366 OM 5366 OM OM1 5366 -0.550000 15.99940
5367 OM 5367 OM OM1 5367 -0.550000 15.99940
5368 OM 5368 OM OM1 5368 -0.550000 15.99940
5369 OM 5369 OM OM1 5369 -0.550000 15.99940
5370 OM 5370 OM OM1 5370 -0.550000 15.99940
5371 OM 5371 OM OM1 5371 -0.550000 15.99940
5372 OM 5372 OM OM1 5372 -0.550000 15.99940
5373 OM 5373 OM OM1 5373 -0.550000 15.99940
5374 OM 5374 OM OM1 5374 -0.550000 15.99940
5375 OM 5375 OM OM1 5375 -0.550000 15.99940
5376 OM 5376 OM OM1 5376 -0.550000 15.99940
5377 OM 5377 OM OM1 5377 -0.550000 15.99940
5378 OM 5378 OM OM1 5378 -0.550000 15.99940
5379 OM 5379 OM OM1 5379 -0.550000 15.99940
5380 OM 5380 OM OM1 5380 -0.550000 15.99940
5381 OM 5381 OM OM1 5381 -0.550000 15.99940
5382 OM 5382 OM OM1 5382 -0.550000 15.99940
5383 OM 5383 OM OM1 5383 -0.550000 15.99940
5384 OM 5384 OM OM1 5384 -0.550000 15.99940
5385 OM 5385 OM OM1 5385 -0.550000 15.99940
5386 OM 5386 OM OM1 5386 -0.550000 15.99940
5387 OM 5387 OM OM1 5387 -0.550000 15.99940
5388 OM 5388 OM OM1 5388 -0.550000 15.99940
5389 OM 5389 OM OM1 5389 -0.550000 15.99940
5390 OM 5390 OM OM1 5390 -0.550000 15.99940
5391 OM 5391 OM OM1 5391 -0.550000 15.99940
5392 OM 5392 OM OM1 5392 -0.550000 15.99940
5393 OM 5393 OM OM1 5393 -0.550000 15.99940
5394 OM 5394 OM OM1 5394 -0.550000 15.99940
5395 OM 5395 OM OM1 5395 -0.550000 15.99940
5396 OM 5396 OM OM1 5396 -0.550000 15.99940
5397 OM 5397 OM OM1 5397 -0.550000 15.99940
5398 OM 5398 OM OM1 5398 -0.550000 15.99940
5399 OM 5399 OM OM1 5399 -0.550000 15.99940
5400 OM 5400 OM OM1 5400 -0.550000 15.99940
5401 OM 5401 OM OM1 5401 -0.550000 15.99940
5402 OM 5402 OM OM1 5402 -0.550000 15.99940
5403 OM 5403 OM OM1 5403 -0.550000 15.99940
5404 OM 5404 OM OM1 5404 -0.550000 15.99940
5405 OM 5405 OM OM1 5405 -0.550000 15.99940
5406 OM 5406 OM OM1 5406 -0.550000 15.99940
5407 OM 5407 OM OM1 5407 -0.550000 15.99940
5408 OM 5408 OM OM1 5408 -0.550000 15.99940
5409 OM 5409 OM OM1 5409 -0.550000 15.99940
5410 OM 5410 OM OM1 5410 -0.550000 15.99940
5411 OM 5411 OM OM1 5411 -0.550000 15.99940
5412 OM 5412 OM OM1 5412 -0.550000 15.99940
5413 OM 5413 OM OM1 5413 -0.550000 15.99940
5414 OM 5414 OM OM1 5414 -0.550000 15.99940
5415 OM 5415 OM OM1 5415 -0.550000 15.99940
5416 OM 5416 OM OM1 5416 -0.550000 15.99940
5417 OM 5417 OM OM1 5417 -0.550000 15.99940
5418 OM 5418 OM OM1 5418 -0.550000 15.99940
5419 OM 5419 OM OM1 5419 -0.550000 15.99940
5420 OM 5420 OM OM1 5420 -0.550000 15.99940
5421 OM 5421 OM OM1 5421 -0.550000 15.99940
5422 OM 5422 OM OM1 5422 -0.550000 15.99940
5423 OM 5423 OM OM1 5423 -0.550000 15.99940
5424 OM 5424 OM OM1 5424 -0.550000 15.99940
5425 OM 5425 OM OM1 5425 -0.550000 15.99940
5426 OM 5426 OM OM1 5426 -0.550000 15.99940
5427 OM 5427 OM OM1 5427 -0.550000 15.99940
5428 OM 5428 OM OM1 5428 -0.550000 15.99940
5429 OM 5429 OM OM1 5429 -0.550000 15.99940
5430 OM 5430 OM OM1 5430 -0.550000 15.99940
5431 OM 5431 OM OM1 5431 -0.550000 15.99940
5432 OM 5432 OM OM1 5432 -0.550000 15.99940
5433 OM 5433 OM OM1 5433 -0.550000 15.99940
5434 OM 5434 OM OM1 5434 -0.550000 15.99940
5435 OM 5435 OM OM1 5435 -0.550000 15.99940
5436 OM 5436 OM OM1 5436 -0.550000 15.99940
5437 OM 5437 OM OM1 5437 -0.550000 15.99940
5438 OM 5438 OM OM1 5438 -0.550000 15.99940
5439 OM 5439 OM OM1 5439 -0.550000 15.99940
5440 OM 5440 OM OM1 5440 -0.550000 15.99940
5441 OM 5441 OM OM1 5441 -0.550000 15.99940
5442 OM 5442 OM OM1 5442 -0.550000 15.99940
5443 OM 5443 OM OM1 5443 -0.550000 15.99940
5444 OM 5444 OM OM1 5444 -0.550000 15.99940
5445 OM 5445 OM OM1 5445 -0.550000 15.99940
5446 OM 5446 OM OM1 5446 -0.550000 15.99940
5447 OM 5447 OM OM1 5447 -0.550000 15.99940
5448 OM 5448 OM OM1 5448 -0.550000 15.99940
5449 OM 5449 OM OM1 5449 -0.550000 15.99940
5450 OM 5450 OM OM1 5450 -0.550000 15.99940
5451 OM 5451 OM OM1 5451 -0.550000 15.99940
5452 OM 5452 OM OM1 5452 -0.550000 15.99940
5453 OM 5453 OM OM1 5453 -0.550000 15.99940
5454 OM 5454 OM OM1 5454 -0.550000 15.99940
5455 OM 5455 OM OM1 5455 -0.550000 15.99940
5456 OM 5456 OM OM1 5456 -0.550000 15.99940
5457 OM 5457 OM OM1 5457 -0.550000 15.99940
5458 OM 5458 OM OM1 5458 -0.550000 15.99940
5459 OM 5459 OM OM1 5459 -0.550000 15.99940
5460 OM 5460 OM OM1 5460 -0.550000 15.99940
5461 OM 5461 OM OM1 5461 -0.550000 15.99940
5462 OM 5462 OM OM1 5462 -0.550000 15.99940
5463 OM 5463 OM OM1 5463 -0.550000 15.99940
5464 OM 5464 OM OM1 5464 -0.550000 15.99940
5465 OM 5465 OM OM1 5465 -0.550000 15.99940
5466 OM 5466 OM OM1 5466 -0.550000 15.99940
5467 OM 5467 OM OM1 5467 -0.550000 15.99940
5468 OM 5468 OM OM1 5468 -0.550000 15.99940
5469 OM 5469 OM OM1 5469 -0.550000 15.99940
5470 OM 5470 OM OM1 5470 -0.550000 15.99940
5471 OM 5471 OM OM1 5471 -0.550000 15.99940
5472 OM 5472 OM OM1 5472 -0.550000 15.99940
5473 OM 5473 OM OM1 5473 -0.550000 15.99940
5474 OM 5474 OM OM1 5474 -0.550000 15.99940
5475 OM 5475 OM OM1 5475 -0.550000 15.99940
5476 OM 5476 OM OM1 5476 -0.550000 15.99940
5477 OM 5477 OM OM1 5477 -0.550000 15.99940
5478 OM 5478 OM OM1 5478 -0.550000 15.99940
5479 OM 5479 OM OM1 5479 -0.550000 15.99940
5480 OM 5480 OM OM1 5480 -0.550000 15.99940
5481 OM 5481 OM OM1 5481 -0.550000 15.99940
5482 OM 5482 OM OM1 5482 -0.550000 15.99940
5483 OM 5483 OM OM1 5483 -0.550000 15.99940
5484 OM 5484 OM OM1 5484 -0.550000 15.99940
5485 OM 5485 OM OM1 5485 -0.550000 15.99940
5486 OM 5486 OM OM1 5486 -0.550000 15.99940
5487 OM 5487 OM OM1 5487 -0.550000 15.99940
5488 OM 5488 OM OM1 5488 -0.550000 15.99940
5489 OM 5489 OM OM1 5489 -0.550000 15.99940
5490 OM 5490 OM OM1 5490 -0.550000 15.99940
5491 OM 5491 OM OM1 5491 -0.550000 15.99940
5492 OM 5492 OM OM1 5492 -0.550000 15.99940
5493 OM 5493 OM OM1 5493 -0.550000 15.99940
5494 OM 5494 OM OM1 5494 -0.550000 15.99940
5495 OM 5495 OM OM1 5495 -0.550000 15.99940
5496 OM 5496 OM OM1 5496 -0.550000 15.99940
5497 OM 5497 OM OM1 5497 -0.550000 15.99940
5498 OM 5498 OM OM1 5498 -0.550000 15.99940
5499 OM 5499 OM OM1 5499 -0.550000 15.99940
5500 OM 5500 OM OM1 5500 -0.550000 15.99940
5501 OM 5501 OM OM1 5501 -0.550000 15.99940
5502 OM 5502 OM OM1 5502 -0.550000 15.99940
5503 OM 5503 OM OM1 5503 -0.550000 15.99940
5504 OM 5504 OM OM1 5504 -0.550000 15.99940
5505 OM 5505 OM OM1 5505 -0.550000 15.99940
5506 OM 5506 OM OM1 5506 -0.550000 15.99940
5507 OM 5507 OM OM1 5507 -0.550000 15.99940
5508 OM 5508 OM OM1 5508 -0.550000 15.99940
5509 OM 5509 OM OM1 5509 -0.550000 15.99940
5510 OM 5510 OM OM1 5510 -0.550000 15.99940
5511 OM 5511 OM OM1 5511 -0.550000 15.99940
5512 OM 5512 OM OM1 5512 -0.550000 15.99940
5513 OM 5513 OM OM1 5513 -0.550000 15.99940
5514 OM 5514 OM OM1 5514 -0.550000 15.99940
5515 OM 5515 OM OM1 5515 -0.550000 15.99940
5516 OM 5516 OM OM1 5516 -0.550000 15.99940
5517 OM 5517 OM OM1 5517 -0.550000 15.99940
5518 OM 5518 OM OM1 5518 -0.550000 15.99940
5519 OM 5519 OM OM1 5519 -0.550000 15.99940
5520 OM 5520 OM OM1 5520 -0.550000 15.99940
5521 OM 5521 OM OM1 5521 -0.550000 15.99940
5522 OM 5522 OM OM1 5522 -0.550000 15.99940
5523 OM 5523 OM OM1 5523 -0.550000 15.99940
5524 OM 5524 OM OM1 5524 -0.550000 15.99940
5525 OM 5525 OM OM1 5525 -0.550000 15.99940
5526 OM 5526 OM OM1 5526 -0.550000 15.99940
5527 OM 5527 OM OM1 5527 -0.550000 15.99940
5528 OM 5528 OM OM1 5528 -0.550000 15.99940
5529 OM 5529 OM OM1 5529 -0.550000 15.99940
5530 OM 5530 OM OM1 5530 -0.550000 15.99940
5531 OM 5531 OM OM1 5531 -0.550000 15.99940
5532 OM 5532 OM OM1 5532 -0.550000 15.99940
5533 OM 5533 OM OM1 5533 -0.550000 15.99940
5534 OM 5534 OM OM1 5534 -0.550000 15.99940
5535 OM 5535 OM OM1 5535 -0.550000 15.99940
5536 OM 5536 OM OM1 5536 -0.550000 15.99940
5537 OM 5537 OM OM1 5537 -0.550000 15.99940
5538 OM 5538 OM OM1 5538 -0.550000 15.99940
5539 OM 5539 OM OM1 5539 -0.550000 15.99940
5540 OM 5540 OM OM1 5540 -0.550000 15.99940
5541 OM 5541 OM OM1 5541 -0.550000 15.99940
5542 OM 5542 OM OM1 5542 -0.550000 15.99940
5543 OM 5543 OM OM1 5543 -0.550000 15.99940
5544 OM 5544 OM OM1 5544 -0.550000 15.99940
5545 OM 5545 OM OM1 5545 -0.550000 15.99940
5546 OM 5546 OM OM1 5546 -0.550000 15.99940
5547 OM 5547 OM OM1 5547 -0.550000 15.99940
5548 OM 5548 OM OM1 5548 -0.550000 15.99940
5549 OM 5549 OM OM1 5549 -0.550000 15.99940
5550 OM 5550 OM OM1 5550 -0.550000 15.99940
5551 OM 5551 OM OM1 5551 -0.550000 15.99940
5552 OM 5552 OM OM1 5552 -0.550000 15.99940
5553 OM 5553 OM OM1 5553 -0.550000 15.99940
5554 OM 5554 OM OM1 5554 -0.550000 15.99940
5555 OM 5555 OM OM1 5555 -0.550000 15.99940
5556 OM 5556 OM OM1 5556 -0.550000 15.99940
5557 OM 5557 OM OM1 5557 -0.550000 15.99940
5558 OM 5558 OM OM1 5558 -0.550000 15.99940
5559 OM 5559 OM OM1 5559 -0.550000 15.99940
5560 OM 5560 OM OM1 5560 -0.550000 15.99940
5561 OM 5561 OM OM1 5561 -0.550000 15.99940
5562 OM 5562 OM OM1 5562 -0.550000 15.99940
5563 OM 5563 OM OM1 5563 -0.550000 15.99940
5564 OM 5564 OM OM1 5564 -0.550000 15.99940
5565 OM 5565 OM OM1 5565 -0.550000 15.99940
5566 OM 5566 OM OM1 5566 -0.550000 15.99940
5567 OM 5567 OM OM1 5567 -0.550000 15.99940
5568 OM 5568 OM OM1 5568 -0.550000 15.99940
5569 OM 5569 OM OM1 5569 -0.550000 15.99940
5570 OM 5570 OM OM1 5570 -0.550000 15.99940
5571 OM 5571 OM OM1 5571 -0.550000 15.99940
5572 OM 5572 OM OM1 5572 -0.550000 15.99940
5573 OM 5573 OM OM1 5573 -0.550000 15.99940
5574 OM 5574 OM OM1 5574 -0.550000 15.99940
5575 OM 5575 OM OM1 5575 -0.550000 15.99940
5576 OM 5576 OM OM1 5576 -0.550000 15.99940
5577 OM 5577 OM OM1 5577 -0.550000 15.99940
5578 OM 5578 OM OM1 5578 -0.550000 15.99940
5579 OM 5579 OM OM1 5579 -0.550000 15.99940
5580 OM 5580 OM OM1 5580 -0.550000 15.99940
5581 OM 5581 OM OM1 5581 -0.550000 15.99940
5582 OM 5582 OM OM1 5582 -0.550000 15.99940
5583 OM 5583 OM OM1 5583 -0.550000 15.99940
5584 OM 5584 OM OM1 5584 -0.550000 15.99940
5585 OM 5585 OM OM1 5585 -0.550000 15.99940
5586 OM 5586 OM OM1 5586 -0.550000 15.99940
5587 OM 5587 OM OM1 5587 -0.550000 15.99940
5588 OM 5588 OM OM1 5588 -0.550000 15.99940
5589 OM 5589 OM OM1 5589 -0.550000 15.99940
5590 OM 5590 OM OM1 5590 -0.550000 15.99940
5591 OM 5591 OM OM1 5591 -0.550000 15.99940
5592 OM 5592 OM OM1 5592 -0.550000 15.99940
5593 OM 5593 OM OM1 5593 -0.550000 15.99940
5594 OM 5594 OM OM1 5594 -0.550000 15.99940
5595 OM 5595 OM OM1 5595 -0.550000 15.99940
5596 OM 5596 OM OM1 5596 -0.550000 15.99940
5597 OM 5597 OM OM1 5597 -0.550000 15.99940
5598 OM 5598 OM OM1 5598 -0.550000 15.99940
5599 OM 5599 OM OM1 5599 -0.550000 15.99940
5600 OM 5600 OM OM1 5600 -0.550000 15.99940
5601 OM 5601 OM OM1 5601 -0.550000 15.99940
5602 OM 5602 OM OM1 5602 -0.550000 15.99940
5603 OM 5603 OM OM1 5603 -0.550000 15.99940
5604 OM 5604 OM OM1 5604 -0.550000 15.99940
5605 OM 5605 OM OM1 5605 -0.550000 15.99940
5606 OM 5606 OM OM1 5606 -0.550000 15.99940
5607 OM 5607 OM OM1 5607 -0.550000 15.99940
5608 OM 5608 OM OM1 5608 -0.550000 15.99940
5609 OM 5609 OM OM1 5609 -0.550000 15.99940
5610 OM 5610 OM OM1 5610 -0.550000 15.99940
5611 OM 5611 OM OM1 5611 -0.550000 15.99940
5612 OM 5612 OM OM1 5612 -0.550000 15.99940
5613 OM 5613 OM OM1 5613 -0.550000 15.99940
5614 OM 5614 OM OM1 5614 -0.550000 15.99940
5615 OM 5615 OM OM1 5615 -0.550000 15.99940
5616 OM 5616 OM OM1 5616 -0.550000 15.99940
5617 OM 5617 OM OM1 5617 -0.550000 15.99940
5618 OM 5618 OM OM1 5618 -0.550000 15.99940
5619 OM 5619 OM OM1 5619 -0.550000 15.99940
5620 OM 5620 OM OM1 5620 -0.550000 15.99940
5621 OM 5621 OM OM1 5621 -0.550000 15.99940
5622 OM 5622 OM OM1 5622 -0.550000 15.99940
5623 OM 5623 OM OM1 5623 -0.550000 15.99940
5624 OM 5624 OM OM1 5624 -0.550000 15.99940
5625 OM 5625 OM OM1 5625 -0.550000 15.99940
5626 OM 5626 OM OM1 5626 -0.550000 15.99940
5627 OM 5627 OM OM1 5627 -0.550000 15.99940
5628 OM 5628 OM OM1 5628 -0.550000 15.99940
5629 OM 5629 OM OM1 5629 -0.550000 15.99940
5630 OM 5630 OM OM1 5630 -0.550000 15.99940
5631 OM 5631 OM OM1 5631 -0.550000 15.99940
5632 OM 5632 OM OM1 5632 -0.550000 15.99940
5633 OM 5633 OM OM1 5633 -0.550000 15.99940
5634 OM 5634 OM OM1 5634 -0.550000 15.99940
5635 OM 5635 OM OM1 5635 -0.550000 15.99940
5636 OM 5636 OM OM1 5636 -0.550000 15.99940
5637 OM 5637 OM OM1 5637 -0.550000 15.99940
5638 OM 5638 OM OM1 5638 -0.550000 15.99940
5639 OM 5639 OM OM1 5639 -0.550000 15.99940
5640 OM 5640 OM OM1 5640 -0.550000 15.99940
5641 OM 5641 OM OM1 5641 -0.550000 15.99940
5642 OM 5642 OM OM1 5642 -0.550000 15.99940
5643 OM 5643 OM OM1 5643 -0.550000 15.99940
5644 OM 5644 OM OM1 5644 -0.550000 15.99940
5645 OM 5645 OM OM1 5645 -0.550000 15.99940
5646 OM 5646 OM OM1 5646 -0.550000 15.99940
5647 OM 5647 OM OM1 5647 -0.550000 15.99940
5648 OM 5648 OM OM1 5648 -0.550000 15.99940
5649 OM 5649 OM OM1 5649 -0.550000 15.99940
5650 OM 5650 OM OM1 5650 -0.550000 15.99940
5651 OM 5651 OM OM1 5651 -0.550000 15.99940
5652 OM 5652 OM OM1 5652 -0.550000 15.99940
5653 OM 5653 OM OM1 5653 -0.550000 15.99940
5654 OM 5654 OM OM1 5654 -0.550000 15.99940
5655 OM 5655 OM OM1 5655 -0.550000 15.99940
5656 OM 5656 OM OM1 5656 -0.550000 15.99940
5657 OM 5657 OM OM1 5657 -0.550000 15.99940
5658 OM 5658 OM OM1 5658 -0.550000 15.99940
5659 OM 5659 OM OM1 5659 -0.550000 15.99940
5660 OM 5660 OM OM1 5660 -0.550000 15.99940
5661 OM 5661 OM OM1 5661 -0.550000 15.99940
5662 OM 5662 OM OM1 5662 -0.550000 15.99940
5663 OM 5663 OM OM1 5663 -0.550000 15.99940
5664 OM 5664 OM OM1 5664 -0.550000 15.99940
5665 OM 5665 OM OM1 5665 -0.550000 15.99940
5666 OM 5666 OM OM1 5666 -0.550000 15.99940
5667 OM 5667 OM OM1 5667 -0.550000 15.99940
5668 OM 5668 OM OM1 5668 -0.550000 15.99940
5669 OM 5669 OM OM1 5669 -0.550000 15.99940
5670 OM 5670 OM OM1 5670 -0.550000 15.99940
5671 OM 5671 OM OM1 5671 -0.550000 15.99940
5672 OM 5672 OM OM1 5672 -0.550000 15.99940
5673 OM 5673 OM OM1 5673 -0.550000 15.99940
5674 OM 5674 OM OM1 5674 -0.550000 15.99940
5675 OM 5675 OM OM1 5675 -0.550000 15.99940
5676 OM 5676 OM OM1 5676 -0.550000 15.99940
5677 OM 5677 OM OM1 5677 -0.550000 15.99940
5678 OM 5678 OM OM1 5678 -0.550000 15.99940
5679 OM 5679 OM OM1 5679 -0.550000 15.99940
5680 OM 5680 OM OM1 5680 -0.550000 15.99940
5681 OM 5681 OM OM1 5681 -0.550000 15.99940
5682 OM 5682 OM OM1 5682 -0.550000 15.99940
5683 OM 5683 OM OM1 5683 -0.550000 15.99940
5684 OM 5684 OM OM1 5684 -0.550000 15.99940
5685 OM 5685 OM OM1 5685 -0.550000 15.99940
5686 OM 5686 OM OM1 5686 -0.550000 15.99940
5687 OM 5687 OM OM1 5687 -0.550000 15.99940
5688 OM 5688 OM OM1 5688 -0.550000 15.99940
5689 OM 5689 OM OM1 5689 -0.550000 15.99940
5690 OM 5690 OM OM1 5690 -0.550000 15.99940
5691 OM 5691 OM OM1 5691 -0.550000 15.99940
5692 OM 5692 OM OM1 5692 -0.550000 15.99940
5693 OM 5693 OM OM1 5693 -0.550000 15.99940
5694 OM 5694 OM OM1 5694 -0.550000 15.99940
5695 OM 5695 OM OM1 5695 -0.550000 15.99940
5696 OM 5696 OM OM1 5696 -0.550000 15.99940
5697 OM 5697 OM OM1 5697 -0.550000 15.99940
5698 OM 5698 OM OM1 5698 -0.550000 15.99940
5699 OM 5699 OM OM1 5699 -0.550000 15.99940
5700 OM 5700 OM OM1 5700 -0.550000 15.99940
5701 OM 5701 OM OM1 5701 -0.550000 15.99940
5702 OM 5702 OM OM1 5702 -0.550000 15.99940
5703 OM 5703 OM OM1 5703 -0.550000 15.99940
5704 OM 5704 OM OM1 5704 -0.550000 15.99940
5705 OM 5705 OM OM1 5705 -0.550000 15.99940
5706 OM 5706 OM OM1 5706 -0.550000 15.99940
5707 OM 5707 OM OM1 5707 -0.550000 15.99940
5708 OM 5708 OM OM1 5708 -0.550000 15.99940
5709 OM 5709 OM OM1 5709 -0.550000 15.99940
5710 OM 5710 OM OM1 5710 -0.550000 15.99940
5711 OM 5711 OM OM1 5711 -0.550000 15.99940
5712 OM 5712 OM OM1 5712 -0.550000 15.99940
5713 OM 5713 OM OM1 5713 -0.550000 15.99940
5714 OM 5714 OM OM1 5714 -0.550000 15.99940
5715 OM 5715 OM OM1 5715 -0.550000 15.99940
5716 OM 5716 OM OM1 5716 -0.550000 15.99940
5717 OM 5717 OM OM1 5717 -0.550000 15.99940
5718 OM 5718 OM OM1 5718 -0.550000 15.99940
5719 OM 5719 OM OM1 5719 -0.550000 15.99940
5720 OM 5720 OM OM1 5720 -0.550000 15.99940
5721 OM 5721 OM OM1 5721 -0.550000 15.99940
5722 OM 5722 OM OM1 5722 -0.550000 15.99940
5723 OM 5723 OM OM1 5723 -0.550000 15.99940
5724 OM 5724 OM OM1 5724 -0.550000 15.99940
5725 OM 5725 OM OM1 5725 -0.550000 15.99940
5726 OM 5726 OM OM1 5726 -0.550000 15.99940
5727 OM 5727 OM OM1 5727 -0.550000 15.99940
5728 OM 5728 OM OM1 5728 -0.550000 15.99940
5729 OM 5729 OM OM1 5729 -0.550000 15.99940
5730 OM 5730 OM OM1 5730 -0.550000 15.99940
5731 OM 5731 OM OM1 5731 -0.550000 15.99940
5732 OM 5732 OM OM1 5732 -0.550000 15.99940
5733 OM 5733 OM OM1 5733 -0.550000 15.99940
5734 OM 5734 OM OM1 5734 -0.550000 15.99940
5735 OM 5735 OM OM1 5735 -0.550000 15.99940
5736 OM 5736 OM OM1 5736 -0.550000 15.99940
5737 OM 5737 OM OM1 5737 -0.550000 15.99940
5738 OM 5738 OM OM1 5738 -0.550000 15.99940
5739 OM 5739 OM OM1 5739 -0.550000 15.99940
5740 OM 5740 OM OM1 5740 -0.550000 15.99940
5741 OM 5741 OM OM1 5741 -0.550000 15.99940
5742 OM 5742 OM OM1 5742 -0.550000 15.99940
5743 OM 5743 OM OM1 5743 -0.550000 15.99940
5744 OM 5744 OM OM1 5744 -0.550000 15.99940
5745 OM 5745 OM OM1 5745 -0.550000 15.99940
5746 OM 5746 OM OM1 5746 -0.550000 15.99940
5747 OM 5747 OM OM1 5747 -0.550000 15.99940
5748 OM 5748 OM OM1 5748 -0.550000 15.99940
5749 OM 5749 OM OM1 5749 -0.550000 15.99940
5750 OM 5750 OM OM1 5750 -0.550000 15.99940
5751 OM 5751 OM OM1 5751 -0.550000 15.99940
5752 OM 5752 OM OM1 5752 -0.550000 15.99940
5753 OM 5753 OM OM1 5753 -0.550000 15.99940
5754 OM 5754 OM OM1 5754 -0.550000 15.99940
5755 OM 5755 OM OM1 5755 -0.550000 15.99940
5756 OM 5756 OM OM1 5756 -0.550000 15.99940
5757 OM 5757 OM OM1 5757 -0.550000 15.99940
5758 OM 5758 OM OM1 5758 -0.550000 15.99940
5759 OM 5759 OM OM1 5759 -0.550000 15.99940
5760 OM 5760 OM OM1 5760 -0.550000 15.99940
5761 OM 5761 OM OM1 5761 -0.550000 15.99940
5762 OM 5762 OM OM1 5762 -0.550000 15.99940
5763 OM 5763 OM OM1 5763 -0.550000 15.99940
5764 OM 5764 OM OM1 5764 -0.550000 15.99940
5765 OM 5765 OM OM1 5765 -0.550000 15.99940
5766 OM 5766 OM OM1 5766 -0.550000 15.99940
5767 OM 5767 OM OM1 5767 -0.550000 15.99940
5768 OM 5768 OM OM1 5768 -0.550000 15.99940
5769 OM 5769 OM OM1 5769 -0.550000 15.99940
5770 OM 5770 OM OM1 5770 -0.550000 15.99940
5771 OM 5771 OM OM1 5771 -0.550000 15.99940
5772 OM 5772 OM OM1 5772 -0.550000 15.99940
5773 OM 5773 OM OM1 5773 -0.550000 15.99940
5774 OM 5774 OM OM1 5774 -0.550000 15.99940
5775 OM 5775 OM OM1 5775 -0.550000 15.99940
5776 OM 5776 OM OM1 5776 -0.550000 15.99940
5777 OM 5777 OM OM1 5777 -0.550000 15.99940
5778 OM 5778 OM OM1 5778 -0.550000 15.99940
5779 OM 5779 OM OM1 5779 -0.550000 15.99940
5780 OM 5780 OM OM1 5780 -0.550000 15.99940
5781 OM 5781 OM OM1 5781 -0.550000 15.99940
5782 OM 5782 OM OM1 5782 -0.550000 15.99940
5783 OM 5783 OM OM1 5783 -0.550000 15.99940
5784 OM 5784 OM OM1 5784 -0.550000 15.99940
5785 OM 5785 OM OM1 5785 -0.550000 15.99940
5786 OM 5786 OM OM1 5786 -0.550000 15.99940
5787 OM 5787 OM OM1 5787 -0.550000 15.99940
5788 OM 5788 OM OM1 5788 -0.550000 15.99940
5789 OM 5789 OM OM1 5789 -0.550000 15.99940
5790 OM 5790 OM OM1 5790 -0.550000 15.99940
5791 OM 5791 OM OM1 5791 -0.550000 15.99940
5792 OM 5792 OM OM1 5792 -0.550000 15.99940
5793 OM 5793 OM OM1 5793 -0.550000 15.99940
5794 OM 5794 OM OM1 5794 -0.550000 15.99940
5795 OM 5795 OM OM1 5795 -0.550000 15.99940
5796 OM 5796 OM OM1 5796 -0.550000 15.99940
5797 OM 5797 OM OM1 5797 -0.550000 15.99940
5798 OM 5798 OM OM1 5798 -0.550000 15.99940
5799 OM 5799 OM OM1 5799 -0.550000 15.99940
5800 OM 5800 OM OM1 5800 -0.550000 15.99940
5801 OM 5801 OM OM1 5801 -0.550000 15.99940
5802 OM 5802 OM OM1 5802 -0.550000 15.99940
5803 OM 5803 OM OM1 5803 -0.550000 15.99940
5804 OM 5804 OM OM1 5804 -0.550000 15.99940
5805 OM 5805 OM OM1 5805 -0.550000 15.99940
5806 OM 5806 OM OM1 5806 -0.550000 15.99940
5807 OM 5807 OM OM1 5807 -0.550000 15.99940
5808 OM 5808 OM OM1 5808 -0.550000 15.99940
5809 OM 5809 OM OM1 5809 -0.550000 15.99940
5810 OM 5810 OM OM1 5810 -0.550000 15.99940
5811 OM 5811 OM OM1 5811 -0.550000 15.99940
5812 OM 5812 OM OM1 5812 -0.550000 15.99940
5813 OM 5813 OM OM1 5813 -0.550000 15.99940
5814 OM 5814 OM OM1 5814 -0.550000 15.99940
5815 OM 5815 OM OM1 5815 -0.550000 15.99940
5816 OM 5816 OM OM1 5816 -0.550000 15.99940
5817 OM 5817 OM OM1 5817 -0.550000 15.99940
5818 OM 5818 OM OM1 5818 -0.550000 15.99940
5819 OM 5819 OM OM1 5819 -0.550000 15.99940
5820 OM 5820 OM OM1 5820 -0.550000 15.99940
5821 OM 5821 OM OM1 5821 -0.550000 15.99940
5822 OM 5822 OM OM1 5822 -0.550000 15.99940
5823 OM 5823 OM OM1 5823 -0.550000 15.99940
5824 OM 5824 OM OM1 5824 -0.550000 15.99940
5825 OM 5825 OM OM1 5825 -0.550000 15.99940
5826 OM 5826 OM OM1 5826 -0.550000 15.99940
5827 OM 5827 OM OM1 5827 -0.550000 15.99940
5828 OM 5828 OM OM1 5828 -0.550000 15.99940
5829 OM 5829 OM OM1 5829 -0.550000 15.99940
5830 OM 5830 OM OM1 5830 -0.550000 15.99940
5831 OM 5831 OM OM1 5831 -0.550000 15.99940
5832 OM 5832 OM OM1 5832 -0.550000 15.99940
5833 OM 5833 OM OM1 5833 -0.550000 15.99940
5834 OM 5834 OM OM1 5834 -0.550000 15.99940
5835 OM 5835 OM OM1 5835 -0.550000 15.99940
5836 OM 5836 OM OM1 5836 -0.550000 15.99940
5837 OM 5837 OM OM1 5837 -0.550000 15.99940
5838 OM 5838 OM OM1 5838 -0.550000 15.99940
5839 OM 5839 OM OM1 5839 -0.550000 15.99940
5840 OM 5840 OM OM1 5840 -0.550000 15.99940
5841 OM 5841 OM OM1 5841 -0.550000 15.99940
5842 OM 5842 OM OM1 5842 -0.550000 15.99940
5843 OM 5843 OM OM1 5843 -0.550000 15.99940
5844 OM 5844 OM OM1 5844 -0.550000 15.99940
5845 OM 5845 OM OM1 5845 -0.550000 15.99940
5846 OM 5846 OM OM1 5846 -0.550000 15.99940
5847 OM 5847 OM OM1 5847 -0.550000 15.99940
5848 OM 5848 OM OM1 5848 -0.550000 15.99940
5849 OM 5849 OM OM1 5849 -0.550000 15.99940
5850 OM 5850 OM OM1 5850 -0.550000 15.99940
5851 OM 5851 OM OM1 5851 -0.550000 15.99940
5852 OM 5852 OM OM1 5852 -0.550000 15.99940
5853 OM 5853 OM OM1 5853 -0.550000 15.99940
5854 OM 5854 OM OM1 5854 -0.550000 15.99940
5855 OM 5855 OM OM1 5855 -0.550000 15.99940
5856 OM 5856 OM OM1 5856 -0.550000 15.99940
5857 OM 5857 OM OM1 5857 -0.550000 15.99940
5858 OM 5858 OM OM1 5858 -0.550000 15.99940
5859 OM 5859 OM OM1 5859 -0.550000 15.99940
5860 OM 5860 OM OM1 5860 -0.550000 15.99940
5861 OM 5861 OM OM1 5861 -0.550000 15.99940
5862 OM 5862 OM OM1 5862 -0.550000 15.99940
5863 OM 5863 OM OM1 5863 -0.550000 15.99940
5864 OM 5864 OM OM1 5864 -0.550000 15.99940
5865 OM 5865 OM OM1 5865 -0.550000 15.99940
5866 OM 5866 OM OM1 5866 -0.550000 15.99940
5867 OM 5867 OM OM1 5867 -0.550000 15.99940
5868 OM 5868 OM OM1 5868 -0.550000 15.99940
5869 OM 5869 OM OM1 5869 -0.550000 15.99940
5870 OM 5870 OM OM1 5870 -0.550000 15.99940
5871 OM 5871 OM OM1 5871 -0.550000 15.99940
5872 OM 5872 OM OM1 5872 -0.550000 15.99940
5873 OM 5873 OM OM1 5873 -0.550000 15.99940
5874 OM 5874 OM OM1 5874 -0.550000 15.99940
5875 OM 5875 OM OM1 5875 -0.550000 15.99940
5876 OM 5876 OM OM1 5876 -0.550000 15.99940
5877 OM 5877 OM OM1 5877 -0.550000 15.99940
5878 OM 5878 OM OM1 5878 -0.550000 15.99940
5879 OM 5879 OM OM1 5879 -0.550000 15.99940
5880 OM 5880 OM OM1 5880 -0.550000 15.99940
5881 OM 5881 OM OM1 5881 -0.550000 15.99940
5882 OM 5882 OM OM1 5882 -0.550000 15.99940
5883 OM 5883 OM OM1 5883 -0.550000 15.99940
5884 OM 5884 OM OM1 5884 -0.550000 15.99940
5885 OM 5885 OM OM1 5885 -0.550000 15.99940
5886 OM 5886 OM OM1 5886 -0.550000 15.99940
5887 OM 5887 OM OM1 5887 -0.550000 15.99940
5888 OM 5888 OM OM1 5888 -0.550000 15.99940
5889 OM 5889 OM OM1 5889 -0.550000 15.99940
5890 OM 5890 OM OM1 5890 -0.550000 15.99940
5891 OM 5891 OM OM1 5891 -0.550000 15.99940
5892 OM 5892 OM OM1 5892 -0.550000 15.99940
5893 OM 5893 OM OM1 5893 -0.550000 15.99940
5894 OM 5894 OM OM1 5894 -0.550000 15.99940
5895 OM 5895 OM OM1 5895 -0.550000 15.99940
5896 OM 5896 OM OM1 5896 -0.550000 15.99940
5897 OM 5897 OM OM1 5897 -0.550000 15.99940
5898 OM 5898 OM OM1 5898 -0.550000 15.99940
5899 OM 5899 OM OM1 5899 -0.550000 15.99940
5900 OM 5900 OM OM1 5900 -0.550000 15.99940
5901 OM 5901 OM OM1 5901 -0.550000 15.99940
5902 OM 5902 OM OM1 5902 -0.550000 15.99940
5903 OM 5903 OM OM1 5903 -0.550000 15.99940
5904 OM 5904 OM OM1 5904 -0.550000 15.99940
5905 OM 5905 OM OM1 5905 -0.550000 15.99940
5906 OM 5906 OM OM1 5906 -0.550000 15.99940
5907 OM 5907 OM OM1 5907 -0.550000 15.99940
5908 OM 5908 OM OM1 5908 -0.550000 15.99940
5909 OM 5909 OM OM1 5909 -0.550000 15.99940
5910 OM 5910 OM OM1 5910 -0.550000 15.99940
5911 OM 5911 OM OM1 5911 -0.550000 15.99940
5912 OM 5912 OM OM1 5912 -0.550000 15.99940
5913 OM 5913 OM OM1 5913 -0.550000 15.99940
5914 OM 5914 OM OM1 5914 -0.550000 15.99940
5915 OM 5915 OM OM1 5915 -0.550000 15.99940
5916 OM 5916 OM OM1 5916 -0.550000 15.99940
5917 OM 5917 OM OM1 5917 -0.550000 15.99940
5918 OM 5918 OM OM1 5918 -0.550000 15.99940
5919 OM 5919 OM OM1 5919 -0.550000 15.99940
5920 OM 5920 OM OM1 5920 -0.550000 15.99940
5921 OM 5921 OM OM1 5921 -0.550000 15.99940
5922 OM 5922 OM OM1 5922 -0.550000 15.99940
5923 OM 5923 OM OM1 5923 -0.550000 15.99940
5924 OM 5924 OM OM1 5924 -0.550000 15.99940
5925 OM 5925 OM OM1 5925 -0.550000 15.99940
5926 OM 5926 OM OM1 5926 -0.550000 15.99940
5927 OM 5927 OM OM1 5927 -0.550000 15.99940
5928 OM 5928 OM OM1 5928 -0.550000 15.99940
5929 OM 5929 OM OM1 5929 -0.550000 15.99940
5930 OM 5930 OM OM1 5930 -0.550000 15.99940
5931 OM 5931 OM OM1 5931 -0.550000 15.99940
5932 OM 5932 OM OM1 5932 -0.550000 15.99940
5933 OM 5933 OM OM1 5933 -0.550000 15.99940
5934 OM 5934 OM OM1 5934 -0.550000 15.99940
5935 OM 5935 OM OM1 5935 -0.550000 15.99940
5936 OM 5936 OM OM1 5936 -0.550000 15.99940
5937 OM 5937 OM OM1 5937 -0.550000 15.99940
5938 OM 5938 OM OM1 5938 -0.550000 15.99940
5939 OM 5939 OM OM1 5939 -0.550000 15.99940
5940 OM 5940 OM OM1 5940 -0.550000 15.99940
5941 OM 5941 OM OM1 5941 -0.550000 15.99940
5942 OM 5942 OM OM1 5942 -0.550000 15.99940
5943 OM 5943 OM OM1 5943 -0.550000 15.99940
5944 OM 5944 OM OM1 5944 -0.550000 15.99940
5945 OM 5945 OM OM1 5945 -0.550000 15.99940
5946 OM 5946 OM OM1 5946 -0.550000 15.99940
5947 OM 5947 OM OM1 5947 -0.550000 15.99940
5948 OM 5948 OM OM1 5948 -0.550000 15.99940
5949 OM 5949 OM OM1 5949 -0.550000 15.99940
5950 OM 5950 OM OM1 5950 -0.550000 15.99940
5951 OM 5951 OM OM1 5951 -0.550000 15.99940
5952 OM 5952 OM OM1 5952 -0.550000 15.99940
5953 OM 5953 OM OM1 5953 -0.550000 15.99940
5954 OM 5954 OM OM1 5954 -0.550000 15.99940
5955 OM 5955 OM OM1 5955 -0.550000 15.99940
5956 OM 5956 OM OM1 5956 -0.550000 15.99940
5957 OM 5957 OM OM1 5957 -0.550000 15.99940
5958 OM 5958 OM OM1 5958 -0.550000 15.99940
5959 OM 5959 OM OM1 5959 -0.550000 15.99940
5960 OM 5960 OM OM1 5960 -0.550000 15.99940
5961 OM 5961 OM OM1 5961 -0.550000 15.99940
5962 OM 5962 OM OM1 5962 -0.550000 15.99940
5963 OM 5963 OM OM1 5963 -0.550000 15.99940
5964 OM 5964 OM OM1 5964 -0.550000 15.99940
5965 OM 5965 OM OM1 5965 -0.550000 15.99940
5966 OM 5966 OM OM1 5966 -0.550000 15.99940
5967 OM 5967 OM OM1 5967 -0.550000 15.99940
5968 OM 5968 OM OM1 5968 -0.550000 15.99940
5969 OM 5969 OM OM1 5969 -0.550000 15.99940
5970 OM 5970 OM OM1 5970 -0.550000 15.99940
5971 OM 5971 OM OM1 5971 -0.550000 15.99940
5972 OM 5972 OM OM1 5972 -0.550000 15.99940
5973 OM 5973 OM OM1 5973 -0.550000 15.99940
5974 OM 5974 OM OM1 5974 -0.550000 15.99940
5975 OM 5975 OM OM1 5975 -0.550000 15.99940
5976 OM 5976 OM OM1 5976 -0.550000 15.99940
5977 OM 5977 OM OM1 5977 -0.550000 15.99940
5978 OM 5978 OM OM1 5978 -0.550000 15.99940
5979 OM 5979 OM OM1 5979 -0.550000 15.99940
5980 OM 5980 OM OM1 5980 -0.550000 15.99940
5981 OM 5981 OM OM1 5981 -0.550000 15.99940
5982 OM 5982 OM OM1 5982 -0.550000 15.99940
5983 OM 5983 OM OM1 5983 -0.550000 15.99940
5984 OM 5984 OM OM1 5984 -0.550000 15.99940
5985 OM 5985 OM OM1 5985 -0.550000 15.99940
5986 OM 5986 OM OM1 5986 -0.550000 15.99940
5987 OM 5987 OM OM1 5987 -0.550000 15.99940
5988 OM 5988 OM OM1 5988 -0.550000 15.99940
5989 OM 5989 OM OM1 5989 -0.550000 15.99940
5990 OM 5990 OM OM1 5990 -0.550000 15.99940
5991 OM 5991 OM OM1 5991 -0.550000 15.99940
5992 OM 5992 OM OM1 5992 -0.550000 15.99940
5993 OM 5993 OM OM1 5993 -0.550000 15.99940
5994 OM 5994 OM OM1 5994 -0.550000 15.99940
5995 OM 5995 OM OM1 5995 -0.550000 15.99940
5996 OM 5996 OM OM1 5996 -0.550000 15.99940
5997 OM 5997 OM OM1 5997 -0.550000 15.99940
5998 OM 5998 OM OM1 5998 -0.550000 15.99940
5999 OM 5999 OM OM1 5999 -0.550000 15.99940
6000 OM 6000 OM OM1 6000 -0.550000 15.99940
6001 OM 6001 OM OM1 6001 -0.550000 15.99940
6002 OM 6002 OM OM1 6002 -0.550000 15.99940
6003 OM 6003 OM OM1 6003 -0.550000 15.99940
6004 OM 6004 OM OM1 6004 -0.550000 15.99940
6005 OM 6005 OM OM1 6005 -0.550000 15.99940
6006 OM 6006 OM OM1 6006 -0.550000 15.99940
6007 OM 6007 OM OM1 6007 -0.550000 15.99940
6008 OM 6008 OM OM1 6008 -0.550000 15.99940
6009 OM 6009 OM OM1 6009 -0.550000 15.99940
6010 OM 6010 OM OM1 6010 -0.550000 15.99940
6011 OM 6011 OM OM1 6011 -0.550000 15.99940
6012 OM 6012 OM OM1 6012 -0.550000 15.99940
6013 OM 6013 OM OM1 6013 -0.550000 15.99940
6014 OM 6014 OM OM1 6014 -0.550000 15.99940
6015 OM 6015 OM OM1 6015 -0.550000 15.99940
6016 OM 6016 OM OM1 6016 -0.550000 15.99940
6017 OM 6017 OM OM1 6017 -0.550000 15.99940
6018 OM 6018 OM OM1 6018 -0.550000 15.99940
6019 OM 6019 OM OM1 6019 -0.550000 15.99940
6020 OM 6020 OM OM1 6020 -0.550000 15.99940
6021 OM 6021 OM OM1 6021 -0.550000 15.99940
6022 OM 6022 OM OM1 6022 -0.550000 15.99940
6023 OM 6023 OM OM1 6023 -0.550000 15.99940
6024 OM 6024 OM OM1 6024 -0.550000 15.99940
6025 OM 6025 OM OM1 6025 -0.550000 15.99940
6026 OM 6026 OM OM1 6026 -0.550000 15.99940
6027 OM 6027 OM OM1 6027 -0.550000 15.99940
6028 OM 6028 OM OM1 6028 -0.550000 15.99940
6029 OM 6029 OM OM1 6029 -0.550000 15.99940
6030 OM 6030 OM OM1 6030 -0.550000 15.99940
6031 OM 6031 OM OM1 6031 -0.550000 15.99940
6032 OM 6032 OM OM1 6032 -0.550000 15.99940
6033 OM 6033 OM OM1 6033 -0.550000 15.99940
6034 OM 6034 OM OM1 6034 -0.550000 15.99940
6035 OM 6035 OM OM1 6035 -0.550000 15.99940
6036 OM 6036 OM OM1 6036 -0.550000 15.99940
6037 OM 6037 OM OM1 6037 -0.550000 15.99940
6038 OM 6038 OM OM1 6038 -0.550000 15.99940
6039 OM 6039 OM OM1 6039 -0.550000 15.99940
6040 OM 6040 OM OM1 6040 -0.550000 15.99940
6041 OM 6041 OM OM1 6041 -0.550000 15.99940
6042 OM 6042 OM OM1 6042 -0.550000 15.99940
6043 OM 6043 OM OM1 6043 -0.550000 15.99940
6044 OM 6044 OM OM1 6044 -0.550000 15.99940
6045 OM 6045 OM OM1 6045 -0.550000 15.99940
6046 OM 6046 OM OM1 6046 -0.550000 15.99940
6047 OM 6047 OM OM1 6047 -0.550000 15.99940
6048 OM 6048 OM OM1 6048 -0.550000 15.99940
6049 OM 6049 OM OM1 6049 -0.550000 15.99940
6050 OM 6050 OM OM1 6050 -0.550000 15.99940
6051 OM 6051 OM OM1 6051 -0.550000 15.99940
6052 OM 6052 OM OM1 6052 -0.550000 15.99940
6053 OM 6053 OM OM1 6053 -0.550000 15.99940
6054 OM 6054 OM OM1 6054 -0.550000 15.99940
6055 OM 6055 OM OM1 6055 -0.550000 15.99940
6056 OM 6056 OM OM1 6056 -0.550000 15.99940
6057 OM 6057 OM OM1 6057 -0.550000 15.99940
6058 OM 6058 OM OM1 6058 -0.550000 15.99940
6059 OM 6059 OM OM1 6059 -0.550000 15.99940
6060 OM 6060 OM OM1 6060 -0.550000 15.99940
6061 OM 6061 OM OM1 6061 -0.550000 15.99940
6062 OM 6062 OM OM1 6062 -0.550000 15.99940
6063 OM 6063 OM OM1 6063 -0.550000 15.99940
6064 OM 6064 OM OM1 6064 -0.550000 15.99940
6065 OM 6065 OM OM1 6065 -0.550000 15.99940
6066 OM 6066 OM OM1 6066 -0.550000 15.99940
6067 OM 6067 OM OM1 6067 -0.550000 15.99940
6068 OM 6068 OM OM1 6068 -0.550000 15.99940
6069 OM 6069 OM OM1 6069 -0.550000 15.99940
6070 OM 6070 OM OM1 6070 -0.550000 15.99940
6071 OM 6071 OM OM1 6071 -0.550000 15.99940
6072 OM 6072 OM OM1 6072 -0.550000 15.99940
6073 OM 6073 OM OM1 6073 -0.550000 15.99940
6074 OM 6074 OM OM1 6074 -0.550000 15.99940
6075 OM 6075 OM OM1 6075 -0.550000 15.99940
6076 OM 6076 OM OM1 6076 -0.550000 15.99940
6077 OM 6077 OM OM1 6077 -0.550000 15.99940
6078 OM 6078 OM OM1 6078 -0.550000 15.99940
6079 OM 6079 OM OM1 6079 -0.550000 15.99940
6080 OM 6080 OM OM1 6080 -0.550000 15.99940
6081 OM 6081 OM OM1 6081 -0.550000 15.99940
6082 OM 6082 OM OM1 6082 -0.550000 15.99940
6083 OM 6083 OM OM1 6083 -0.550000 15.99940
6084 OM 6084 OM OM1 6084 -0.550000 15.99940
6085 OM 6085 OM OM1 6085 -0.550000 15.99940
6086 OM 6086 OM OM1 6086 -0.550000 15.99940
6087 OM 6087 OM OM1 6087 -0.550000 15.99940
6088 OM 6088 OM OM1 6088 -0.550000 15.99940
6089 OM 6089 OM OM1 6089 -0.550000 15.99940
6090 OM 6090 OM OM1 6090 -0.550000 15.99940
6091 OM 6091 OM OM1 6091 -0.550000 15.99940
6092 OM 6092 OM OM1 6092 -0.550000 15.99940
6093 OM 6093 OM OM1 6093 -0.550000 15.99940
6094 OM 6094 OM OM1 6094 -0.550000 15.99940
6095 OM 6095 OM OM1 6095 -0.550000 15.99940
6096 OM 6096 OM OM1 6096 -0.550000 15.99940
6097 OM 6097 OM OM1 6097 -0.550000 15.99940
6098 OM 6098 OM OM1 6098 -0.550000 15.99940
6099 OM 6099 OM OM1 6099 -0.550000 15.99940
6100 OM 6100 OM OM1 6100 -0.550000 15.99940
6101 OM 6101 OM OM1 6101 -0.550000 15.99940
6102 OM 6102 OM OM1 6102 -0.550000 15.99940
6103 OM 6103 OM OM1 6103 -0.550000 15.99940
6104 OM 6104 OM OM1 6104 -0.550000 15.99940
6105 OM 6105 OM OM1 6105 -0.550000 15.99940
6106 OM 6106 OM OM1 6106 -0.550000 15.99940
6107 OM 6107 OM OM1 6107 -0.550000 15.99940
6108 OM 6108 OM OM1 6108 -0.550000 15.99940
6109 OM 6109 OM OM1 6109 -0.550000 15.99940
6110 OM 6110 OM OM1 6110 -0.550000 15.99940
6111 OM 6111 OM OM1 6111 -0.550000 15.99940
6112 OM 6112 OM OM1 6112 -0.550000 15.99940
6113 OM 6113 OM OM1 6113 -0.550000 15.99940
6114 OM 6114 OM OM1 6114 -0.550000 15.99940
6115 OM 6115 OM OM1 6115 -0.550000 15.99940
6116 OM 6116 OM OM1 6116 -0.550000 15.99940
6117 OM 6117 OM OM1 6117 -0.550000 15.99940
6118 OM 6118 OM OM1 6118 -0.550000 15.99940
6119 OM 6119 OM OM1 6119 -0.550000 15.99940
6120 OM 6120 OM OM1 6120 -0.550000 15.99940
6121 OM 6121 OM OM1 6121 -0.550000 15.99940
6122 OM 6122 OM OM1 6122 -0.550000 15.99940
6123 OM 6123 OM OM1 6123 -0.550000 15.99940
6124 OM 6124 OM OM1 6124 -0.550000 15.99940
6125 OM 6125 OM OM1 6125 -0.550000 15.99940
6126 OM 6126 OM OM1 6126 -0.550000 15.99940
6127 OM 6127 OM OM1 6127 -0.550000 15.99940
6128 OM 6128 OM OM1 6128 -0.550000 15.99940
6129 OM 6129 OM OM1 6129 -0.550000 15.99940
6130 OM 6130 OM OM1 6130 -0.550000 15.99940
6131 OM 6131 OM OM1 6131 -0.550000 15.99940
6132 OM 6132 OM OM1 6132 -0.550000 15.99940
6133 OM 6133 OM OM1 6133 -0.550000 15.99940
6134 OM 6134 OM OM1 6134 -0.550000 15.99940
6135 OM 6135 OM OM1 6135 -0.550000 15.99940
6136 OM 6136 OM OM1 6136 -0.550000 15.99940
6137 OM 6137 OM OM1 6137 -0.550000 15.99940
6138 OM 6138 OM OM1 6138 -0.550000 15.99940
6139 OM 6139 OM OM1 6139 -0.550000 15.99940
6140 OM 6140 OM OM1 6140 -0.550000 15.99940
6141 OM 6141 OM OM1 6141 -0.550000 15.99940
6142 OM 6142 OM OM1 6142 -0.550000 15.99940
6143 OM 6143 OM OM1 6143 -0.550000 15.99940
6144 OM 6144 OM OM1 6144 -0.550000 15.99940
6145 OM 6145 OM OM1 6145 -0.550000 15.99940
6146 OM 6146 OM OM1 6146 -0.550000 15.99940
6147 OM 6147 OM OM1 6147 -0.550000 15.99940
6148 OM 6148 OM OM1 6148 -0.550000 15.99940
6149 OM 6149 OM OM1 6149 -0.550000 15.99940
6150 OM 6150 OM OM1 6150 -0.550000 15.99940
6151 OM 6151 OM OM1 6151 -0.550000 15.99940
6152 OM 6152 OM OM1 6152 -0.550000 15.99940
6153 OM 6153 OM OM1 6153 -0.550000 15.99940
6154 OM 6154 OM OM1 6154 -0.550000 15.99940
6155 OM 6155 OM OM1 6155 -0.550000 15.99940
6156 OM 6156 OM OM1 6156 -0.550000 15.99940
6157 OM 6157 OM OM1 6157 -0.550000 15.99940
6158 OM 6158 OM OM1 6158 -0.550000 15.99940
6159 OM 6159 OM OM1 6159 -0.550000 15.99940
6160 OM 6160 OM OM1 6160 -0.550000 15.99940
6161 OM 6161 OM OM1 6161 -0.550000 15.99940
6162 OM 6162 OM OM1 6162 -0.550000 15.99940
6163 OM 6163 OM OM1 6163 -0.550000 15.99940
6164 OM 6164 OM OM1 6164 -0.550000 15.99940
6165 OM 6165 OM OM1 6165 -0.550000 15.99940
6166 OM 6166 OM OM1 6166 -0.550000 15.99940
6167 OM 6167 OM OM1 6167 -0.550000 15.99940
6168 OM 6168 OM OM1 6168 -0.550000 15.99940
6169 OM 6169 OM OM1 6169 -0.550000 15.99940
6170 OM 6170 OM OM1 6170 -0.550000 15.99940
6171 OM 6171 OM OM1 6171 -0.550000 15.99940
6172 OM 6172 OM OM1 6172 -0.550000 15.99940
6173 OM 6173 OM OM1 6173 -0.550000 15.99940
6174 OM 6174 OM OM1 6174 -0.550000 15.99940
6175 OM 6175 OM OM1 6175 -0.550000 15.99940
6176 OM 6176 OM OM1 6176 -0.550000 15.99940
6177 OM 6177 OM OM1 6177 -0.550000 15.99940
6178 OM 6178 OM OM1 6178 -0.550000 15.99940
6179 OM 6179 OM OM1 6179 -0.550000 15.99940
6180 OM 6180 OM OM1 6180 -0.550000 15.99940
6181 OM 6181 OM OM1 6181 -0.550000 15.99940
6182 OM 6182 OM OM1 6182 -0.550000 15.99940
6183 OM 6183 OM OM1 6183 -0.550000 15.99940
6184 OM 6184 OM OM1 6184 -0.550000 15.99940
6185 OM 6185 OM OM1 6185 -0.550000 15.99940
6186 OM 6186 OM OM1 6186 -0.550000 15.99940
6187 OM 6187 OM OM1 6187 -0.550000 15.99940
6188 OM 6188 OM OM1 6188 -0.550000 15.99940
6189 OM 6189 OM OM1 6189 -0.550000 15.99940
6190 OM 6190 OM OM1 6190 -0.550000 15.99940
6191 OM 6191 OM OM1 6191 -0.550000 15.99940
6192 OM 6192 OM OM1 6192 -0.550000 15.99940
6193 OM 6193 OM OM1 6193 -0.550000 15.99940
6194 OM 6194 OM OM1 6194 -0.550000 15.99940
6195 OM 6195 OM OM1 6195 -0.550000 15.99940
6196 OM 6196 OM OM1 6196 -0.550000 15.99940
6197 OM 6197 OM OM1 6197 -0.550000 15.99940
6198 OM 6198 OM OM1 6198 -0.550000 15.99940
6199 OM 6199 OM OM1 6199 -0.550000 15.99940
6200 OM 6200 OM OM1 6200 -0.550000 15.99940
6201 OM 6201 OM OM1 6201 -0.550000 15.99940
6202 OM 6202 OM OM1 6202 -0.550000 15.99940
6203 OM 6203 OM OM1 6203 -0.550000 15.99940
6204 OM 6204 OM OM1 6204 -0.550000 15.99940
6205 OM 6205 OM OM1 6205 -0.550000 15.99940
6206 OM 6206 OM OM1 6206 -0.550000 15.99940
6207 OM 6207 OM OM1 6207 -0.550000 15.99940
6208 OM 6208 OM OM1 6208 -0.550000 15.99940
6209 OM 6209 OM OM1 6209 -0.550000 15.99940
6210 OM 6210 OM OM1 6210 -0.550000 15.99940
6211 OM 6211 OM OM1 6211 -0.550000 15.99940
6212 OM 6212 OM OM1 6212 -0.550000 15.99940
6213 OM 6213 OM OM1 6213 -0.550000 15.99940
6214 OM 6214 OM OM1 6214 -0.550000 15.99940
6215 OM 6215 OM OM1 6215 -0.550000 15.99940
6216 OM 6216 OM OM1 6216 -0.550000 15.99940
6217 OM 6217 OM OM1 6217 -0.550000 15.99940
6218 OM 6218 OM OM1 6218 -0.550000 15.99940
6219 OM 6219 OM OM1 6219 -0.550000 15.99940
6220 OM 6220 OM OM1 6220 -0.550000 15.99940
6221 OM 6221 OM OM1 6221 -0.550000 15.99940
6222 OM 6222 OM OM1 6222 -0.550000 15.99940
6223 OM 6223 OM OM1 6223 -0.550000 15.99940
6224 OM 6224 OM OM1 6224 -0.550000 15.99940
6225 OM 6225 OM OM1 6225 -0.550000 15.99940
6226 OM 6226 OM OM1 6226 -0.550000 15.99940
6227 OM 6227 OM OM1 6227 -0.550000 15.99940
6228 OM 6228 OM OM1 6228 -0.550000 15.99940
6229 OM 6229 OM OM1 6229 -0.550000 15.99940
6230 OM 6230 OM OM1 6230 -0.550000 15.99940
6231 OM 6231 OM OM1 6231 -0.550000 15.99940
6232 OM 6232 OM OM1 6232 -0.550000 15.99940
6233 OM 6233 OM OM1 6233 -0.550000 15.99940
6234 OM 6234 OM OM1 6234 -0.550000 15.99940
6235 OM 6235 OM OM1 6235 -0.550000 15.99940
6236 OM 6236 OM OM1 6236 -0.550000 15.99940
6237 OM 6237 OM OM1 6237 -0.550000 15.99940
6238 OM 6238 OM OM1 6238 -0.550000 15.99940
6239 OM 6239 OM OM1 6239 -0.550000 15.99940
6240 OM 6240 OM OM1 6240 -0.550000 15.99940
6241 OM 6241 OM OM1 6241 -0.550000 15.99940
6242 OM 6242 OM OM1 6242 -0.550000 15.99940
6243 OM 6243 OM OM1 6243 -0.550000 15.99940
6244 OM 6244 OM OM1 6244 -0.550000 15.99940
6245 OM 6245 OM OM1 6245 -0.550000 15.99940
6246 OM 6246 OM OM1 6246 -0.550000 15.99940
6247 OM 6247 OM OM1 6247 -0.550000 15.99940
6248 OM 6248 OM OM1 6248 -0.550000 15.99940
6249 OM 6249 OM OM1 6249 -0.550000 15.99940
6250 OM 6250 OM OM1 6250 -0.550000 15.99940
6251 OM 6251 OM OM1 6251 -0.550000 15.99940
6252 OM 6252 OM OM1 6252 -0.550000 15.99940
6253 OM 6253 OM OM1 6253 -0.550000 15.99940
6254 OM 6254 OM OM1 6254 -0.550000 15.99940
6255 OM 6255 OM OM1 6255 -0.550000 15.99940
6256 OM 6256 OM OM1 6256 -0.550000 15.99940
6257 OM 6257 OM OM1 6257 -0.550000 15.99940
6258 OM 6258 OM OM1 6258 -0.550000 15.99940
6259 OM 6259 OM OM1 6259 -0.550000 15.99940
6260 OM 6260 OM OM1 6260 -0.550000 15.99940
6261 OM 6261 OM OM1 6261 -0.550000 15.99940
6262 OM 6262 OM OM1 6262 -0.550000 15.99940
6263 OM 6263 OM OM1 6263 -0.550000 15.99940
6264 OM 6264 OM OM1 6264 -0.550000 15.99940
6265 OM 6265 OM OM1 6265 -0.550000 15.99940
6266 OM 6266 OM OM1 6266 -0.550000 15.99940
6267 OM 6267 OM OM1 6267 -0.550000 15.99940
6268 OM 6268 OM OM1 6268 -0.550000 15.99940
6269 OM 6269 OM OM1 6269 -0.550000 15.99940
6270 OM 6270 OM OM1 6270 -0.550000 15.99940
6271 OM 6271 OM OM1 6271 -0.550000 15.99940
6272 OM 6272 OM OM1 6272 -0.550000 15.99940
6273 OM 6273 OM OM1 6273 -0.550000 15.99940
6274 OM 6274 OM OM1 6274 -0.550000 15.99940
6275 OM 6275 OM OM1 6275 -0.550000 15.99940
6276 OM 6276 OM OM1 6276 -0.550000 15.99940
6277 OM 6277 OM OM1 6277 -0.550000 15.99940
6278 OM 6278 OM OM1 6278 -0.550000 15.99940
6279 OM 6279 OM OM1 6279 -0.550000 15.99940
6280 OM 6280 OM OM1 6280 -0.550000 15.99940
6281 OM 6281 OM OM1 6281 -0.550000 15.99940
6282 OM 6282 OM OM1 6282 -0.550000 15.99940
6283 OM 6283 OM OM1 6283 -0.550000 15.99940
6284 OM 6284 OM OM1 6284 -0.550000 15.99940
6285 OM 6285 OM OM1 6285 -0.550000 15.99940
6286 OM 6286 OM OM1 6286 -0.550000 15.99940
6287 OM 6287 OM OM1 6287 -0.550000 15.99940
6288 OM 6288 OM OM1 6288 -0.550000 15.99940
6289 OM 6289 OM OM1 6289 -0.550000 15.99940
6290 OM 6290 OM OM1 6290 -0.550000 15.99940
6291 OM 6291 OM OM1 6291 -0.550000 15.99940
6292 OM 6292 OM OM1 6292 -0.550000 15.99940
6293 OM 6293 OM OM1 6293 -0.550000 15.99940
6294 OM 6294 OM OM1 6294 -0.550000 15.99940
6295 OM 6295 OM OM1 6295 -0.550000 15.99940
6296 OM 6296 OM OM1 6296 -0.550000 15.99940
6297 OM 6297 OM OM1 6297 -0.550000 15.99940
6298 OM 6298 OM OM1 6298 -0.550000 15.99940
6299 OM 6299 OM OM1 6299 -0.550000 15.99940
6300 OM 6300 OM OM1 6300 -0.550000 15.99940
6301 OM 6301 OM OM1 6301 -0.550000 15.99940
6302 OM 6302 OM OM1 6302 -0.550000 15.99940
6303 OM 6303 OM OM1 6303 -0.550000 15.99940
6304 OM 6304 OM OM1 6304 -0.550000 15.99940
6305 OM 6305 OM OM1 6305 -0.550000 15.99940
6306 OM 6306 OM OM1 6306 -0.550000 15.99940
6307 OM 6307 OM OM1 6307 -0.550000 15.99940
6308 OM 6308 OM OM1 6308 -0.550000 15.99940
6309 OM 6309 OM OM1 6309 -0.550000 15.99940
6310 OM 6310 OM OM1 6310 -0.550000 15.99940
6311 OM 6311 OM OM1 6311 -0.550000 15.99940
6312 OM 6312 OM OM1 6312 -0.550000 15.99940
6313 OM 6313 OM OM1 6313 -0.550000 15.99940
6314 OM 6314 OM OM1 6314 -0.550000 15.99940
6315 OM 6315 OM OM1 6315 -0.550000 15.99940
6316 OM 6316 OM OM1 6316 -0.550000 15.99940
6317 OM 6317 OM OM1 6317 -0.550000 15.99940
6318 OM 6318 OM OM1 6318 -0.550000 15.99940
6319 OM 6319 OM OM1 6319 -0.550000 15.99940
6320 OM 6320 OM OM1 6320 -0.550000 15.99940
6321 OM 6321 OM OM1 6321 -0.550000 15.99940
6322 OM 6322 OM OM1 6322 -0.550000 15.99940
6323 OM 6323 OM OM1 6323 -0.550000 15.99940
6324 OM 6324 OM OM1 6324 -0.550000 15.99940
6325 OM 6325 OM OM1 6325 -0.550000 15.99940
6326 OM 6326 OM OM1 6326 -0.550000 15.99940
6327 OM 6327 OM OM1 6327 -0.550000 15.99940
6328 OM 6328 OM OM1 6328 -0.550000 15.99940
6329 OM 6329 OM OM1 6329 -0.550000 15.99940
6330 OM 6330 OM OM1 6330 -0.550000 15.99940
6331 OM 6331 OM OM1 6331 -0.550000 15.99940
6332 OM 6332 OM OM1 6332 -0.550000 15.99940
6333 OM 6333 OM OM1 6333 -0.550000 15.99940
6334 OM 6334 OM OM1 6334 -0.550000 15.99940
6335 OM 6335 OM OM1 6335 -0.550000 15.99940
6336 OM 6336 OM OM1 6336 -0.550000 15.99940
6337 OM 6337 OM OM1 6337 -0.550000 15.99940
6338 OM 6338 OM OM1 6338 -0.550000 15.99940
6339 OM 6339 OM OM1 6339 -0.550000 15.99940
6340 OM 6340 OM OM1 6340 -0.550000 15.99940
6341 OM 6341 OM OM1 6341 -0.550000 15.99940
6342 OM 6342 OM OM1 6342 -0.550000 15.99940
6343 OM 6343 OM OM1 6343 -0.550000 15.99940
6344 OM 6344 OM OM1 6344 -0.550000 15.99940
6345 OM 6345 OM OM1 6345 -0.550000 15.99940
6346 OM 6346 OM OM1 6346 -0.550000 15.99940
6347 OM 6347 OM OM1 6347 -0.550000 15.99940
6348 OM 6348 OM OM1 6348 -0.550000 15.99940
6349 OM 6349 OM OM1 6349 -0.550000 15.99940
6350 OM 6350 OM OM1 6350 -0.550000 15.99940
6351 OM 6351 OM OM1 6351 -0.550000 15.99940
6352 OM 6352 OM OM1 6352 -0.550000 15.99940
6353 OM 6353 OM OM1 6353 -0.550000 15.99940
6354 OM 6354 OM OM1 6354 -0.550000 15.99940
6355 OM 6355 OM OM1 6355 -0.550000 15.99940
6356 OM 6356 OM OM1 6356 -0.550000 15.99940
6357 OM 6357 OM OM1 6357 -0.550000 15.99940
6358 OM 6358 OM OM1 6358 -0.550000 15.99940
6359 OM 6359 OM OM1 6359 -0.550000 15.99940
6360 OM 6360 OM OM1 6360 -0.550000 15.99940
6361 OM 6361 OM OM1 6361 -0.550000 15.99940
6362 OM 6362 OM OM1 6362 -0.550000 15.99940
6363 OM 6363 OM OM1 6363 -0.550000 15.99940
6364 OM 6364 OM OM1 6364 -0.550000 15.99940
6365 OM 6365 OM OM1 6365 -0.550000 15.99940
6366 OM 6366 OM OM1 6366 -0.550000 15.99940
6367 OM 6367 OM OM1 6367 -0.550000 15.99940
6368 OM 6368 OM OM1 6368 -0.550000 15.99940
6369 OM 6369 OM OM1 6369 -0.550000 15.99940
6370 OM 6370 OM OM1 6370 -0.550000 15.99940
6371 OM 6371 OM OM1 6371 -0.550000 15.99940
6372 OM 6372 OM OM1 6372 -0.550000 15.99940
6373 OM 6373 OM OM1 6373 -0.550000 15.99940
6374 OM 6374 OM OM1 6374 -0.550000 15.99940
6375 OM 6375 OM OM1 6375 -0.550000 15.99940
6376 OM 6376 OM OM1 6376 -0.550000 15.99940
6377 OM 6377 OM OM1 6377 -0.550000 15.99940
6378 OM 6378 OM OM1 6378 -0.550000 15.99940
6379 OM 6379 OM OM1 6379 -0.550000 15.99940
6380 OM 6380 OM OM1 6380 -0.550000 15.99940
6381 OM 6381 OM OM1 6381 -0.550000 15.99940
6382 OM 6382 OM OM1 6382 -0.550000 15.99940
6383 OM 6383 OM OM1 6383 -0.550000 15.99940
6384 OM 6384 OM OM1 6384 -0.550000 15.99940
6385 OM 6385 OM OM1 6385 -0.550000 15.99940
6386 OM 6386 OM OM1 6386 -0.550000 15.99940
6387 OM 6387 OM OM1 6387 -0.550000 15.99940
6388 OM 6388 OM OM1 6388 -0.550000 15.99940
6389 OM 6389 OM OM1 6389 -0.550000 15.99940
6390 OM 6390 OM OM1 6390 -0.550000 15.99940
6391 OM 6391 OM OM1 6391 -0.550000 15.99940
6392 OM 6392 OM OM1 6392 -0.550000 15.99940
6393 OM 6393 OM OM1 6393 -0.550000 15.99940
6394 OM 6394 OM OM1 6394 -0.550000 15.99940
6395 OM 6395 OM OM1 6395 -0.550000 15.99940
6396 OM 6396 OM OM1 6396 -0.550000 15.99940
6397 OM 6397 OM OM1 6397 -0.550000 15.99940
6398 OM 6398 OM OM1 6398 -0.550000 15.99940
6399 OM 6399 OM OM1 6399 -0.550000 15.99940
6400 OM 6400 OM OM1 6400 -0.550000 15.99940
6401 OM 6401 OM OM1 6401 -0.550000 15.99940
6402 OM 6402 OM OM1 6402 -0.550000 15.99940
6403 OM 6403 OM OM1 6403 -0.550000 15.99940
6404 OM 6404 OM OM1 6404 -0.550000 15.99940
6405 OM 6405 OM OM1 6405 -0.550000 15.99940
6406 OM 6406 OM OM1 6406 -0.550000 15.99940
6407 OM 6407 OM OM1 6407 -0.550000 15.99940
6408 OM 6408 OM OM1 6408 -0.550000 15.99940
6409 OM 6409 OM OM1 6409 -0.550000 15.99940
6410 OM 6410 OM OM1 6410 -0.550000 15.99940
6411 OM 6411 OM OM1 6411 -0.550000 15.99940
6412 OM 6412 OM OM1 6412 -0.550000 15.99940
6413 OM 6413 OM OM1 6413 -0.550000 15.99940
6414 OM 6414 OM OM1 6414 -0.550000 15.99940
6415 OM 6415 OM OM1 6415 -0.550000 15.99940
6416 OM 6416 OM OM1 6416 -0.550000 15.99940
6417 OM 6417 OM OM1 6417 -0.550000 15.99940
6418 OM 6418 OM OM1 6418 -0.550000 15.99940
6419 OM 6419 OM OM1 6419 -0.550000 15.99940
6420 OM 6420 OM OM1 6420 -0.550000 15.99940
6421 OM 6421 OM OM1 6421 -0.550000 15.99940
6422 OM 6422 OM OM1 6422 -0.550000 15.99940
6423 OM 6423 OM OM1 6423 -0.550000 15.99940
6424 OM 6424 OM OM1 6424 -0.550000 15.99940
6425 OM 6425 OM OM1 6425 -0.550000 15.99940
6426 OM 6426 OM OM1 6426 -0.550000 15.99940
6427 OM 6427 OM OM1 6427 -0.550000 15.99940
6428 OM 6428 OM OM1 6428 -0.550000 15.99940
6429 OM 6429 OM OM1 6429 -0.550000 15.99940
6430 OM 6430 OM OM1 6430 -0.550000 15.99940
6431 OM 6431 OM OM1 6431 -0.550000 15.99940
6432 OM 6432 OM OM1 6432 -0.550000 15.99940
6433 OM 6433 OM OM1 6433 -0.550000 15.99940
6434 OM 6434 OM OM1 6434 -0.550000 15.99940
6435 OM 6435 OM OM1 6435 -0.550000 15.99940
6436 OM 6436 OM OM1 6436 -0.550000 15.99940
6437 OM 6437 OM OM1 6437 -0.550000 15.99940
6438 OM 6438 OM OM1 6438 -0.550000 15.99940
6439 OM 6439 OM OM1 6439 -0.550000 15.99940
6440 OM 6440 OM OM1 6440 -0.550000 15.99940
6441 OM 6441 OM OM1 6441 -0.550000 15.99940
6442 OM 6442 OM OM1 6442 -0.550000 15.99940
6443 OM 6443 OM OM1 6443 -0.550000 15.99940
6444 OM 6444 OM OM1 6444 -0.550000 15.99940
6445 OM 6445 OM OM1 6445 -0.550000 15.99940
6446 OM 6446 OM OM1 6446 -0.550000 15.99940
6447 OM 6447 OM OM1 6447 -0.550000 15.99940
6448 OM 6448 OM OM1 6448 -0.550000 15.99940
6449 OM 6449 OM OM1 6449 -0.550000 15.99940
6450 OM 6450 OM OM1 6450 -0.550000 15.99940
6451 OM 6451 OM OM1 6451 -0.550000 15.99940
6452 OM 6452 OM OM1 6452 -0.550000 15.99940
6453 OM 6453 OM OM1 6453 -0.550000 15.99940
6454 OM 6454 OM OM1 6454 -0.550000 15.99940
6455 OM 6455 OM OM1 6455 -0.550000 15.99940
6456 OM 6456 OM OM1 6456 -0.550000 15.99940
6457 OM 6457 OM OM1 6457 -0.550000 15.99940
6458 OM 6458 OM OM1 6458 -0.550000 15.99940
6459 OM 6459 OM OM1 6459 -0.550000 15.99940
6460 OM 6460 OM OM1 6460 -0.550000 15.99940
6461 OM 6461 OM OM1 6461 -0.550000 15.99940
6462 OM 6462 OM OM1 6462 -0.550000 15.99940
6463 OM 6463 OM OM1 6463 -0.550000 15.99940
6464 OM 6464 OM OM1 6464 -0.550000 15.99940
6465 OM 6465 OM OM1 6465 -0.550000 15.99940
6466 OM 6466 OM OM1 6466 -0.550000 15.99940
6467 OM 6467 OM OM1 6467 -0.550000 15.99940
6468 OM 6468 OM OM1 6468 -0.550000 15.99940
6469 OM 6469 OM OM1 6469 -0.550000 15.99940
6470 OM 6470 OM OM1 6470 -0.550000 15.99940
6471 OM 6471 OM OM1 6471 -0.550000 15.99940
6472 OM 6472 OM OM1 6472 -0.550000 15.99940
6473 OM 6473 OM OM1 6473 -0.550000 15.99940
6474 OM 6474 OM OM1 6474 -0.550000 15.99940
6475 OM 6475 OM OM1 6475 -0.550000 15.99940
6476 OM 6476 OM OM1 6476 -0.550000 15.99940
6477 OM 6477 OM OM1 6477 -0.550000 15.99940
6478 OM 6478 OM OM1 6478 -0.550000 15.99940
6479 OM 6479 OM OM1 6479 -0.550000 15.99940
6480 OM 6480 OM OM1 6480 -0.550000 15.99940
6481 OM 6481 OM OM1 6481 -0.550000 15.99940
6482 OM 6482 OM OM1 6482 -0.550000 15.99940
6483 OM 6483 OM OM1 6483 -0.550000 15.99940
6484 OM 6484 OM OM1 6484 -0.550000 15.99940
6485 OM 6485 OM OM1 6485 -0.550000 15.99940
6486 OM 6486 OM OM1 6486 -0.550000 15.99940
6487 OM 6487 OM OM1 6487 -0.550000 15.99940
6488 OM 6488 OM OM1 6488 -0.550000 15.99940
6489 OM 6489 OM OM1 6489 -0.550000 15.99940
6490 OM 6490 OM OM1 6490 -0.550000 15.99940
6491 OM 6491 OM OM1 6491 -0.550000 15.99940
6492 OM 6492 OM OM1 6492 -0.550000 15.99940
6493 OM 6493 OM OM1 6493 -0.550000 15.99940
6494 OM 6494 OM OM1 6494 -0.550000 15.99940
6495 OM 6495 OM OM1 6495 -0.550000 15.99940
6496 OM 6496 OM OM1 6496 -0.550000 15.99940
6497 OM 6497 OM OM1 6497 -0.550000 15.99940
6498 OM 6498 OM OM1 6498 -0.550000 15.99940
6499 OM 6499 OM OM1 6499 -0.550000 15.99940
6500 OM 6500 OM OM1 6500 -0.550000 15.99940
6501 OM 6501 OM OM1 6501 -0.550000 15.99940
6502 OM 6502 OM OM1 6502 -0.550000 15.99940
6503 OM 6503 OM OM1 6503 -0.550000 15.99940
6504 OM 6504 OM OM1 6504 -0.550000 15.99940
6505 OM 6505 OM OM1 6505 -0.550000 15.99940
6506 OM 6506 OM OM1 6506 -0.550000 15.99940
6507 OM 6507 OM OM1 6507 -0.550000 15.99940
6508 OM 6508 OM OM1 6508 -0.550000 15.99940
6509 OM 6509 OM OM1 6509 -0.550000 15.99940
6510 OM 6510 OM OM1 6510 -0.550000 15.99940
6511 OM 6511 OM OM1 6511 -0.550000 15.99940
6512 OM 6512 OM OM1 6512 -0.550000 15.99940
6513 OM 6513 OM OM1 6513 -0.550000 15.99940
6514 OM 6514 OM OM1 6514 -0.550000 15.99940
6515 OM 6515 OM OM1 6515 -0.550000 15.99940
6516 OM 6516 OM OM1 6516 -0.550000 15.99940
6517 OM 6517 OM OM1 6517 -0.550000 15.99940
6518 OM 6518 OM OM1 6518 -0.550000 15.99940
6519 OM 6519 OM OM1 6519 -0.550000 15.99940
6520 OM 6520 OM OM1 6520 -0.550000 15.99940
6521 OM 6521 OM OM1 6521 -0.550000 15.99940
6522 OM 6522 OM OM1 6522 -0.550000 15.99940
6523 OM 6523 OM OM1 6523 -0.550000 15.99940
6524 OM 6524 OM OM1 6524 -0.550000 15.99940
6525 OM 6525 OM OM1 6525 -0.550000 15.99940
6526 OM 6526 OM OM1 6526 -0.550000 15.99940
6527 OM 6527 OM OM1 6527 -0.550000 15.99940
6528 OM 6528 OM OM1 6528 -0.550000 15.99940
6529 OM 6529 OM OM1 6529 -0.550000 15.99940
6530 OM 6530 OM OM1 6530 -0.550000 15.99940
6531 OM 6531 OM OM1 6531 -0.550000 15.99940
6532 OM 6532 OM OM1 6532 -0.550000 15.99940
6533 OM 6533 OM OM1 6533 -0.550000 15.99940
6534 OM 6534 OM OM1 6534 -0.550000 15.99940
6535 OM 6535 OM OM1 6535 -0.550000 15.99940
6536 OM 6536 OM OM1 6536 -0.550000 15.99940
6537 OM 6537 OM OM1 6537 -0.550000 15.99940
6538 OM 6538 OM OM1 6538 -0.550000 15.99940
6539 OM 6539 OM OM1 6539 -0.550000 15.99940
6540 OM 6540 OM OM1 6540 -0.550000 15.99940
6541 OM 6541 OM OM1 6541 -0.550000 15.99940
6542 OM 6542 OM OM1 6542 -0.550000 15.99940
6543 OM 6543 OM OM1 6543 -0.550000 15.99940
6544 OM 6544 OM OM1 6544 -0.550000 15.99940
6545 OM 6545 OM OM1 6545 -0.550000 15.99940
6546 OM 6546 OM OM1 6546 -0.550000 15.99940
6547 OM 6547 OM OM1 6547 -0.550000 15.99940
6548 OM 6548 OM OM1 6548 -0.550000 15.99940
6549 OM 6549 OM OM1 6549 -0.550000 15.99940
6550 OM 6550 OM OM1 6550 -0.550000 15.99940
6551 OM 6551 OM OM1 6551 -0.550000 15.99940
6552 OM 6552 OM OM1 6552 -0.550000 15.99940
6553 OM 6553 OM OM1 6553 -0.550000 15.99940
6554 OM 6554 OM OM1 6554 -0.550000 15.99940
6555 OM 6555 OM OM1 6555 -0.550000 15.99940
6556 OM 6556 OM OM1 6556 -0.550000 15.99940
6557 OM 6557 OM OM1 6557 -0.550000 15.99940
6558 OM 6558 OM OM1 6558 -0.550000 15.99940
6559 OM 6559 OM OM1 6559 -0.550000 15.99940
6560 OM 6560 OM OM1 6560 -0.550000 15.99940
6561 OM 6561 OM OM1 6561 -0.550000 15.99940
6562 OM 6562 OM OM1 6562 -0.550000 15.99940
6563 OM 6563 OM OM1 6563 -0.550000 15.99940
6564 OM 6564 OM OM1 6564 -0.550000 15.99940
6565 OM 6565 OM OM1 6565 -0.550000 15.99940
6566 OM 6566 OM OM1 6566 -0.550000 15.99940
6567 OM 6567 OM OM1 6567 -0.550000 15.99940
6568 OM 6568 OM OM1 6568 -0.550000 15.99940
6569 OM 6569 OM OM1 6569 -0.550000 15.99940
6570 OM 6570 OM OM1 6570 -0.550000 15.99940
6571 OM 6571 OM OM1 6571 -0.550000 15.99940
6572 OM 6572 OM OM1 6572 -0.550000 15.99940
6573 OM 6573 OM OM1 6573 -0.550000 15.99940
6574 OM 6574 OM OM1 6574 -0.550000 15.99940
6575 OM 6575 OM OM1 6575 -0.550000 15.99940
6576 OM 6576 OM OM1 6576 -0.550000 15.99940
6577 OM 6577 OM OM1 6577 -0.550000 15.99940
6578 OM 6578 OM OM1 6578 -0.550000 15.99940
6579 OM 6579 OM OM1 6579 -0.550000 15.99940
6580 OM 6580 OM OM1 6580 -0.550000 15.99940
6581 OM 6581 OM OM1 6581 -0.550000 15.99940
6582 OM 6582 OM OM1 6582 -0.550000 15.99940
6583 OM 6583 OM OM1 6583 -0.550000 15.99940
6584 OM 6584 OM OM1 6584 -0.550000 15.99940
6585 OM 6585 OM OM1 6585 -0.550000 15.99940
6586 OM 6586 OM OM1 6586 -0.550000 15.99940
6587 OM 6587 OM OM1 6587 -0.550000 15.99940
6588 OM 6588 OM OM1 6588 -0.550000 15.99940
6589 OM 6589 OM OM1 6589 -0.550000 15.99940
6590 OM 6590 OM OM1 6590 -0.550000 15.99940
6591 OM 6591 OM OM1 6591 -0.550000 15.99940
6592 OM 6592 OM OM1 6592 -0.550000 15.99940
6593 OM 6593 OM OM1 6593 -0.550000 15.99940
6594 OM 6594 OM OM1 6594 -0.550000 15.99940
6595 OM 6595 OM OM1 6595 -0.550000 15.99940
6596 OM 6596 OM OM1 6596 -0.550000 15.99940
6597 OM 6597 OM OM1 6597 -0.550000 15.99940
6598 OM 6598 OM OM1 6598 -0.550000 15.99940
6599 OM 6599 OM OM1 6599 -0.550000 15.99940
6600 OM 6600 OM OM1 6600 -0.550000 15.99940
6601 OM 6601 OM OM1 6601 -0.550000 15.99940
6602 OM 6602 OM OM1 6602 -0.550000 15.99940
6603 OM 6603 OM OM1 6603 -0.550000 15.99940
6604 OM 6604 OM OM1 6604 -0.550000 15.99940
6605 OM 6605 OM OM1 6605 -0.550000 15.99940
6606 OM 6606 OM OM1 6606 -0.550000 15.99940
6607 OM 6607 OM OM1 6607 -0.550000 15.99940
6608 OM 6608 OM OM1 6608 -0.550000 15.99940
6609 OM 6609 OM OM1 6609 -0.550000 15.99940
6610 OM 6610 OM OM1 6610 -0.550000 15.99940
6611 OM 6611 OM OM1 6611 -0.550000 15.99940
6612 OM 6612 OM OM1 6612 -0.550000 15.99940
6613 OM 6613 OM OM1 6613 -0.550000 15.99940
6614 OM 6614 OM OM1 6614 -0.550000 15.99940
6615 OM 6615 OM OM1 6615 -0.550000 15.99940
6616 OM 6616 OM OM1 6616 -0.550000 15.99940
6617 OM 6617 OM OM1 6617 -0.550000 15.99940
6618 OM 6618 OM OM1 6618 -0.550000 15.99940
6619 OM 6619 OM OM1 6619 -0.550000 15.99940
6620 OM 6620 OM OM1 6620 -0.550000 15.99940
6621 OM 6621 OM OM1 6621 -0.550000 15.99940
6622 OM 6622 OM OM1 6622 -0.550000 15.99940
6623 OM 6623 OM OM1 6623 -0.550000 15.99940
6624 OM 6624 OM OM1 6624 -0.550000 15.99940
6625 OM 6625 OM OM1 6625 -0.550000 15.99940
6626 OM 6626 OM OM1 6626 -0.550000 15.99940
6627 OM 6627 OM OM1 6627 -0.550000 15.99940
6628 OM 6628 OM OM1 6628 -0.550000 15.99940
6629 OM 6629 OM OM1 6629 -0.550000 15.99940
6630 OM 6630 OM OM1 6630 -0.550000 15.99940
6631 OM 6631 OM OM1 6631 -0.550000 15.99940
6632 OM 6632 OM OM1 6632 -0.550000 15.99940
6633 OM 6633 OM OM1 6633 -0.550000 15.99940
6634 OM 6634 OM OM1 6634 -0.550000 15.99940
6635 OM 6635 OM OM1 6635 -0.550000 15.99940
6636 OM 6636 OM OM1 6636 -0.550000 15.99940
6637 OM 6637 OM OM1 6637 -0.550000 15.99940
6638 OM 6638 OM OM1 6638 -0.550000 15.99940
6639 OM 6639 OM OM1 6639 -0.550000 15.99940
6640 OM 6640 OM OM1 6640 -0.550000 15.99940
6641 OM 6641 OM OM1 6641 -0.550000 15.99940
6642 OM 6642 OM OM1 6642 -0.550000 15.99940
6643 OM 6643 OM OM1 6643 -0.550000 15.99940
6644 OM 6644 OM OM1 6644 -0.550000 15.99940
6645 OM 6645 OM OM1 6645 -0.550000 15.99940
6646 OM 6646 OM OM1 6646 -0.550000 15.99940
6647 OM 6647 OM OM1 6647 -0.550000 15.99940
6648 OM 6648 OM OM1 6648 -0.550000 15.99940
6649 OM 6649 OM OM1 6649 -0.550000 15.99940
6650 OM 6650 OM OM1 6650 -0.550000 15.99940
6651 OM 6651 OM OM1 6651 -0.550000 15.99940
6652 OM 6652 OM OM1 6652 -0.550000 15.99940
6653 OM 6653 OM OM1 6653 -0.550000 15.99940
6654 OM 6654 OM OM1 6654 -0.550000 15.99940
6655 OM 6655 OM OM1 6655 -0.550000 15.99940
6656 OM 6656 OM OM1 6656 -0.550000 15.99940
6657 OM 6657 OM OM1 6657 -0.550000 15.99940
6658 OM 6658 OM OM1 6658 -0.550000 15.99940
6659 OM 6659 OM OM1 6659 -0.550000 15.99940
6660 OM 6660 OM OM1 6660 -0.550000 15.99940
6661 OM 6661 OM OM1 6661 -0.550000 15.99940
6662 OM 6662 OM OM1 6662 -0.550000 15.99940
6663 OM 6663 OM OM1 6663 -0.550000 15.99940
6664 OM 6664 OM OM1 6664 -0.550000 15.99940
6665 OM 6665 OM OM1 6665 -0.550000 15.99940
6666 OM 6666 OM OM1 6666 -0.550000 15.99940
6667 OM 6667 OM OM1 6667 -0.550000 15.99940
6668 OM 6668 OM OM1 6668 -0.550000 15.99940
6669 OM 6669 OM OM1 6669 -0.550000 15.99940
6670 OM 6670 OM OM1 6670 -0.550000 15.99940
6671 OM 6671 OM OM1 6671 -0.550000 15.99940
6672 OM 6672 OM OM1 6672 -0.550000 15.99940
6673 OM 6673 OM OM1 6673 -0.550000 15.99940
6674 OM 6674 OM OM1 6674 -0.550000 15.99940
6675 OM 6675 OM OM1 6675 -0.550000 15.99940
6676 OM 6676 OM OM1 6676 -0.550000 15.99940
6677 OM 6677 OM OM1 6677 -0.550000 15.99940
6678 OM 6678 OM OM1 6678 -0.550000 15.99940
6679 OM 6679 OM OM1 6679 -0.550000 15.99940
6680 OM 6680 OM OM1 6680 -0.550000 15.99940
6681 OM 6681 OM OM1 6681 -0.550000 15.99940
6682 OM 6682 OM OM1 6682 -0.550000 15.99940
6683 OM 6683 OM OM1 6683 -0.550000 15.99940
6684 OM 6684 OM OM1 6684 -0.550000 15.99940
6685 OM 6685 OM OM1 6685 -0.550000 15.99940
6686 OM 6686 OM OM1 6686 -0.550000 15.99940
6687 OM 6687 OM OM1 6687 -0.550000 15.99940
6688 OM 6688 OM OM1 6688 -0.550000 15.99940
6689 OM 6689 OM OM1 6689 -0.550000 15.99940
6690 OM 6690 OM OM1 6690 -0.550000 15.99940
6691 OM 6691 OM OM1 6691 -0.550000 15.99940
6692 OM 6692 OM OM1 6692 -0.550000 15.99940
6693 OM 6693 OM OM1 6693 -0.550000 15.99940
6694 OM 6694 OM OM1 6694 -0.550000 15.99940
6695 OM 6695 OM OM1 6695 -0.550000 15.99940
6696 OM 6696 OM OM1 6696 -0.550000 15.99940
6697 OM 6697 OM OM1 6697 -0.550000 15.99940
6698 OM 6698 OM OM1 6698 -0.550000 15.99940
6699 OM 6699 OM OM1 6699 -0.550000 15.99940
6700 OM 6700 OM OM1 6700 -0.550000 15.99940
6701 OM 6701 OM OM1 6701 -0.550000 15.99940
6702 OM 6702 OM OM1 6702 -0.550000 15.99940
6703 OM 6703 OM OM1 6703 -0.550000 15.99940
6704 OM 6704 OM OM1 6704 -0.550000 15.99940
6705 OM 6705 OM OM1 6705 -0.550000 15.99940
6706 OM 6706 OM OM1 6706 -0.550000 15.99940
6707 OM 6707 OM OM1 6707 -0.550000 15.99940
6708 OM 6708 OM OM1 6708 -0.550000 15.99940
6709 OM 6709 OM OM1 6709 -0.550000 15.99940
6710 OM 6710 OM OM1 6710 -0.550000 15.99940
6711 OM 6711 OM OM1 6711 -0.550000 15.99940
6712 OM 6712 OM OM1 6712 -0.550000 15.99940
6713 OM 6713 OM OM1 6713 -0.550000 15.99940
6714 OM 6714 OM OM1 6714 -0.550000 15.99940
6715 OM 6715 OM OM1 6715 -0.550000 15.99940
6716 OM 6716 OM OM1 6716 -0.550000 15.99940
6717 OM 6717 OM OM1 6717 -0.550000 15.99940
6718 OM 6718 OM OM1 6718 -0.550000 15.99940
6719 OM 6719 OM OM1 6719 -0.550000 15.99940
6720 OM 6720 OM OM1 6720 -0.550000 15.99940
6721 OM 6721 OM OM1 6721 -0.550000 15.99940
6722 OM 6722 OM OM1 6722 -0.550000 15.99940
6723 OM 6723 OM OM1 6723 -0.550000 15.99940
6724 OM 6724 OM OM1 6724 -0.550000 15.99940
6725 OM 6725 OM OM1 6725 -0.550000 15.99940
6726 OM 6726 OM OM1 6726 -0.550000 15.99940
6727 OM 6727 OM OM1 6727 -0.550000 15.99940
6728 OM 6728 OM OM1 6728 -0.550000 15.99940
6729 OM 6729 OM OM1 6729 -0.550000 15.99940
6730 OM 6730 OM OM1 6730 -0.550000 15.99940
6731 OM 6731 OM OM1 6731 -0.550000 15.99940
6732 OM 6732 OM OM1 6732 -0.550000 15.99940
6733 OM 6733 OM OM1 6733 -0.550000 15.99940
6734 OM 6734 OM OM1 6734 -0.550000 15.99940
6735 OM 6735 OM OM1 6735 -0.550000 15.99940
6736 OM 6736 OM OM1 6736 -0.550000 15.99940
6737 OM 6737 OM OM1 6737 -0.550000 15.99940
6738 OM 6738 OM OM1 6738 -0.550000 15.99940
6739 OM 6739 OM OM1 6739 -0.550000 15.99940
6740 OM 6740 OM OM1 6740 -0.550000 15.99940
6741 OM 6741 OM OM1 6741 -0.550000 15.99940
6742 OM 6742 OM OM1 6742 -0.550000 15.99940
6743 OM 6743 OM OM1 6743 -0.550000 15.99940
6744 OM 6744 OM OM1 6744 -0.550000 15.99940
6745 OM 6745 OM OM1 6745 -0.550000 15.99940
6746 OM 6746 OM OM1 6746 -0.550000 15.99940
6747 OM 6747 OM OM1 6747 -0.550000 15.99940
6748 OM 6748 OM OM1 6748 -0.550000 15.99940
6749 OM 6749 OM OM1 6749 -0.550000 15.99940
6750 OM 6750 OM OM1 6750 -0.550000 15.99940
6751 OM 6751 OM OM1 6751 -0.550000 15.99940
6752 OM 6752 OM OM1 6752 -0.550000 15.99940
6753 OM 6753 OM OM1 6753 -0.550000 15.99940
6754 OM 6754 OM OM1 6754 -0.550000 15.99940
6755 OM 6755 OM OM1 6755 -0.550000 15.99940
6756 OM 6756 OM OM1 6756 -0.550000 15.99940
6757 OM 6757 OM OM1 6757 -0.550000 15.99940
6758 OM 6758 OM OM1 6758 -0.550000 15.99940
6759 OM 6759 OM OM1 6759 -0.550000 15.99940
6760 OM 6760 OM OM1 6760 -0.550000 15.99940
6761 OM 6761 OM OM1 6761 -0.550000 15.99940
6762 OM 6762 OM OM1 6762 -0.550000 15.99940
6763 OM 6763 OM OM1 6763 -0.550000 15.99940
6764 OM 6764 OM OM1 6764 -0.550000 15.99940
6765 OM 6765 OM OM1 6765 -0.550000 15.99940
6766 OM 6766 OM OM1 6766 -0.550000 15.99940
6767 OM 6767 OM OM1 6767 -0.550000 15.99940
6768 OM 6768 OM OM1 6768 -0.550000 15.99940
6769 OM 6769 OM OM1 6769 -0.550000 15.99940
6770 OM 6770 OM OM1 6770 -0.550000 15.99940
6771 OM 6771 OM OM1 6771 -0.550000 15.99940
6772 OM 6772 OM OM1 6772 -0.550000 15.99940
6773 OM 6773 OM OM1 6773 -0.550000 15.99940
6774 OM 6774 OM OM1 6774 -0.550000 15.99940
6775 OM 6775 OM OM1 6775 -0.550000 15.99940
6776 OM 6776 OM OM1 6776 -0.550000 15.99940
6777 OM 6777 OM OM1 6777 -0.550000 15.99940
6778 OM 6778 OM OM1 6778 -0.550000 15.99940
6779 OM 6779 OM OM1 6779 -0.550000 15.99940
6780 OM 6780 OM OM1 6780 -0.550000 15.99940
6781 OM 6781 OM OM1 6781 -0.550000 15.99940
6782 OM 6782 OM OM1 6782 -0.550000 15.99940
6783 OM 6783 OM OM1 6783 -0.550000 15.99940
6784 OM 6784 OM OM1 6784 -0.550000 15.99940
6785 OM 6785 OM OM1 6785 -0.550000 15.99940
6786 OM 6786 OM OM1 6786 -0.550000 15.99940
6787 OM 6787 OM OM1 6787 -0.550000 15.99940
6788 OM 6788 OM OM1 6788 -0.550000 15.99940
6789 OM 6789 OM OM1 6789 -0.550000 15.99940
6790 OM 6790 OM OM1 6790 -0.550000 15.99940
6791 OM 6791 OM OM1 6791 -0.550000 15.99940
6792 OM 6792 OM OM1 6792 -0.550000 15.99940
6793 OM 6793 OM OM1 6793 -0.550000 15.99940
6794 OM 6794 OM OM1 6794 -0.550000 15.99940
6795 OM 6795 OM OM1 6795 -0.550000 15.99940
6796 OM 6796 OM OM1 6796 -0.550000 15.99940
6797 OM 6797 OM OM1 6797 -0.550000 15.99940
6798 OM 6798 OM OM1 6798 -0.550000 15.99940
6799 OM 6799 OM OM1 6799 -0.550000 15.99940
6800 OM 6800 OM OM1 6800 -0.550000 15.99940
6801 OM 6801 OM OM1 6801 -0.550000 15.99940
6802 OM 6802 OM OM1 6802 -0.550000 15.99940
6803 OM 6803 OM OM1 6803 -0.550000 15.99940
6804 OM 6804 OM OM1 6804 -0.550000 15.99940
6805 OM 6805 OM OM1 6805 -0.550000 15.99940
6806 OM 6806 OM OM1 6806 -0.550000 15.99940
6807 OM 6807 OM OM1 6807 -0.550000 15.99940
6808 OM 6808 OM OM1 6808 -0.550000 15.99940
6809 OM 6809 OM OM1 6809 -0.550000 15.99940
6810 OM 6810 OM OM1 6810 -0.550000 15.99940
6811 OM 6811 OM OM1 6811 -0.550000 15.99940
6812 OM 6812 OM OM1 6812 -0.550000 15.99940
6813 OM 6813 OM OM1 6813 -0.550000 15.99940
6814 OM 6814 OM OM1 6814 -0.550000 15.99940
6815 OM 6815 OM OM1 6815 -0.550000 15.99940
6816 OM 6816 OM OM1 6816 -0.550000 15.99940
6817 OM 6817 OM OM1 6817 -0.550000 15.99940
6818 OM 6818 OM OM1 6818 -0.550000 15.99940
6819 OM 6819 OM OM1 6819 -0.550000 15.99940
6820 OM 6820 OM OM1 6820 -0.550000 15.99940
6821 OM 6821 OM OM1 6821 -0.550000 15.99940
6822 OM 6822 OM OM1 6822 -0.550000 15.99940
6823 OM 6823 OM OM1 6823 -0.550000 15.99940
6824 OM 6824 OM OM1 6824 -0.550000 15.99940
6825 OM 6825 OM OM1 6825 -0.550000 15.99940
6826 OM 6826 OM OM1 6826 -0.550000 15.99940
6827 OM 6827 OM OM1 6827 -0.550000 15.99940
6828 OM 6828 OM OM1 6828 -0.550000 15.99940
6829 OM 6829 OM OM1 6829 -0.550000 15.99940
6830 OM 6830 OM OM1 6830 -0.550000 15.99940
6831 OM 6831 OM OM1 6831 -0.550000 15.99940
6832 OM 6832 OM OM1 6832 -0.550000 15.99940
6833 OM 6833 OM OM1 6833 -0.550000 15.99940
6834 OM 6834 OM OM1 6834 -0.550000 15.99940
6835 OM 6835 OM OM1 6835 -0.550000 15.99940
6836 OM 6836 OM OM1 6836 -0.550000 15.99940
6837 OM 6837 OM OM1 6837 -0.550000 15.99940
6838 OM 6838 OM OM1 6838 -0.550000 15.99940
6839 OM 6839 OM OM1 6839 -0.550000 15.99940
6840 OM 6840 OM OM1 6840 -0.550000 15.99940
6841 OM 6841 OM OM1 6841 -0.550000 15.99940
6842 OM 6842 OM OM1 6842 -0.550000 15.99940
6843 OM 6843 OM OM1 6843 -0.550000 15.99940
6844 OM 6844 OM OM1 6844 -0.550000 15.99940
6845 OM 6845 OM OM1 6845 -0.550000 15.99940
6846 OM 6846 OM OM1 6846 -0.550000 15.99940
6847 OM 6847 OM OM1 6847 -0.550000 15.99940
6848 OM 6848 OM OM1 6848 -0.550000 15.99940
6849 OM 6849 OM OM1 6849 -0.550000 15.99940
6850 OM 6850 OM OM1 6850 -0.550000 15.99940
6851 OM 6851 OM OM1 6851 -0.550000 15.99940
6852 OM 6852 OM OM1 6852 -0.550000 15.99940
6853 OM 6853 OM OM1 6853 -0.550000 15.99940
6854 OM 6854 OM OM1 6854 -0.550000 15.99940
6855 OM 6855 OM OM1 6855 -0.550000 15.99940
6856 OM 6856 OM OM1 6856 -0.550000 15.99940
6857 OM 6857 OM OM1 6857 -0.550000 15.99940
6858 OM 6858 OM OM1 6858 -0.550000 15.99940
6859 OM 6859 OM OM1 6859 -0.550000 15.99940
6860 OM 6860 OM OM1 6860 -0.550000 15.99940
6861 OM 6861 OM OM1 6861 -0.550000 15.99940
6862 OM 6862 OM OM1 6862 -0.550000 15.99940
6863 OM 6863 OM OM1 6863 -0.550000 15.99940
6864 OM 6864 OM OM1 6864 -0.550000 15.99940
6865 OM 6865 OM OM1 6865 -0.550000 15.99940
6866 OM 6866 OM OM1 6866 -0.550000 15.99940
6867 OM 6867 OM OM1 6867 -0.550000 15.99940
6868 OM 6868 OM OM1 6868 -0.550000 15.99940
6869 OM 6869 OM OM1 6869 -0.550000 15.99940
6870 OM 6870 OM OM1 6870 -0.550000 15.99940
6871 OM 6871 OM OM1 6871 -0.550000 15.99940
6872 OM 6872 OM OM1 6872 -0.550000 15.99940
6873 OM 6873 OM OM1 6873 -0.550000 15.99940
6874 OM 6874 OM OM1 6874 -0.550000 15.99940
6875 OM 6875 OM OM1 6875 -0.550000 15.99940
6876 OM 6876 OM OM1 6876 -0.550000 15.99940
6877 OM 6877 OM OM1 6877 -0.550000 15.99940
6878 OM 6878 OM OM1 6878 -0.550000 15.99940
6879 OM 6879 OM OM1 6879 -0.550000 15.99940
6880 OM 6880 OM OM1 6880 -0.550000 15.99940
6881 OM 6881 OM OM1 6881 -0.550000 15.99940
6882 OM 6882 OM OM1 6882 -0.550000 15.99940
6883 OM 6883 OM OM1 6883 -0.550000 15.99940
6884 OM 6884 OM OM1 6884 -0.550000 15.99940
6885 OM 6885 OM OM1 6885 -0.550000 15.99940
6886 OM 6886 OM OM1 6886 -0.550000 15.99940
6887 OM 6887 OM OM1 6887 -0.550000 15.99940
6888 OM 6888 OM OM1 6888 -0.550000 15.99940
6889 OM 6889 OM OM1 6889 -0.550000 15.99940
6890 OM 6890 OM OM1 6890 -0.550000 15.99940
6891 OM 6891 OM OM1 6891 -0.550000 15.99940
6892 OM 6892 OM OM1 6892 -0.550000 15.99940
6893 OM 6893 OM OM1 6893 -0.550000 15.99940
6894 OM 6894 OM OM1 6894 -0.550000 15.99940
6895 OM 6895 OM OM1 6895 -0.550000 15.99940
6896 OM 6896 OM OM1 6896 -0.550000 15.99940
6897 OM 6897 OM OM1 6897 -0.550000 15.99940
6898 OM 6898 OM OM1 6898 -0.550000 15.99940
6899 OM 6899 OM OM1 6899 -0.550000 15.99940
6900 OM 6900 OM OM1 6900 -0.550000 15.99940
6901 OM 6901 OM OM1 6901 -0.550000 15.99940
6902 OM 6902 OM OM1 6902 -0.550000 15.99940
6903 OM 6903 OM OM1 6903 -0.550000 15.99940
6904 OM 6904 OM OM1 6904 -0.550000 15.99940
6905 OM 6905 OM OM1 6905 -0.550000 15.99940
6906 OM 6906 OM OM1 6906 -0.550000 15.99940
6907 OM 6907 OM OM1 6907 -0.550000 15.99940
6908 OM 6908 OM OM1 6908 -0.550000 15.99940
6909 OM 6909 OM OM1 6909 -0.550000 15.99940
6910 OM 6910 OM OM1 6910 -0.550000 15.99940
6911 OM 6911 OM OM1 6911 -0.550000 15.99940
6912 OM 6912 OM OM1 6912 -0.550000 15.99940
6913 OM 6913 OM OM1 6913 -0.550000 15.99940
6914 OM 6914 OM OM1 6914 -0.550000 15.99940
6915 OM 6915 OM OM1 6915 -0.550000 15.99940
6916 OM 6916 OM OM1 6916 -0.550000 15.99940
6917 OM 6917 OM OM1 6917 -0.550000 15.99940
6918 OM 6918 OM OM1 6918 -0.550000 15.99940
6919 OM 6919 OM OM1 6919 -0.550000 15.99940
6920 OM 6920 OM OM1 6920 -0.550000 15.99940
6921 OM 6921 OM OM1 6921 -0.550000 15.99940
6922 OM 6922 OM OM1 6922 -0.550000 15.99940
6923 OM 6923 OM OM1 6923 -0.550000 15.99940
6924 OM 6924 OM OM1 6924 -0.550000 15.99940
6925 OM 6925 OM OM1 6925 -0.550000 15.99940
6926 OM 6926 OM OM1 6926 -0.550000 15.99940
6927 OM 6927 OM OM1 6927 -0.550000 15.99940
6928 OM 6928 OM OM1 6928 -0.550000 15.99940
6929 OM 6929 OM OM1 6929 -0.550000 15.99940
6930 OM 6930 OM OM1 6930 -0.550000 15.99940
6931 OM 6931 OM OM1 6931 -0.550000 15.99940
6932 OM 6932 OM OM1 6932 -0.550000 15.99940
6933 OM 6933 OM OM1 6933 -0.550000 15.99940
6934 OM 6934 OM OM1 6934 -0.550000 15.99940
6935 OM 6935 OM OM1 6935 -0.550000 15.99940
6936 OM 6936 OM OM1 6936 -0.550000 15.99940
6937 OM 6937 OM OM1 6937 -0.550000 15.99940
6938 OM 6938 OM OM1 6938 -0.550000 15.99940
6939 OM 6939 OM OM1 6939 -0.550000 15.99940
6940 OM 6940 OM OM1 6940 -0.550000 15.99940
6941 OM 6941 OM OM1 6941 -0.550000 15.99940
6942 OM 6942 OM OM1 6942 -0.550000 15.99940
6943 OM 6943 OM OM1 6943 -0.550000 15.99940
6944 OM 6944 OM OM1 6944 -0.550000 15.99940
6945 OM 6945 OM OM1 6945 -0.550000 15.99940
6946 OM 6946 OM OM1 6946 -0.550000 15.99940
6947 OM 6947 OM OM1 6947 -0.550000 15.99940
6948 OM 6948 OM OM1 6948 -0.550000 15.99940
6949 OM 6949 OM OM1 6949 -0.550000 15.99940
6950 OM 6950 OM OM1 6950 -0.550000 15.99940
6951 OM 6951 OM OM1 6951 -0.550000 15.99940
6952 OM 6952 OM OM1 6952 -0.550000 15.99940
6953 OM 6953 OM OM1 6953 -0.550000 15.99940
6954 OM 6954 OM OM1 6954 -0.550000 15.99940
6955 OM 6955 OM OM1 6955 -0.550000 15.99940
6956 OM 6956 OM OM1 6956 -0.550000 15.99940
6957 OM 6957 OM OM1 6957 -0.550000 15.99940
6958 OM 6958 OM OM1 6958 -0.550000 15.99940
6959 OM 6959 OM OM1 6959 -0.550000 15.99940
6960 OM 6960 OM OM1 6960 -0.550000 15.99940
6961 OM 6961 OM OM1 6961 -0.550000 15.99940
6962 OM 6962 OM OM1 6962 -0.550000 15.99940
6963 OM 6963 OM OM1 6963 -0.550000 15.99940
6964 OM 6964 OM OM1 6964 -0.550000 15.99940
6965 OM 6965 OM OM1 6965 -0.550000 15.99940
6966 OM 6966 OM OM1 6966 -0.550000 15.99940
6967 OM 6967 OM OM1 6967 -0.550000 15.99940
6968 OM 6968 OM OM1 6968 -0.550000 15.99940
6969 OM 6969 OM OM1 6969 -0.550000 15.99940
6970 OM 6970 OM OM1 6970 -0.550000 15.99940
6971 OM 6971 OM OM1 6971 -0.550000 15.99940
6972 OM 6972 OM OM1 6972 -0.550000 15.99940
6973 OM 6973 OM OM1 6973 -0.550000 15.99940
6974 OM 6974 OM OM1 6974 -0.550000 15.99940
6975 OM 6975 OM OM1 6975 -0.550000 15.99940
6976 OM 6976 OM OM1 6976 -0.550000 15.99940
6977 OM 6977 OM OM1 6977 -0.550000 15.99940
6978 OM 6978 OM OM1 6978 -0.550000 15.99940
6979 OM 6979 OM OM1 6979 -0.550000 15.99940
6980 OM 6980 OM OM1 6980 -0.550000 15.99940
6981 OM 6981 OM OM1 6981 -0.550000 15.99940
6982 OM 6982 OM OM1 6982 -0.550000 15.99940
6983 OM 6983 OM OM1 6983 -0.550000 15.99940
6984 OM 6984 OM OM1 6984 -0.550000 15.99940
6985 OM 6985 OM OM1 6985 -0.550000 15.99940
6986 OM 6986 OM OM1 6986 -0.550000 15.99940
6987 OM 6987 OM OM1 6987 -0.550000 15.99940
6988 OM 6988 OM OM1 6988 -0.550000 15.99940
6989 OM 6989 OM OM1 6989 -0.550000 15.99940
6990 OM 6990 OM OM1 6990 -0.550000 15.99940
6991 OM 6991 OM OM1 6991 -0.550000 15.99940
6992 OM 6992 OM OM1 6992 -0.550000 15.99940
6993 OM 6993 OM OM1 6993 -0.550000 15.99940
6994 OM 6994 OM OM1 6994 -0.550000 15.99940
6995 OM 6995 OM OM1 6995 -0.550000 15.99940
6996 OM 6996 OM OM1 6996 -0.550000 15.99940
6997 OM 6997 OM OM1 6997 -0.550000 15.99940
6998 OM 6998 OM OM1 6998 -0.550000 15.99940
6999 OM 6999 OM OM1 6999 -0.550000 15.99940
7000 OM 7000 OM OM1 7000 -0.550000 15.99940
7001 OM 7001 OM OM1 7001 -0.550000 15.99940
7002 OM 7002 OM OM1 7002 -0.550000 15.99940
7003 OM 7003 OM OM1 7003 -0.550000 15.99940
7004 OM 7004 OM OM1 7004 -0.550000 15.99940
7005 OM 7005 OM OM1 7005 -0.550000 15.99940
7006 OM 7006 OM OM1 7006 -0.550000 15.99940
7007 OM 7007 OM OM1 7007 -0.550000 15.99940
7008 OM 7008 OM OM1 7008 -0.550000 15.99940
7009 OM 7009 OM OM1 7009 -0.550000 15.99940
7010 OM 7010 OM OM1 7010 -0.550000 15.99940
7011 OM 7011 OM OM1 7011 -0.550000 15.99940
7012 OM 7012 OM OM1 7012 -0.550000 15.99940
7013 OM 7013 OM OM1 7013 -0.550000 15.99940
7014 OM 7014 OM OM1 7014 -0.550000 15.99940
7015 OM 7015 OM OM1 7015 -0.550000 15.99940
7016 OM 7016 OM OM1 7016 -0.550000 15.99940
7017 OM 7017 OM OM1 7017 -0.550000 15.99940
7018 OM 7018 OM OM1 7018 -0.550000 15.99940
7019 OM 7019 OM OM1 7019 -0.550000 15.99940
7020 OM 7020 OM OM1 7020 -0.550000 15.99940
7021 OM 7021 OM OM1 7021 -0.550000 15.99940
7022 OM 7022 OM OM1 7022 -0.550000 15.99940
7023 OM 7023 OM OM1 7023 -0.550000 15.99940
7024 OM 7024 OM OM1 7024 -0.550000 15.99940
7025 OM 7025 OM OM1 7025 -0.550000 15.99940
7026 OM 7026 OM OM1 7026 -0.550000 15.99940
7027 OM 7027 OM OM1 7027 -0.550000 15.99940
7028 OM 7028 OM OM1 7028 -0.550000 15.99940
7029 OM 7029 OM OM1 7029 -0.550000 15.99940
7030 OM 7030 OM OM1 7030 -0.550000 15.99940
7031 OM 7031 OM OM1 7031 -0.550000 15.99940
7032 OM 7032 OM OM1 7032 -0.550000 15.99940
7033 OM 7033 OM OM1 7033 -0.550000 15.99940
7034 OM 7034 OM OM1 7034 -0.550000 15.99940
7035 OM 7035 OM OM1 7035 -0.550000 15.99940
7036 OM 7036 OM OM1 7036 -0.550000 15.99940
7037 OM 7037 OM OM1 7037 -0.550000 15.99940
7038 OM 7038 OM OM1 7038 -0.550000 15.99940
7039 OM 7039 OM OM1 7039 -0.550000 15.99940
7040 OM 7040 OM OM1 7040 -0.550000 15.99940
7041 OM 7041 OM OM1 7041 -0.550000 15.99940
7042 OM 7042 OM OM1 7042 -0.550000 15.99940
7043 OM 7043 OM OM1 7043 -0.550000 15.99940
7044 OM 7044 OM OM1 7044 -0.550000 15.99940
7045 OM 7045 OM OM1 7045 -0.550000 15.99940
7046 OM 7046 OM OM1 7046 -0.550000 15.99940
7047 OM 7047 OM OM1 7047 -0.550000 15.99940
7048 OM 7048 OM OM1 7048 -0.550000 15.99940
7049 OM 7049 OM OM1 7049 -0.550000 15.99940
7050 OM 7050 OM OM1 7050 -0.550000 15.99940
7051 OM 7051 OM OM1 7051 -0.550000 15.99940
7052 OM 7052 OM OM1 7052 -0.550000 15.99940
7053 OM 7053 OM OM1 7053 -0.550000 15.99940
7054 OM 7054 OM OM1 7054 -0.550000 15.99940
7055 OM 7055 OM OM1 7055 -0.550000 15.99940
7056 OM 7056 OM OM1 7056 -0.550000 15.99940
7057 OM 7057 OM OM1 7057 -0.550000 15.99940
7058 OM 7058 OM OM1 7058 -0.550000 15.99940
7059 OM 7059 OM OM1 7059 -0.550000 15.99940
7060 OM 7060 OM OM1 7060 -0.550000 15.99940
7061 OM 7061 OM OM1 7061 -0.550000 15.99940
7062 OM 7062 OM OM1 7062 -0.550000 15.99940
7063 OM 7063 OM OM1 7063 -0.550000 15.99940
7064 OM 7064 OM OM1 7064 -0.550000 15.99940
7065 OM 7065 OM OM1 7065 -0.550000 15.99940
7066 OM 7066 OM OM1 7066 -0.550000 15.99940
7067 OM 7067 OM OM1 7067 -0.550000 15.99940
7068 OM 7068 OM OM1 7068 -0.550000 15.99940
7069 OM 7069 OM OM1 7069 -0.550000 15.99940
7070 OM 7070 OM OM1 7070 -0.550000 15.99940
7071 OM 7071 OM OM1 7071 -0.550000 15.99940
7072 OM 7072 OM OM1 7072 -0.550000 15.99940
7073 OM 7073 OM OM1 7073 -0.550000 15.99940
7074 OM 7074 OM OM1 7074 -0.550000 15.99940
7075 OM 7075 OM OM1 7075 -0.550000 15.99940
7076 OM 7076 OM OM1 7076 -0.550000 15.99940
7077 OM 7077 OM OM1 7077 -0.550000 15.99940
7078 OM 7078 OM OM1 7078 -0.550000 15.99940
7079 OM 7079 OM OM1 7079 -0.550000 15.99940
7080 OM 7080 OM OM1 7080 -0.550000 15.99940
7081 OM 7081 OM OM1 7081 -0.550000 15.99940
7082 OM 7082 OM OM1 7082 -0.550000 15.99940
7083 OM 7083 OM OM1 7083 -0.550000 15.99940
7084 OM 7084 OM OM1 7084 -0.550000 15.99940
7085 OM 7085 OM OM1 7085 -0.550000 15.99940
7086 OM 7086 OM OM1 7086 -0.550000 15.99940
7087 OM 7087 OM OM1 7087 -0.550000 15.99940
7088 OM 7088 OM OM1 7088 -0.550000 15.99940
7089 OM 7089 OM OM1 7089 -0.550000 15.99940
7090 OM 7090 OM OM1 7090 -0.550000 15.99940
7091 OM 7091 OM OM1 7091 -0.550000 15.99940
7092 OM 7092 OM OM1 7092 -0.550000 15.99940
7093 OM 7093 OM OM1 7093 -0.550000 15.99940
7094 OM 7094 OM OM1 7094 -0.550000 15.99940
7095 OM 7095 OM OM1 7095 -0.550000 15.99940
7096 OM 7096 OM OM1 7096 -0.550000 15.99940
7097 OM 7097 OM OM1 7097 -0.550000 15.99940
7098 OM 7098 OM OM1 7098 -0.550000 15.99940
7099 OM 7099 OM OM1 7099 -0.550000 15.99940
7100 OM 7100 OM OM1 7100 -0.550000 15.99940
7101 OM 7101 OM OM1 7101 -0.550000 15.99940
7102 OM 7102 OM OM1 7102 -0.550000 15.99940
7103 OM 7103 OM OM1 7103 -0.550000 15.99940
7104 OM 7104 OM OM1 7104 -0.550000 15.99940
7105 OM 7105 OM OM1 7105 -0.550000 15.99940
7106 OM 7106 OM OM1 7106 -0.550000 15.99940
7107 OM 7107 OM OM1 7107 -0.550000 15.99940
7108 OM 7108 OM OM1 7108 -0.550000 15.99940
7109 OM 7109 OM OM1 7109 -0.550000 15.99940
7110 OM 7110 OM OM1 7110 -0.550000 15.99940
7111 OM 7111 OM OM1 7111 -0.550000 15.99940
7112 OM 7112 OM OM1 7112 -0.550000 15.99940
7113 OM 7113 OM OM1 7113 -0.550000 15.99940
7114 OM 7114 OM OM1 7114 -0.550000 15.99940
7115 OM 7115 OM OM1 7115 -0.550000 15.99940
7116 OM 7116 OM OM1 7116 -0.550000 15.99940
7117 OM 7117 OM OM1 7117 -0.550000 15.99940
7118 OM 7118 OM OM1 7118 -0.550000 15.99940
7119 OM 7119 OM OM1 7119 -0.550000 15.99940
7120 OM 7120 OM OM1 7120 -0.550000 15.99940
7121 OM 7121 OM OM1 7121 -0.550000 15.99940
7122 OM 7122 OM OM1 7122 -0.550000 15.99940
7123 OM 7123 OM OM1 7123 -0.550000 15.99940
7124 OM 7124 OM OM1 7124 -0.550000 15.99940
7125 OM 7125 OM OM1 7125 -0.550000 15.99940
7126 OM 7126 OM OM1 7126 -0.550000 15.99940
7127 OM 7127 OM OM1 7127 -0.550000 15.99940
7128 OM 7128 OM OM1 7128 -0.550000 15.99940
7129 OM 7129 OM OM1 7129 -0.550000 15.99940
7130 OM 7130 OM OM1 7130 -0.550000 15.99940
7131 OM 7131 OM OM1 7131 -0.550000 15.99940
7132 OM 7132 OM OM1 7132 -0.550000 15.99940
7133 OM 7133 OM OM1 7133 -0.550000 15.99940
7134 OM 7134 OM OM1 7134 -0.550000 15.99940
7135 OM 7135 OM OM1 7135 -0.550000 15.99940
7136 OM 7136 OM OM1 7136 -0.550000 15.99940
7137 OM 7137 OM OM1 7137 -0.550000 15.99940
7138 OM 7138 OM OM1 7138 -0.550000 15.99940
7139 OM 7139 OM OM1 7139 -0.550000 15.99940
7140 OM 7140 OM OM1 7140 -0.550000 15.99940
7141 OM 7141 OM OM1 7141 -0.550000 15.99940
7142 OM 7142 OM OM1 7142 -0.550000 15.99940
7143 OM 7143 OM OM1 7143 -0.550000 15.99940
7144 OM 7144 OM OM1 7144 -0.550000 15.99940
7145 OM 7145 OM OM1 7145 -0.550000 15.99940
7146 OM 7146 OM OM1 7146 -0.550000 15.99940
7147 OM 7147 OM OM1 7147 -0.550000 15.99940
7148 OM 7148 OM OM1 7148 -0.550000 15.99940
7149 OM 7149 OM OM1 7149 -0.550000 15.99940
7150 OM 7150 OM OM1 7150 -0.550000 15.99940
7151 OM 7151 OM OM1 7151 -0.550000 15.99940
7152 OM 7152 OM OM1 7152 -0.550000 15.99940
7153 OM 7153 OM OM1 7153 -0.550000 15.99940
7154 OM 7154 OM OM1 7154 -0.550000 15.99940
7155 OM 7155 OM OM1 7155 -0.550000 15.99940
7156 OM 7156 OM OM1 7156 -0.550000 15.99940
7157 OM 7157 OM OM1 7157 -0.550000 15.99940
7158 OM 7158 OM OM1 7158 -0.550000 15.99940
7159 OM 7159 OM OM1 7159 -0.550000 15.99940
7160 OM 7160 OM OM1 7160 -0.550000 15.99940
7161 OM 7161 OM OM1 7161 -0.550000 15.99940
7162 OM 7162 OM OM1 7162 -0.550000 15.99940
7163 OM 7163 OM OM1 7163 -0.550000 15.99940
7164 OM 7164 OM OM1 7164 -0.550000 15.99940
7165 OM 7165 OM OM1 7165 -0.550000 15.99940
7166 OM 7166 OM OM1 7166 -0.550000 15.99940
7167 OM 7167 OM OM1 7167 -0.550000 15.99940
7168 OM 7168 OM OM1 7168 -0.550000 15.99940
7169 OM 7169 OM OM1 7169 -0.550000 15.99940
7170 OM 7170 OM OM1 7170 -0.550000 15.99940
7171 OM 7171 OM OM1 7171 -0.550000 15.99940
7172 OM 7172 OM OM1 7172 -0.550000 15.99940
7173 OM 7173 OM OM1 7173 -0.550000 15.99940
7174 OM 7174 OM OM1 7174 -0.550000 15.99940
7175 OM 7175 OM OM1 7175 -0.550000 15.99940
7176 OM 7176 OM OM1 7176 -0.550000 15.99940
7177 OM 7177 OM OM1 7177 -0.550000 15.99940
7178 OM 7178 OM OM1 7178 -0.550000 15.99940
7179 OM 7179 OM OM1 7179 -0.550000 15.99940
7180 OM 7180 OM OM1 7180 -0.550000 15.99940
7181 OM 7181 OM OM1 7181 -0.550000 15.99940
7182 OM 7182 OM OM1 7182 -0.550000 15.99940
7183 OM 7183 OM OM1 7183 -0.550000 15.99940
7184 OM 7184 OM OM1 7184 -0.550000 15.99940
7185 OM 7185 OM OM1 7185 -0.550000 15.99940
7186 OM 7186 OM OM1 7186 -0.550000 15.99940
7187 OM 7187 OM OM1 7187 -0.550000 15.99940
7188 OM 7188 OM OM1 7188 -0.550000 15.99940
7189 OM 7189 OM OM1 7189 -0.550000 15.99940
7190 OM 7190 OM OM1 7190 -0.550000 15.99940
7191 OM 7191 OM OM1 7191 -0.550000 15.99940
7192 OM 7192 OM OM1 7192 -0.550000 15.99940
7193 OM 7193 OM OM1 7193 -0.550000 15.99940
7194 OM 7194 OM OM1 7194 -0.550000 15.99940
7195 OM 7195 OM OM1 7195 -0.550000 15.99940
7196 OM 7196 OM OM1 7196 -0.550000 15.99940
7197 OM 7197 OM OM1 7197 -0.550000 15.99940
7198 OM 7198 OM OM1 7198 -0.550000 15.99940
7199 OM 7199 OM OM1 7199 -0.550000 15.99940
7200 OM 7200 OM OM1 7200 -0.550000 15.99940
7201 OM 7201 OM OM1 7201 -0.550000 15.99940
7202 OM 7202 OM OM1 7202 -0.550000 15.99940
7203 OM 7203 OM OM1 7203 -0.550000 15.99940
7204 OM 7204 OM OM1 7204 -0.550000 15.99940
7205 OM 7205 OM OM1 7205 -0.550000 15.99940
7206 OM 7206 OM OM1 7206 -0.550000 15.99940
7207 OM 7207 OM OM1 7207 -0.550000 15.99940
7208 OM 7208 OM OM1 7208 -0.550000 15.99940
7209 OM 7209 OM OM1 7209 -0.550000 15.99940
7210 OM 7210 OM OM1 7210 -0.550000 15.99940
7211 OM 7211 OM OM1 7211 -0.550000 15.99940
7212 OM 7212 OM OM1 7212 -0.550000 15.99940
7213 OM 7213 OM OM1 7213 -0.550000 15.99940
7214 OM 7214 OM OM1 7214 -0.550000 15.99940
7215 OM 7215 OM OM1 7215 -0.550000 15.99940
7216 OM 7216 OM OM1 7216 -0.550000 15.99940
7217 OM 7217 OM OM1 7217 -0.550000 15.99940
7218 OM 7218 OM OM1 7218 -0.550000 15.99940
7219 OM 7219 OM OM1 7219 -0.550000 15.99940
7220 OM 7220 OM OM1 7220 -0.550000 15.99940
7221 OM 7221 OM OM1 7221 -0.550000 15.99940
7222 OM 7222 OM OM1 7222 -0.550000 15.99940
7223 OM 7223 OM OM1 7223 -0.550000 15.99940
7224 OM 7224 OM OM1 7224 -0.550000 15.99940
7225 OM 7225 OM OM1 7225 -0.550000 15.99940
7226 OM 7226 OM OM1 7226 -0.550000 15.99940
7227 OM 7227 OM OM1 7227 -0.550000 15.99940
7228 OM 7228 OM OM1 7228 -0.550000 15.99940
7229 OM 7229 OM OM1 7229 -0.550000 15.99940
7230 OM 7230 OM OM1 7230 -0.550000 15.99940
7231 OM 7231 OM OM1 7231 -0.550000 15.99940
7232 OM 7232 OM OM1 7232 -0.550000 15.99940
7233 OM 7233 OM OM1 7233 -0.550000 15.99940
7234 OM 7234 OM OM1 7234 -0.550000 15.99940
7235 OM 7235 OM OM1 7235 -0.550000 15.99940
7236 OM 7236 OM OM1 7236 -0.550000 15.99940
7237 OM 7237 OM OM1 7237 -0.550000 15.99940
7238 OM 7238 OM OM1 7238 -0.550000 15.99940
7239 OM 7239 OM OM1 7239 -0.550000 15.99940
7240 OM 7240 OM OM1 7240 -0.550000 15.99940
7241 OM 7241 OM OM1 7241 -0.550000 15.99940
7242 OM 7242 OM OM1 7242 -0.550000 15.99940
7243 OM 7243 OM OM1 7243 -0.550000 15.99940
7244 OM 7244 OM OM1 7244 -0.550000 15.99940
7245 OM 7245 OM OM1 7245 -0.550000 15.99940
7246 OM 7246 OM OM1 7246 -0.550000 15.99940
7247 OM 7247 OM OM1 7247 -0.550000 15.99940
7248 OM 7248 OM OM1 7248 -0.550000 15.99940
7249 OM 7249 OM OM1 7249 -0.550000 15.99940
7250 OM 7250 OM OM1 7250 -0.550000 15.99940
7251 OM 7251 OM OM1 7251 -0.550000 15.99940
7252 OM 7252 OM OM1 7252 -0.550000 15.99940
7253 OM 7253 OM OM1 7253 -0.550000 15.99940
7254 OM 7254 OM OM1 7254 -0.550000 15.99940
7255 OM 7255 OM OM1 7255 -0.550000 15.99940
7256 OM 7256 OM OM1 7256 -0.550000 15.99940
7257 OM 7257 OM OM1 7257 -0.550000 15.99940
7258 OM 7258 OM OM1 7258 -0.550000 15.99940
7259 OM 7259 OM OM1 7259 -0.550000 15.99940
7260 OM 7260 OM OM1 7260 -0.550000 15.99940
7261 OM 7261 OM OM1 7261 -0.550000 15.99940
7262 OM 7262 OM OM1 7262 -0.550000 15.99940
7263 OM 7263 OM OM1 7263 -0.550000 15.99940
7264 OM 7264 OM OM1 7264 -0.550000 15.99940
7265 OM 7265 OM OM1 7265 -0.550000 15.99940
7266 OM 7266 OM OM1 7266 -0.550000 15.99940
7267 OM 7267 OM OM1 7267 -0.550000 15.99940
7268 OM 7268 OM OM1 7268 -0.550000 15.99940
7269 OM 7269 OM OM1 7269 -0.550000 15.99940
7270 OM 7270 OM OM1 7270 -0.550000 15.99940
7271 OM 7271 OM OM1 7271 -0.550000 15.99940
7272 OM 7272 OM OM1 7272 -0.550000 15.99940
7273 OM 7273 OM OM1 7273 -0.550000 15.99940
7274 OM 7274 OM OM1 7274 -0.550000 15.99940
7275 OM 7275 OM OM1 7275 -0.550000 15.99940
7276 OM 7276 OM OM1 7276 -0.550000 15.99940
7277 OM 7277 OM OM1 7277 -0.550000 15.99940
7278 OM 7278 OM OM1 7278 -0.550000 15.99940
7279 OM 7279 OM OM1 7279 -0.550000 15.99940
7280 OM 7280 OM OM1 7280 -0.550000 15.99940
7281 OM 7281 OM OM1 7281 -0.550000 15.99940
7282 OM 7282 OM OM1 7282 -0.550000 15.99940
7283 OM 7283 OM OM1 7283 -0.550000 15.99940
7284 OM 7284 OM OM1 7284 -0.550000 15.99940
7285 OM 7285 OM OM1 7285 -0.550000 15.99940
7286 OM 7286 OM OM1 7286 -0.550000 15.99940
7287 OM 7287 OM OM1 7287 -0.550000 15.99940
7288 OM 7288 OM OM1 7288 -0.550000 15.99940
7289 OM 7289 OM OM1 7289 -0.550000 15.99940
7290 OM 7290 OM OM1 7290 -0.550000 15.99940
7291 OM 7291 OM OM1 7291 -0.550000 15.99940
7292 OM 7292 OM OM1 7292 -0.550000 15.99940
7293 OM 7293 OM OM1 7293 -0.550000 15.99940
7294 OM 7294 OM OM1 7294 -0.550000 15.99940
7295 OM 7295 OM OM1 7295 -0.550000 15.99940
7296 OM 7296 OM OM1 7296 -0.550000 15.99940
7297 OM 7297 OM OM1 7297 -0.550000 15.99940
7298 OM 7298 OM OM1 7298 -0.550000 15.99940
7299 OM 7299 OM OM1 7299 -0.550000 15.99940
7300 OM 7300 OM OM1 7300 -0.550000 15.99940
7301 OM 7301 OM OM1 7301 -0.550000 15.99940
7302 OM 7302 OM OM1 7302 -0.550000 15.99940
7303 OM 7303 OM OM1 7303 -0.550000 15.99940
7304 OM 7304 OM OM1 7304 -0.550000 15.99940
7305 OM 7305 OM OM1 7305 -0.550000 15.99940
7306 OM 7306 OM OM1 7306 -0.550000 15.99940
7307 OM 7307 OM OM1 7307 -0.550000 15.99940
7308 OM 7308 OM OM1 7308 -0.550000 15.99940
7309 OM 7309 OM OM1 7309 -0.550000 15.99940
7310 OM 7310 OM OM1 7310 -0.550000 15.99940
7311 OM 7311 OM OM1 7311 -0.550000 15.99940
7312 OM 7312 OM OM1 7312 -0.550000 15.99940
7313 OM 7313 OM OM1 7313 -0.550000 15.99940
7314 OM 7314 OM OM1 7314 -0.550000 15.99940
7315 OM 7315 OM OM1 7315 -0.550000 15.99940
7316 OM 7316 OM OM1 7316 -0.550000 15.99940
7317 OM 7317 OM OM1 7317 -0.550000 15.99940
7318 OM 7318 OM OM1 7318 -0.550000 15.99940
7319 OM 7319 OM OM1 7319 -0.550000 15.99940
7320 OM 7320 OM OM1 7320 -0.550000 15.99940
7321 OM 7321 OM OM1 7321 -0.550000 15.99940
7322 OM 7322 OM OM1 7322 -0.550000 15.99940
7323 OM 7323 OM OM1 7323 -0.550000 15.99940
7324 OM 7324 OM OM1 7324 -0.550000 15.99940
7325 OM 7325 OM OM1 7325 -0.550000 15.99940
7326 OM 7326 OM OM1 7326 -0.550000 15.99940
7327 OM 7327 OM OM1 7327 -0.550000 15.99940
7328 OM 7328 OM OM1 7328 -0.550000 15.99940
7329 OM 7329 OM OM1 7329 -0.550000 15.99940
7330 OM 7330 OM OM1 7330 -0.550000 15.99940
7331 OM 7331 OM OM1 7331 -0.550000 15.99940
7332 OM 7332 OM OM1 7332 -0.550000 15.99940
7333 OM 7333 OM OM1 7333 -0.550000 15.99940
7334 OM 7334 OM OM1 7334 -0.550000 15.99940
7335 OM 7335 OM OM1 7335 -0.550000 15.99940
7336 OM 7336 OM OM1 7336 -0.550000 15.99940
7337 OM 7337 OM OM1 7337 -0.550000 15.99940
7338 OM 7338 OM OM1 7338 -0.550000 15.99940
7339 OM 7339 OM OM1 7339 -0.550000 15.99940
7340 OM 7340 OM OM1 7340 -0.550000 15.99940
7341 OM 7341 OM OM1 7341 -0.550000 15.99940
7342 OM 7342 OM OM1 7342 -0.550000 15.99940
7343 OM 7343 OM OM1 7343 -0.550000 15.99940
7344 OM 7344 OM OM1 7344 -0.550000 15.99940
7345 OM 7345 OM OM1 7345 -0.550000 15.99940
7346 OM 7346 OM OM1 7346 -0.550000 15.99940
7347 OM 7347 OM OM1 7347 -0.550000 15.99940
7348 OM 7348 OM OM1 7348 -0.550000 15.99940
7349 OM 7349 OM OM1 7349 -0.550000 15.99940
7350 OM 7350 OM OM1 7350 -0.550000 15.99940
7351 OM 7351 OM OM1 7351 -0.550000 15.99940
7352 OM 7352 OM OM1 7352 -0.550000 15.99940
7353 OM 7353 OM OM1 7353 -0.550000 15.99940
7354 OM 7354 OM OM1 7354 -0.550000 15.99940
7355 OM 7355 OM OM1 7355 -0.550000 15.99940
7356 OM 7356 OM OM1 7356 -0.550000 15.99940
7357 OM 7357 OM OM1 7357 -0.550000 15.99940
7358 OM 7358 OM OM1 7358 -0.550000 15.99940
7359 OM 7359 OM OM1 7359 -0.550000 15.99940
7360 OM 7360 OM OM1 7360 -0.550000 15.99940
7361 OM 7361 OM OM1 7361 -0.550000 15.99940
7362 OM 7362 OM OM1 7362 -0.550000 15.99940
7363 OM 7363 OM OM1 7363 -0.550000 15.99940
7364 OM 7364 OM OM1 7364 -0.550000 15.99940
7365 OM 7365 OM OM1 7365 -0.550000 15.99940
7366 OM 7366 OM OM1 7366 -0.550000 15.99940
7367 OM 7367 OM OM1 7367 -0.550000 15.99940
7368 OM 7368 OM OM1 7368 -0.550000 15.99940
7369 OM 7369 OM OM1 7369 -0.550000 15.99940
7370 OM 7370 OM OM1 7370 -0.550000 15.99940
7371 OM 7371 OM OM1 7371 -0.550000 15.99940
7372 OM 7372 OM OM1 7372 -0.550000 15.99940
7373 OM 7373 OM OM1 7373 -0.550000 15.99940
7374 OM 7374 OM OM1 7374 -0.550000 15.99940
7375 OM 7375 OM OM1 7375 -0.550000 15.99940
7376 OM 7376 OM OM1 7376 -0.550000 15.99940
7377 OM 7377 OM OM1 7377 -0.550000 15.99940
7378 OM 7378 OM OM1 7378 -0.550000 15.99940
7379 OM 7379 OM OM1 7379 -0.550000 15.99940
7380 OM 7380 OM OM1 7380 -0.550000 15.99940
7381 OM 7381 OM OM1 7381 -0.550000 15.99940
7382 OM 7382 OM OM1 7382 -0.550000 15.99940
7383 OM 7383 OM OM1 7383 -0.550000 15.99940
7384 OM 7384 OM OM1 7384 -0.550000 15.99940
7385 OM 7385 OM OM1 7385 -0.550000 15.99940
7386 OM 7386 OM OM1 7386 -0.550000 15.99940
7387 OM 7387 OM OM1 7387 -0.550000 15.99940
7388 OM 7388 OM OM1 7388 -0.550000 15.99940
7389 OM 7389 OM OM1 7389 -0.550000 15.99940
7390 OM 7390 OM OM1 7390 -0.550000 15.99940
7391 OM 7391 OM OM1 7391 -0.550000 15.99940
7392 OM 7392 OM OM1 7392 -0.550000 15.99940
7393 OM 7393 OM OM1 7393 -0.550000 15.99940
7394 OM 7394 OM OM1 7394 -0.550000 15.99940
7395 OM 7395 OM OM1 7395 -0.550000 15.99940
7396 OM 7396 OM OM1 7396 -0.550000 15.99940
7397 OM 7397 OM OM1 7397 -0.550000 15.99940
7398 OM 7398 OM OM1 7398 -0.550000 15.99940
7399 OM 7399 OM OM1 7399 -0.550000 15.99940
7400 OM 7400 OM OM1 7400 -0.550000 15.99940
7401 OM 7401 OM OM1 7401 -0.550000 15.99940
7402 OM 7402 OM OM1 7402 -0.550000 15.99940
7403 OM 7403 OM OM1 7403 -0.550000 15.99940
7404 OM 7404 OM OM1 7404 -0.550000 15.99940
7405 OM 7405 OM OM1 7405 -0.550000 15.99940
7406 OM 7406 OM OM1 7406 -0.550000 15.99940
7407 OM 7407 OM OM1 7407 -0.550000 15.99940
7408 OM 7408 OM OM1 7408 -0.550000 15.99940
7409 OM 7409 OM OM1 7409 -0.550000 15.99940
7410 OM 7410 OM OM1 7410 -0.550000 15.99940
7411 OM 7411 OM OM1 7411 -0.550000 15.99940
7412 OM 7412 OM OM1 7412 -0.550000 15.99940
7413 OM 7413 OM OM1 7413 -0.550000 15.99940
7414 OM 7414 OM OM1 7414 -0.550000 15.99940
7415 OM 7415 OM OM1 7415 -0.550000 15.99940
7416 OM 7416 OM OM1 7416 -0.550000 15.99940
7417 OM 7417 OM OM1 7417 -0.550000 15.99940
7418 OM 7418 OM OM1 7418 -0.550000 15.99940
7419 OM 7419 OM OM1 7419 -0.550000 15.99940
7420 OM 7420 OM OM1 7420 -0.550000 15.99940
7421 OM 7421 OM OM1 7421 -0.550000 15.99940
7422 OM 7422 OM OM1 7422 -0.550000 15.99940
7423 OM 7423 OM OM1 7423 -0.550000 15.99940
7424 OM 7424 OM OM1 7424 -0.550000 15.99940
7425 OM 7425 OM OM1 7425 -0.550000 15.99940
7426 OM 7426 OM OM1 7426 -0.550000 15.99940
7427 OM 7427 OM OM1 7427 -0.550000 15.99940
7428 OM 7428 OM OM1 7428 -0.550000 15.99940
7429 OM 7429 OM OM1 7429 -0.550000 15.99940
7430 OM 7430 OM OM1 7430 -0.550000 15.99940
7431 OM 7431 OM OM1 7431 -0.550000 15.99940
7432 OM 7432 OM OM1 7432 -0.550000 15.99940
7433 OM 7433 OM OM1 7433 -0.550000 15.99940
7434 OM 7434 OM OM1 7434 -0.550000 15.99940
7435 OM 7435 OM OM1 7435 -0.550000 15.99940
7436 OM 7436 OM OM1 7436 -0.550000 15.99940
7437 OM 7437 OM OM1 7437 -0.550000 15.99940
7438 OM 7438 OM OM1 7438 -0.550000 15.99940
7439 OM 7439 OM OM1 7439 -0.550000 15.99940
7440 OM 7440 OM OM1 7440 -0.550000 15.99940
7441 OM 7441 OM OM1 7441 -0.550000 15.99940
7442 OM 7442 OM OM1 7442 -0.550000 15.99940
7443 OM 7443 OM OM1 7443 -0.550000 15.99940
7444 OM 7444 OM OM1 7444 -0.550000 15.99940
7445 OM 7445 OM OM1 7445 -0.550000 15.99940
7446 OM 7446 OM OM1 7446 -0.550000 15.99940
7447 OM 7447 OM OM1 7447 -0.550000 15.99940
7448 OM 7448 OM OM1 7448 -0.550000 15.99940
7449 OM 7449 OM OM1 7449 -0.550000 15.99940
7450 OM 7450 OM OM1 7450 -0.550000 15.99940
7451 OM 7451 OM OM1 7451 -0.550000 15.99940
7452 OM 7452 OM OM1 7452 -0.550000 15.99940
7453 OM 7453 OM OM1 7453 -0.550000 15.99940
7454 OM 7454 OM OM1 7454 -0.550000 15.99940
7455 OM 7455 OM OM1 7455 -0.550000 15.99940
7456 OM 7456 OM OM1 7456 -0.550000 15.99940
7457 OM 7457 OM OM1 7457 -0.550000 15.99940
7458 OM 7458 OM OM1 7458 -0.550000 15.99940
7459 OM 7459 OM OM1 7459 -0.550000 15.99940
7460 OM 7460 OM OM1 7460 -0.550000 15.99940
7461 OM 7461 OM OM1 7461 -0.550000 15.99940
7462 OM 7462 OM OM1 7462 -0.550000 15.99940
7463 OM 7463 OM OM1 7463 -0.550000 15.99940
7464 OM 7464 OM OM1 7464 -0.550000 15.99940
7465 OM 7465 OM OM1 7465 -0.550000 15.99940
7466 OM 7466 OM OM1 7466 -0.550000 15.99940
7467 OM 7467 OM OM1 7467 -0.550000 15.99940
7468 OM 7468 OM OM1 7468 -0.550000 15.99940
7469 OM 7469 OM OM1 7469 -0.550000 15.99940
7470 OM 7470 OM OM1 7470 -0.550000 15.99940
7471 OM 7471 OM OM1 7471 -0.550000 15.99940
7472 OM 7472 OM OM1 7472 -0.550000 15.99940
7473 OM 7473 OM OM1 7473 -0.550000 15.99940
7474 OM 7474 OM OM1 7474 -0.550000 15.99940
7475 OM 7475 OM OM1 7475 -0.550000 15.99940
7476 OM 7476 OM OM1 7476 -0.550000 15.99940
7477 OM 7477 OM OM1 7477 -0.550000 15.99940
7478 OM 7478 OM OM1 7478 -0.550000 15.99940
7479 OM 7479 OM OM1 7479 -0.550000 15.99940
7480 OM 7480 OM OM1 7480 -0.550000 15.99940
7481 OM 7481 OM OM1 7481 -0.550000 15.99940
7482 OM 7482 OM OM1 7482 -0.550000 15.99940
7483 OM 7483 OM OM1 7483 -0.550000 15.99940
7484 OM 7484 OM OM1 7484 -0.550000 15.99940
7485 OM 7485 OM OM1 7485 -0.550000 15.99940
7486 OM 7486 OM OM1 7486 -0.550000 15.99940
7487 OM 7487 OM OM1 7487 -0.550000 15.99940
7488 OM 7488 OM OM1 7488 -0.550000 15.99940
7489 OM 7489 OM OM1 7489 -0.550000 15.99940
7490 OM 7490 OM OM1 7490 -0.550000 15.99940
7491 OM 7491 OM OM1 7491 -0.550000 15.99940
7492 OM 7492 OM OM1 7492 -0.550000 15.99940
7493 OM 7493 OM OM1 7493 -0.550000 15.99940
7494 OM 7494 OM OM1 7494 -0.550000 15.99940
7495 OM 7495 OM OM1 7495 -0.550000 15.99940
7496 OM 7496 OM OM1 7496 -0.550000 15.99940
7497 OM 7497 OM OM1 7497 -0.550000 15.99940
7498 OM 7498 OM OM1 7498 -0.550000 15.99940
7499 OM 7499 OM OM1 7499 -0.550000 15.99940
7500 OM 7500 OM OM1 7500 -0.550000 15.99940
7501 OM 7501 OM OM1 7501 -0.550000 15.99940
7502 OM 7502 OM OM1 7502 -0.550000 15.99940
7503 OM 7503 OM OM1 7503 -0.550000 15.99940
7504 OM 7504 OM OM1 7504 -0.550000 15.99940
7505 OM 7505 OM OM1 7505 -0.550000 15.99940
7506 OM 7506 OM OM1 7506 -0.550000 15.99940
7507 OM 7507 OM OM1 7507 -0.550000 15.99940
7508 OM 7508 OM OM1 7508 -0.550000 15.99940
7509 OM 7509 OM OM1 7509 -0.550000 15.99940
7510 OM 7510 OM OM1 7510 -0.550000 15.99940
7511 OM 7511 OM OM1 7511 -0.550000 15.99940
7512 OM 7512 OM OM1 7512 -0.550000 15.99940
7513 OM 7513 OM OM1 7513 -0.550000 15.99940
7514 OM 7514 OM OM1 7514 -0.550000 15.99940
7515 OM 7515 OM OM1 7515 -0.550000 15.99940
7516 OM 7516 OM OM1 7516 -0.550000 15.99940
7517 OM 7517 OM OM1 7517 -0.550000 15.99940
7518 OM 7518 OM OM1 7518 -0.550000 15.99940
7519 OM 7519 OM OM1 7519 -0.550000 15.99940
7520 OM 7520 OM OM1 7520 -0.550000 15.99940
7521 OM 7521 OM OM1 7521 -0.550000 15.99940
7522 OM 7522 OM OM1 7522 -0.550000 15.99940
7523 OM 7523 OM OM1 7523 -0.550000 15.99940
7524 OM 7524 OM OM1 7524 -0.550000 15.99940
7525 OM 7525 OM OM1 7525 -0.550000 15.99940
7526 OM 7526 OM OM1 7526 -0.550000 15.99940
7527 OM 7527 OM OM1 7527 -0.550000 15.99940
7528 OM 7528 OM OM1 7528 -0.550000 15.99940
7529 OM 7529 OM OM1 7529 -0.550000 15.99940
7530 OM 7530 OM OM1 7530 -0.550000 15.99940
7531 OM 7531 OM OM1 7531 -0.550000 15.99940
7532 OM 7532 OM OM1 7532 -0.550000 15.99940
7533 OM 7533 OM OM1 7533 -0.550000 15.99940
7534 OM 7534 OM OM1 7534 -0.550000 15.99940
7535 OM 7535 OM OM1 7535 -0.550000 15.99940
7536 OM 7536 OM OM1 7536 -0.550000 15.99940
7537 OM 7537 OM OM1 7537 -0.550000 15.99940
7538 OM 7538 OM OM1 7538 -0.550000 15.99940
7539 OM 7539 OM OM1 7539 -0.550000 15.99940
7540 OM 7540 OM OM1 7540 -0.550000 15.99940
7541 OM 7541 OM OM1 7541 -0.550000 15.99940
7542 OM 7542 OM OM1 7542 -0.550000 15.99940
7543 OM 7543 OM OM1 7543 -0.550000 15.99940
7544 OM 7544 OM OM1 7544 -0.550000 15.99940
7545 OM 7545 OM OM1 7545 -0.550000 15.99940
7546 OM 7546 OM OM1 7546 -0.550000 15.99940
7547 OM 7547 OM OM1 7547 -0.550000 15.99940
7548 OM 7548 OM OM1 7548 -0.550000 15.99940
7549 OM 7549 OM OM1 7549 -0.550000 15.99940
7550 OM 7550 OM OM1 7550 -0.550000 15.99940
7551 OM 7551 OM OM1 7551 -0.550000 15.99940
7552 OM 7552 OM OM1 7552 -0.550000 15.99940
7553 OM 7553 OM OM1 7553 -0.550000 15.99940
7554 OM 7554 OM OM1 7554 -0.550000 15.99940
7555 OM 7555 OM OM1 7555 -0.550000 15.99940
7556 OM 7556 OM OM1 7556 -0.550000 15.99940
7557 OM 7557 OM OM1 7557 -0.550000 15.99940
7558 OM 7558 OM OM1 7558 -0.550000 15.99940
7559 OM 7559 OM OM1 7559 -0.550000 15.99940
7560 OM 7560 OM OM1 7560 -0.550000 15.99940
7561 OM 7561 OM OM1 7561 -0.550000 15.99940
7562 OM 7562 OM OM1 7562 -0.550000 15.99940
7563 OM 7563 OM OM1 7563 -0.550000 15.99940
7564 OM 7564 OM OM1 7564 -0.550000 15.99940
7565 OM 7565 OM OM1 7565 -0.550000 15.99940
7566 OM 7566 OM OM1 7566 -0.550000 15.99940
7567 OM 7567 OM OM1 7567 -0.550000 15.99940
7568 OM 7568 OM OM1 7568 -0.550000 15.99940
7569 OM 7569 OM OM1 7569 -0.550000 15.99940
7570 OM 7570 OM OM1 7570 -0.550000 15.99940
7571 OM 7571 OM OM1 7571 -0.550000 15.99940
7572 OM 7572 OM OM1 7572 -0.550000 15.99940
7573 OM 7573 OM OM1 7573 -0.550000 15.99940
7574 OM 7574 OM OM1 7574 -0.550000 15.99940
7575 OM 7575 OM OM1 7575 -0.550000 15.99940
7576 OM 7576 OM OM1 7576 -0.550000 15.99940
7577 OM 7577 OM OM1 7577 -0.550000 15.99940
7578 OM 7578 OM OM1 7578 -0.550000 15.99940
7579 OM 7579 OM OM1 7579 -0.550000 15.99940
7580 OM 7580 OM OM1 7580 -0.550000 15.99940
7581 OM 7581 OM OM1 7581 -0.550000 15.99940
7582 OM 7582 OM OM1 7582 -0.550000 15.99940
7583 OM 7583 OM OM1 7583 -0.550000 15.99940
7584 OM 7584 OM OM1 7584 -0.550000 15.99940
7585 OM 7585 OM OM1 7585 -0.550000 15.99940
7586 OM 7586 OM OM1 7586 -0.550000 15.99940
7587 OM 7587 OM OM1 7587 -0.550000 15.99940
7588 OM 7588 OM OM1 7588 -0.550000 15.99940
7589 OM 7589 OM OM1 7589 -0.550000 15.99940
7590 OM 7590 OM OM1 7590 -0.550000 15.99940
7591 OM 7591 OM OM1 7591 -0.550000 15.99940
7592 OM 7592 OM OM1 7592 -0.550000 15.99940
7593 OM 7593 OM OM1 7593 -0.550000 15.99940
7594 OM 7594 OM OM1 7594 -0.550000 15.99940
7595 OM 7595 OM OM1 7595 -0.550000 15.99940
7596 OM 7596 OM OM1 7596 -0.550000 15.99940
7597 OM 7597 OM OM1 7597 -0.550000 15.99940
7598 OM 7598 OM OM1 7598 -0.550000 15.99940
7599 OM 7599 OM OM1 7599 -0.550000 15.99940
7600 OM 7600 OM OM1 7600 -0.550000 15.99940
7601 OM 7601 OM OM1 7601 -0.550000 15.99940
7602 OM 7602 OM OM1 7602 -0.550000 15.99940
7603 OM 7603 OM OM1 7603 -0.550000 15.99940
7604 OM 7604 OM OM1 7604 -0.550000 15.99940
7605 OM 7605 OM OM1 7605 -0.550000 15.99940
7606 OM 7606 OM OM1 7606 -0.550000 15.99940
7607 OM 7607 OM OM1 7607 -0.550000 15.99940
7608 OM 7608 OM OM1 7608 -0.550000 15.99940
7609 OM 7609 OM OM1 7609 -0.550000 15.99940
7610 OM 7610 OM OM1 7610 -0.550000 15.99940
7611 OM 7611 OM OM1 7611 -0.550000 15.99940
7612 OM 7612 OM OM1 7612 -0.550000 15.99940
7613 OM 7613 OM OM1 7613 -0.550000 15.99940
7614 OM 7614 OM OM1 7614 -0.550000 15.99940
7615 OM 7615 OM OM1 7615 -0.550000 15.99940
7616 OM 7616 OM OM1 7616 -0.550000 15.99940
7617 OM 7617 OM OM1 7617 -0.550000 15.99940
7618 OM 7618 OM OM1 7618 -0.550000 15.99940
7619 OM 7619 OM OM1 7619 -0.550000 15.99940
7620 OM 7620 OM OM1 7620 -0.550000 15.99940
7621 OM 7621 OM OM1 7621 -0.550000 15.99940
7622 OM 7622 OM OM1 7622 -0.550000 15.99940
7623 OM 7623 OM OM1 7623 -0.550000 15.99940
7624 OM 7624 OM OM1 7624 -0.550000 15.99940
7625 OM 7625 OM OM1 7625 -0.550000 15.99940
7626 OM 7626 OM OM1 7626 -0.550000 15.99940
7627 OM 7627 OM OM1 7627 -0.550000 15.99940
7628 OM 7628 OM OM1 7628 -0.550000 15.99940
7629 OM 7629 OM OM1 7629 -0.550000 15.99940
7630 OM 7630 OM OM1 7630 -0.550000 15.99940
7631 OM 7631 OM OM1 7631 -0.550000 15.99940
7632 OM 7632 OM OM1 7632 -0.550000 15.99940
7633 OM 7633 OM OM1 7633 -0.550000 15.99940
7634 OM 7634 OM OM1 7634 -0.550000 15.99940
7635 OM 7635 OM OM1 7635 -0.550000 15.99940
7636 OM 7636 OM OM1 7636 -0.550000 15.99940
7637 OM 7637 OM OM1 7637 -0.550000 15.99940
7638 OM 7638 OM OM1 7638 -0.550000 15.99940
7639 OM 7639 OM OM1 7639 -0.550000 15.99940
7640 OM 7640 OM OM1 7640 -0.550000 15.99940
7641 OM 7641 OM OM1 7641 -0.550000 15.99940
7642 OM 7642 OM OM1 7642 -0.550000 15.99940
7643 OM 7643 OM OM1 7643 -0.550000 15.99940
7644 OM 7644 OM OM1 7644 -0.550000 15.99940
7645 OM 7645 OM OM1 7645 -0.550000 15.99940
7646 OM 7646 OM OM1 7646 -0.550000 15.99940
7647 OM 7647 OM OM1 7647 -0.550000 15.99940
7648 OM 7648 OM OM1 7648 -0.550000 15.99940
7649 OM 7649 OM OM1 7649 -0.550000 15.99940
7650 OM 7650 OM OM1 7650 -0.550000 15.99940
7651 OM 7651 OM OM1 7651 -0.550000 15.99940
7652 OM 7652 OM OM1 7652 -0.550000 15.99940
7653 OM 7653 OM OM1 7653 -0.550000 15.99940
7654 OM 7654 OM OM1 7654 -0.550000 15.99940
7655 OM 7655 OM OM1 7655 -0.550000 15.99940
7656 OM 7656 OM OM1 7656 -0.550000 15.99940
7657 OM 7657 OM OM1 7657 -0.550000 15.99940
7658 OM 7658 OM OM1 7658 -0.550000 15.99940
7659 OM 7659 OM OM1 7659 -0.550000 15.99940
7660 OM 7660 OM OM1 7660 -0.550000 15.99940
7661 OM 7661 OM OM1 7661 -0.550000 15.99940
7662 OM 7662 OM OM1 7662 -0.550000 15.99940
7663 OM 7663 OM OM1 7663 -0.550000 15.99940
7664 OM 7664 OM OM1 7664 -0.550000 15.99940
7665 OM 7665 OM OM1 7665 -0.550000 15.99940
7666 OM 7666 OM OM1 7666 -0.550000 15.99940
7667 OM 7667 OM OM1 7667 -0.550000 15.99940
7668 OM 7668 OM OM1 7668 -0.550000 15.99940
7669 OM 7669 OM OM1 7669 -0.550000 15.99940
7670 OM 7670 OM OM1 7670 -0.550000 15.99940
7671 OM 7671 OM OM1 7671 -0.550000 15.99940
7672 OM 7672 OM OM1 7672 -0.550000 15.99940
7673 OM 7673 OM OM1 7673 -0.550000 15.99940
7674 OM 7674 OM OM1 7674 -0.550000 15.99940
7675 OM 7675 OM OM1 7675 -0.550000 15.99940
7676 OM 7676 OM OM1 7676 -0.550000 15.99940
7677 OM 7677 OM OM1 7677 -0.550000 15.99940
7678 OM 7678 OM OM1 7678 -0.550000 15.99940
7679 OM 7679 OM OM1 7679 -0.550000 15.99940
7680 OM 7680 OM OM1 7680 -0.550000 15.99940
7681 OM 7681 OM OM1 7681 -0.550000 15.99940
7682 OM 7682 OM OM1 7682 -0.550000 15.99940
7683 OM 7683 OM OM1 7683 -0.550000 15.99940
7684 OM 7684 OM OM1 7684 -0.550000 15.99940
7685 OM 7685 OM OM1 7685 -0.550000 15.99940
7686 OM 7686 OM OM1 7686 -0.550000 15.99940
7687 OM 7687 OM OM1 7687 -0.550000 15.99940
7688 OM 7688 OM OM1 7688 -0.550000 15.99940
7689 OM 7689 OM OM1 7689 -0.550000 15.99940
7690 OM 7690 OM OM1 7690 -0.550000 15.99940
7691 OM 7691 OM OM1 7691 -0.550000 15.99940
7692 OM 7692 OM OM1 7692 -0.550000 15.99940
7693 OM 7693 OM OM1 7693 -0.550000 15.99940
7694 OM 7694 OM OM1 7694 -0.550000 15.99940
7695 OM 7695 OM OM1 7695 -0.550000 15.99940
7696 OM 7696 OM OM1 7696 -0.550000 15.99940
7697 OM 7697 OM OM1 7697 -0.550000 15.99940
7698 OM 7698 OM OM1 7698 -0.550000 15.99940
7699 OM 7699 OM OM1 7699 -0.550000 15.99940
7700 OM 7700 OM OM1 7700 -0.550000 15.99940
7701 OM 7701 OM OM1 7701 -0.550000 15.99940
7702 OM 7702 OM OM1 7702 -0.550000 15.99940
7703 OM 7703 OM OM1 7703 -0.550000 15.99940
7704 OM 7704 OM OM1 7704 -0.550000 15.99940
7705 OM 7705 OM OM1 7705 -0.550000 15.99940
7706 OM 7706 OM OM1 7706 -0.550000 15.99940
7707 OM 7707 OM OM1 7707 -0.550000 15.99940
7708 OM 7708 OM OM1 7708 -0.550000 15.99940
7709 OM 7709 OM OM1 7709 -0.550000 15.99940
7710 OM 7710 OM OM1 7710 -0.550000 15.99940
7711 OM 7711 OM OM1 7711 -0.550000 15.99940
7712 OM 7712 OM OM1 7712 -0.550000 15.99940
7713 OM 7713 OM OM1 7713 -0.550000 15.99940
7714 OM 7714 OM OM1 7714 -0.550000 15.99940
7715 OM 7715 OM OM1 7715 -0.550000 15.99940
7716 OM 7716 OM OM1 7716 -0.550000 15.99940
7717 OM 7717 OM OM1 7717 -0.550000 15.99940
7718 OM 7718 OM OM1 7718 -0.550000 15.99940
7719 OM 7719 OM OM1 7719 -0.550000 15.99940
7720 OM 7720 OM OM1 7720 -0.550000 15.99940
7721 OM 7721 OM OM1 7721 -0.550000 15.99940
7722 OM 7722 OM OM1 7722 -0.550000 15.99940
7723 OM 7723 OM OM1 7723 -0.550000 15.99940
7724 OM 7724 OM OM1 7724 -0.550000 15.99940
7725 OM 7725 OM OM1 7725 -0.550000 15.99940
7726 OM 7726 OM OM1 7726 -0.550000 15.99940
7727 OM 7727 OM OM1 7727 -0.550000 15.99940
7728 OM 7728 OM OM1 7728 -0.550000 15.99940
7729 OM 7729 OM OM1 7729 -0.550000 15.99940
7730 OM 7730 OM OM1 7730 -0.550000 15.99940
7731 OM 7731 OM OM1 7731 -0.550000 15.99940
7732 OM 7732 OM OM1 7732 -0.550000 15.99940
7733 OM 7733 OM OM1 7733 -0.550000 15.99940
7734 OM 7734 OM OM1 7734 -0.550000 15.99940
7735 OM 7735 OM OM1 7735 -0.550000 15.99940
7736 OM 7736 OM OM1 7736 -0.550000 15.99940
7737 OM 7737 OM OM1 7737 -0.550000 15.99940
7738 OM 7738 OM OM1 7738 -0.550000 15.99940
7739 OM 7739 OM OM1 7739 -0.550000 15.99940
7740 OM 7740 OM OM1 7740 -0.550000 15.99940
7741 OM 7741 OM OM1 7741 -0.550000 15.99940
7742 OM 7742 OM OM1 7742 -0.550000 15.99940
7743 OM 7743 OM OM1 7743 -0.550000 15.99940
7744 OM 7744 OM OM1 7744 -0.550000 15.99940
7745 OM 7745 OM OM1 7745 -0.550000 15.99940
7746 OM 7746 OM OM1 7746 -0.550000 15.99940
7747 OM 7747 OM OM1 7747 -0.550000 15.99940
7748 OM 7748 OM OM1 7748 -0.550000 15.99940
7749 OM 7749 OM OM1 7749 -0.550000 15.99940
7750 OM 7750 OM OM1 7750 -0.550000 15.99940
7751 OM 7751 OM OM1 7751 -0.550000 15.99940
7752 OM 7752 OM OM1 7752 -0.550000 15.99940
7753 OM 7753 OM OM1 7753 -0.550000 15.99940
7754 OM 7754 OM OM1 7754 -0.550000 15.99940
7755 OM 7755 OM OM1 7755 -0.550000 15.99940
7756 OM 7756 OM OM1 7756 -0.550000 15.99940
7757 OM 7757 OM OM1 7757 -0.550000 15.99940
7758 OM 7758 OM OM1 7758 -0.550000 15.99940
7759 OM 7759 OM OM1 7759 -0.550000 15.99940
7760 OM 7760 OM OM1 7760 -0.550000 15.99940
7761 OM 7761 OM OM1 7761 -0.550000 15.99940
7762 OM 7762 OM OM1 7762 -0.550000 15.99940
7763 OM 7763 OM OM1 7763 -0.550000 15.99940
7764 OM 7764 OM OM1 7764 -0.550000 15.99940
7765 OM 7765 OM OM1 7765 -0.550000 15.99940
7766 OM 7766 OM OM1 7766 -0.550000 15.99940
7767 OM 7767 OM OM1 7767 -0.550000 15.99940
7768 OM 7768 OM OM1 7768 -0.550000 15.99940
7769 OM 7769 OM OM1 7769 -0.550000 15.99940
7770 OM 7770 OM OM1 7770 -0.550000 15.99940
7771 OM 7771 OM OM1 7771 -0.550000 15.99940
7772 OM 7772 OM OM1 7772 -0.550000 15.99940
7773 OM 7773 OM OM1 7773 -0.550000 15.99940
7774 OM 7774 OM OM1 7774 -0.550000 15.99940
7775 OM 7775 OM OM1 7775 -0.550000 15.99940
7776 OM 7776 OM OM1 7776 -0.550000 15.99940
7777 OM 7777 OM OM1 7777 -0.550000 15.99940
7778 OM 7778 OM OM1 7778 -0.550000 15.99940
7779 OM 7779 OM OM1 7779 -0.550000 15.99940
7780 OM 7780 OM OM1 7780 -0.550000 15.99940
7781 OM 7781 OM OM1 7781 -0.550000 15.99940
7782 OM 7782 OM OM1 7782 -0.550000 15.99940
7783 OM 7783 OM OM1 7783 -0.550000 15.99940
7784 OM 7784 OM OM1 7784 -0.550000 15.99940
7785 OM 7785 OM OM1 7785 -0.550000 15.99940
7786 OM 7786 OM OM1 7786 -0.550000 15.99940
7787 OM 7787 OM OM1 7787 -0.550000 15.99940
7788 OM 7788 OM OM1 7788 -0.550000 15.99940
7789 OM 7789 OM OM1 7789 -0.550000 15.99940
7790 OM 7790 OM OM1 7790 -0.550000 15.99940
7791 OM 7791 OM OM1 7791 -0.550000 15.99940
7792 OM 7792 OM OM1 7792 -0.550000 15.99940
7793 OM 7793 OM OM1 7793 -0.550000 15.99940
7794 OM 7794 OM OM1 7794 -0.550000 15.99940
7795 OM 7795 OM OM1 7795 -0.550000 15.99940
7796 OM 7796 OM OM1 7796 -0.550000 15.99940
7797 OM 7797 OM OM1 7797 -0.550000 15.99940
7798 OM 7798 OM OM1 7798 -0.550000 15.99940
7799 OM 7799 OM OM1 7799 -0.550000 15.99940
7800 OM 7800 OM OM1 7800 -0.550000 15.99940
7801 OM 7801 OM OM1 7801 -0.550000 15.99940
7802 OM 7802 OM OM1 7802 -0.550000 15.99940
7803 OM 7803 OM OM1 7803 -0.550000 15.99940
7804 OM 7804 OM OM1 7804 -0.550000 15.99940
7805 OM 7805 OM OM1 7805 -0.550000 15.99940
7806 OM 7806 OM OM1 7806 -0.550000 15.99940
7807 OM 7807 OM OM1 7807 -0.550000 15.99940
7808 OM 7808 OM OM1 7808 -0.550000 15.99940
7809 OM 7809 OM OM1 7809 -0.550000 15.99940
7810 OM 7810 OM OM1 7810 -0.550000 15.99940
7811 OM 7811 OM OM1 7811 -0.550000 15.99940
7812 OM 7812 OM OM1 7812 -0.550000 15.99940
7813 OM 7813 OM OM1 7813 -0.550000 15.99940
7814 OM 7814 OM OM1 7814 -0.550000 15.99940
7815 OM 7815 OM OM1 7815 -0.550000 15.99940
7816 OM 7816 OM OM1 7816 -0.550000 15.99940
7817 OM 7817 OM OM1 7817 -0.550000 15.99940
7818 OM 7818 OM OM1 7818 -0.550000 15.99940
7819 OM 7819 OM OM1 7819 -0.550000 15.99940
7820 OM 7820 OM OM1 7820 -0.550000 15.99940
7821 OM 7821 OM OM1 7821 -0.550000 15.99940
7822 OM 7822 OM OM1 7822 -0.550000 15.99940
7823 OM 7823 OM OM1 7823 -0.550000 15.99940
7824 OM 7824 OM OM1 7824 -0.550000 15.99940
7825 OM 7825 OM OM1 7825 -0.550000 15.99940
7826 OM 7826 OM OM1 7826 -0.550000 15.99940
7827 OM 7827 OM OM1 7827 -0.550000 15.99940
7828 OM 7828 OM OM1 7828 -0.550000 15.99940
7829 OM 7829 OM OM1 7829 -0.550000 15.99940
7830 OM 7830 OM OM1 7830 -0.550000 15.99940
7831 OM 7831 OM OM1 7831 -0.550000 15.99940
7832 OM 7832 OM OM1 7832 -0.550000 15.99940
7833 OM 7833 OM OM1 7833 -0.550000 15.99940
7834 OM 7834 OM OM1 7834 -0.550000 15.99940
7835 OM 7835 OM OM1 7835 -0.550000 15.99940
7836 OM 7836 OM OM1 7836 -0.550000 15.99940
7837 OM 7837 OM OM1 7837 -0.550000 15.99940
7838 OM 7838 OM OM1 7838 -0.550000 15.99940
7839 OM 7839 OM OM1 7839 -0.550000 15.99940
7840 OM 7840 OM OM1 7840 -0.550000 15.99940
7841 OM 7841 OM OM1 7841 -0.550000 15.99940
7842 OM 7842 OM OM1 7842 -0.550000 15.99940
7843 OM 7843 OM OM1 7843 -0.550000 15.99940
7844 OM 7844 OM OM1 7844 -0.550000 15.99940
7845 OM 7845 OM OM1 7845 -0.550000 15.99940
7846 OM 7846 OM OM1 7846 -0.550000 15.99940
7847 OM 7847 OM OM1 7847 -0.550000 15.99940
7848 OM 7848 OM OM1 7848 -0.550000 15.99940
7849 OM 7849 OM OM1 7849 -0.550000 15.99940
7850 OM 7850 OM OM1 7850 -0.550000 15.99940
7851 OM 7851 OM OM1 7851 -0.550000 15.99940
7852 OM 7852 OM OM1 7852 -0.550000 15.99940
7853 OM 7853 OM OM1 7853 -0.550000 15.99940
7854 OM 7854 OM OM1 7854 -0.550000 15.99940
7855 OM 7855 OM OM1 7855 -0.550000 15.99940
7856 OM 7856 OM OM1 7856 -0.550000 15.99940
7857 OM 7857 OM OM1 7857 -0.550000 15.99940
7858 OM 7858 OM OM1 7858 -0.550000 15.99940
7859 OM 7859 OM OM1 7859 -0.550000 15.99940
7860 OM 7860 OM OM1 7860 -0.550000 15.99940
7861 OM 7861 OM OM1 7861 -0.550000 15.99940
7862 OM 7862 OM OM1 7862 -0.550000 15.99940
7863 OM 7863 OM OM1 7863 -0.550000 15.99940
7864 OM 7864 OM OM1 7864 -0.550000 15.99940
7865 OM 7865 OM OM1 7865 -0.550000 15.99940
7866 OM 7866 OM OM1 7866 -0.550000 15.99940
7867 OM 7867 OM OM1 7867 -0.550000 15.99940
7868 OM 7868 OM OM1 7868 -0.550000 15.99940
7869 OM 7869 OM OM1 7869 -0.550000 15.99940
7870 OM 7870 OM OM1 7870 -0.550000 15.99940
7871 OM 7871 OM OM1 7871 -0.550000 15.99940
7872 OM 7872 OM OM1 7872 -0.550000 15.99940
7873 OM 7873 OM OM1 7873 -0.550000 15.99940
7874 OM 7874 OM OM1 7874 -0.550000 15.99940
7875 OM 7875 OM OM1 7875 -0.550000 15.99940
7876 OM 7876 OM OM1 7876 -0.550000 15.99940
7877 OM 7877 OM OM1 7877 -0.550000 15.99940
7878 OM 7878 OM OM1 7878 -0.550000 15.99940
7879 OM 7879 OM OM1 7879 -0.550000 15.99940
7880 OM 7880 OM OM1 7880 -0.550000 15.99940
7881 OM 7881 OM OM1 7881 -0.550000 15.99940
7882 OM 7882 OM OM1 7882 -0.550000 15.99940
7883 OM 7883 OM OM1 7883 -0.550000 15.99940
7884 OM 7884 OM OM1 7884 -0.550000 15.99940
7885 OM 7885 OM OM1 7885 -0.550000 15.99940
7886 OM 7886 OM OM1 7886 -0.550000 15.99940
7887 OM 7887 OM OM1 7887 -0.550000 15.99940
7888 OM 7888 OM OM1 7888 -0.550000 15.99940
7889 OM 7889 OM OM1 7889 -0.550000 15.99940
7890 OM 7890 OM OM1 7890 -0.550000 15.99940
7891 OM 7891 OM OM1 7891 -0.550000 15.99940
7892 OM 7892 OM OM1 7892 -0.550000 15.99940
7893 OM 7893 OM OM1 7893 -0.550000 15.99940
7894 OM 7894 OM OM1 7894 -0.550000 15.99940
7895 OM 7895 OM OM1 7895 -0.550000 15.99940
7896 OM 7896 OM OM1 7896 -0.550000 15.99940
7897 OM 7897 OM OM1 7897 -0.550000 15.99940
7898 OM 7898 OM OM1 7898 -0.550000 15.99940
7899 OM 7899 OM OM1 7899 -0.550000 15.99940
7900 OM 7900 OM OM1 7900 -0.550000 15.99940
7901 OM 7901 OM OM1 7901 -0.550000 15.99940
7902 OM 7902 OM OM1 7902 -0.550000 15.99940
7903 OM 7903 OM OM1 7903 -0.550000 15.99940
7904 OM 7904 OM OM1 7904 -0.550000 15.99940
7905 OM 7905 OM OM1 7905 -0.550000 15.99940
7906 OM 7906 OM OM1 7906 -0.550000 15.99940
7907 OM 7907 OM OM1 7907 -0.550000 15.99940
7908 OM 7908 OM OM1 7908 -0.550000 15.99940
7909 OM 7909 OM OM1 7909 -0.550000 15.99940
7910 OM 7910 OM OM1 7910 -0.550000 15.99940
7911 OM 7911 OM OM1 7911 -0.550000 15.99940
7912 OM 7912 OM OM1 7912 -0.550000 15.99940
7913 OM 7913 OM OM1 7913 -0.550000 15.99940
7914 OM 7914 OM OM1 7914 -0.550000 15.99940
7915 OM 7915 OM OM1 7915 -0.550000 15.99940
7916 OM 7916 OM OM1 7916 -0.550000 15.99940
7917 OM 7917 OM OM1 7917 -0.550000 15.99940
7918 OM 7918 OM OM1 7918 -0.550000 15.99940
7919 OM 7919 OM OM1 7919 -0.550000 15.99940
7920 OM 7920 OM OM1 7920 -0.550000 15.99940
7921 OM 7921 OM OM1 7921 -0.550000 15.99940
7922 OM 7922 OM OM1 7922 -0.550000 15.99940
7923 OM 7923 OM OM1 7923 -0.550000 15.99940
7924 OM 7924 OM OM1 7924 -0.550000 15.99940
7925 OM 7925 OM OM1 7925 -0.550000 15.99940
7926 OM 7926 OM OM1 7926 -0.550000 15.99940
7927 OM 7927 OM OM1 7927 -0.550000 15.99940
7928 OM 7928 OM OM1 7928 -0.550000 15.99940
7929 OM 7929 OM OM1 7929 -0.550000 15.99940
7930 OM 7930 OM OM1 7930 -0.550000 15.99940
7931 OM 7931 OM OM1 7931 -0.550000 15.99940
7932 OM 7932 OM OM1 7932 -0.550000 15.99940
7933 OM 7933 OM OM1 7933 -0.550000 15.99940
7934 OM 7934 OM OM1 7934 -0.550000 15.99940
7935 OM 7935 OM OM1 7935 -0.550000 15.99940
7936 OM 7936 OM OM1 7936 -0.550000 15.99940
7937 OM 7937 OM OM1 7937 -0.550000 15.99940
7938 OM 7938 OM OM1 7938 -0.550000 15.99940
7939 OM 7939 OM OM1 7939 -0.550000 15.99940
7940 OM 7940 OM OM1 7940 -0.550000 15.99940
7941 OM 7941 OM OM1 7941 -0.550000 15.99940
7942 OM 7942 OM OM1 7942 -0.550000 15.99940
7943 OM 7943 OM OM1 7943 -0.550000 15.99940
7944 OM 7944 OM OM1 7944 -0.550000 15.99940
7945 OM 7945 OM OM1 7945 -0.550000 15.99940
7946 OM 7946 OM OM1 7946 -0.550000 15.99940
7947 OM 7947 OM OM1 7947 -0.550000 15.99940
7948 OM 7948 OM OM1 7948 -0.550000 15.99940
7949 OM 7949 OM OM1 7949 -0.550000 15.99940
7950 OM 7950 OM OM1 7950 -0.550000 15.99940
7951 OM 7951 OM OM1 7951 -0.550000 15.99940
7952 OM 7952 OM OM1 7952 -0.550000 15.99940
7953 OM 7953 OM OM1 7953 -0.550000 15.99940
7954 OM 7954 OM OM1 7954 -0.550000 15.99940
7955 OM 7955 OM OM1 7955 -0.550000 15.99940
7956 OM 7956 OM OM1 7956 -0.550000 15.99940
7957 OM 7957 OM OM1 7957 -0.550000 15.99940
7958 OM 7958 OM OM1 7958 -0.550000 15.99940
7959 OM 7959 OM OM1 7959 -0.550000 15.99940
7960 OM 7960 OM OM1 7960 -0.550000 15.99940
7961 OM 7961 OM OM1 7961 -0.550000 15.99940
7962 OM 7962 OM OM1 7962 -0.550000 15.99940
7963 OM 7963 OM OM1 7963 -0.550000 15.99940
7964 OM 7964 OM OM1 7964 -0.550000 15.99940
7965 OM 7965 OM OM1 7965 -0.550000 15.99940
7966 OM 7966 OM OM1 7966 -0.550000 15.99940
7967 OM 7967 OM OM1 7967 -0.550000 15.99940
7968 OM 7968 OM OM1 7968 -0.550000 15.99940
7969 OM 7969 OM OM1 7969 -0.550000 15.99940
7970 OM 7970 OM OM1 7970 -0.550000 15.99940
7971 OM 7971 OM OM1 7971 -0.550000 15.99940
7972 OM 7972 OM OM1 7972 -0.550000 15.99940
7973 OM 7973 OM OM1 7973 -0.550000 15.99940
7974 OM 7974 OM OM1 7974 -0.550000 15.99940
7975 OM 7975 OM OM1 7975 -0.550000 15.99940
7976 OM 7976 OM OM1 7976 -0.550000 15.99940
7977 OM 7977 OM OM1 7977 -0.550000 15.99940
7978 OM 7978 OM OM1 7978 -0.550000 15.99940
7979 OM 7979 OM OM1 7979 -0.550000 15.99940
7980 OM 7980 OM OM1 7980 -0.550000 15.99940
7981 OM 7981 OM OM1 7981 -0.550000 15.99940
7982 OM 7982 OM OM1 7982 -0.550000 15.99940
7983 OM 7983 OM OM1 7983 -0.550000 15.99940
7984 OM 7984 OM OM1 7984 -0.550000 15.99940
7985 OM 7985 OM OM1 7985 -0.550000 15.99940
7986 OM 7986 OM OM1 7986 -0.550000 15.99940
7987 OM 7987 OM OM1 7987 -0.550000 15.99940
7988 OM 7988 OM OM1 7988 -0.550000 15.99940
7989 OM 7989 OM OM1 7989 -0.550000 15.99940
7990 OM 7990 OM OM1 7990 -0.550000 15.99940
7991 OM 7991 OM OM1 7991 -0.550000 15.99940
7992 OM 7992 OM OM1 7992 -0.550000 15.99940
7993 OM 7993 OM OM1 7993 -0.550000 15.99940
7994 OM 7994 OM OM1 7994 -0.550000 15.99940
7995 OM 7995 OM OM1 7995 -0.550000 15.99940
7996 OM 7996 OM OM1 7996 -0.550000 15.99940
7997 OM 7997 OM OM1 7997 -0.550000 15.99940
7998 OM 7998 OM OM1 7998 -0.550000 15.99940
7999 OM 7999 OM OM1 7999 -0.550000 15.99940
8000 OM 8000 OM OM1 8000 -0.550000 15.99940
8001 OM 8001 OM OM1 8001 -0.550000 15.99940
8002 OM 8002 OM OM1 8002 -0.550000 15.99940
8003 OM 8003 OM OM1 8003 -0.550000 15.99940
8004 OM 8004 OM OM1 8004 -0.550000 15.99940
8005 OM 8005 OM OM1 8005 -0.550000 15.99940
8006 OM 8006 OM OM1 8006 -0.550000 15.99940
8007 OM 8007 OM OM1 8007 -0.550000 15.99940
8008 OM 8008 OM OM1 8008 -0.550000 15.99940
8009 OM 8009 OM OM1 8009 -0.550000 15.99940
8010 OM 8010 OM OM1 8010 -0.550000 15.99940
8011 OM 8011 OM OM1 8011 -0.550000 15.99940
8012 OM 8012 OM OM1 8012 -0.550000 15.99940
8013 OM 8013 OM OM1 8013 -0.550000 15.99940
8014 OM 8014 OM OM1 8014 -0.550000 15.99940
8015 OM 8015 OM OM1 8015 -0.550000 15.99940
8016 OM 8016 OM OM1 8016 -0.550000 15.99940
8017 OM 8017 OM OM1 8017 -0.550000 15.99940
8018 OM 8018 OM OM1 8018 -0.550000 15.99940
8019 OM 8019 OM OM1 8019 -0.550000 15.99940
8020 OM 8020 OM OM1 8020 -0.550000 15.99940
8021 OM 8021 OM OM1 8021 -0.550000 15.99940
8022 OM 8022 OM OM1 8022 -0.550000 15.99940
8023 OM 8023 OM OM1 8023 -0.550000 15.99940
8024 OM 8024 OM OM1 8024 -0.550000 15.99940
8025 OM 8025 OM OM1 8025 -0.550000 15.99940
8026 OM 8026 OM OM1 8026 -0.550000 15.99940
8027 OM 8027 OM OM1 8027 -0.550000 15.99940
8028 OM 8028 OM OM1 8028 -0.550000 15.99940
8029 OM 8029 OM OM1 8029 -0.550000 15.99940
8030 OM 8030 OM OM1 8030 -0.550000 15.99940
8031 OM 8031 OM OM1 8031 -0.550000 15.99940
8032 OM 8032 OM OM1 8032 -0.550000 15.99940
8033 OM 8033 OM OM1 8033 -0.550000 15.99940
8034 OM 8034 OM OM1 8034 -0.550000 15.99940
8035 OM 8035 OM OM1 8035 -0.550000 15.99940
8036 OM 8036 OM OM1 8036 -0.550000 15.99940
8037 OM 8037 OM OM1 8037 -0.550000 15.99940
8038 OM 8038 OM OM1 8038 -0.550000 15.99940
8039 OM 8039 OM OM1 8039 -0.550000 15.99940
8040 OM 8040 OM OM1 8040 -0.550000 15.99940
8041 OM 8041 OM OM1 8041 -0.550000 15.99940
8042 OM 8042 OM OM1 8042 -0.550000 15.99940
8043 OM 8043 OM OM1 8043 -0.550000 15.99940
8044 OM 8044 OM OM1 8044 -0.550000 15.99940
8045 OM 8045 OM OM1 8045 -0.550000 15.99940
8046 OM 8046 OM OM1 8046 -0.550000 15.99940
8047 OM 8047 OM OM1 8047 -0.550000 15.99940
8048 OM 8048 OM OM1 8048 -0.550000 15.99940
8049 OM 8049 OM OM1 8049 -0.550000 15.99940
8050 OM 8050 OM OM1 8050 -0.550000 15.99940
8051 OM 8051 OM OM1 8051 -0.550000 15.99940
8052 OM 8052 OM OM1 8052 -0.550000 15.99940
8053 OM 8053 OM OM1 8053 -0.550000 15.99940
8054 OM 8054 OM OM1 8054 -0.550000 15.99940
8055 OM 8055 OM OM1 8055 -0.550000 15.99940
8056 OM 8056 OM OM1 8056 -0.550000 15.99940
8057 OM 8057 OM OM1 8057 -0.550000 15.99940
8058 OM 8058 OM OM1 8058 -0.550000 15.99940
8059 OM 8059 OM OM1 8059 -0.550000 15.99940
8060 OM 8060 OM OM1 8060 -0.550000 15.99940
8061 OM 8061 OM OM1 8061 -0.550000 15.99940
8062 OM 8062 OM OM1 8062 -0.550000 15.99940
8063 OM 8063 OM OM1 8063 -0.550000 15.99940
8064 OM 8064 OM OM1 8064 -0.550000 15.99940
8065 OM 8065 OM OM1 8065 -0.550000 15.99940
8066 OM 8066 OM OM1 8066 -0.550000 15.99940
8067 OM 8067 OM OM1 8067 -0.550000 15.99940
8068 OM 8068 OM OM1 8068 -0.550000 15.99940
8069 OM 8069 OM OM1 8069 -0.550000 15.99940
8070 OM 8070 OM OM1 8070 -0.550000 15.99940
8071 OM 8071 OM OM1 8071 -0.550000 15.99940
8072 OM 8072 OM OM1 8072 -0.550000 15.99940
8073 OM 8073 OM OM1 8073 -0.550000 15.99940
8074 OM 8074 OM OM1 8074 -0.550000 15.99940
8075 OM 8075 OM OM1 8075 -0.550000 15.99940
8076 OM 8076 OM OM1 8076 -0.550000 15.99940
8077 OM 8077 OM OM1 8077 -0.550000 15.99940
8078 OM 8078 OM OM1 8078 -0.550000 15.99940
8079 OM 8079 OM OM1 8079 -0.550000 15.99940
8080 OM 8080 OM OM1 8080 -0.550000 15.99940
8081 OM 8081 OM OM1 8081 -0.550000 15.99940
8082 OM 8082 OM OM1 8082 -0.550000 15.99940
8083 OM 8083 OM OM1 8083 -0.550000 15.99940
8084 OM 8084 OM OM1 8084 -0.550000 15.99940
8085 OM 8085 OM OM1 8085 -0.550000 15.99940
8086 OM 8086 OM OM1 8086 -0.550000 15.99940
8087 OM 8087 OM OM1 8087 -0.550000 15.99940
8088 OM 8088 OM OM1 8088 -0.550000 15.99940
8089 OM 8089 OM OM1 8089 -0.550000 15.99940
8090 OM 8090 OM OM1 8090 -0.550000 15.99940
8091 OM 8091 OM OM1 8091 -0.550000 15.99940
8092 OM 8092 OM OM1 8092 -0.550000 15.99940
8093 OM 8093 OM OM1 8093 -0.550000 15.99940
8094 OM 8094 OM OM1 8094 -0.550000 15.99940
8095 OM 8095 OM OM1 8095 -0.550000 15.99940
8096 OM 8096 OM OM1 8096 -0.550000 15.99940
8097 OM 8097 OM OM1 8097 -0.550000 15.99940
8098 OM 8098 OM OM1 8098 -0.550000 15.99940
8099 OM 8099 OM OM1 8099 -0.550000 15.99940
8100 OM 8100 OM OM1 8100 -0.550000 15.99940
8101 OM 8101 OM OM1 8101 -0.550000 15.99940
8102 OM 8102 OM OM1 8102 -0.550000 15.99940
8103 OM 8103 OM OM1 8103 -0.550000 15.99940
8104 OM 8104 OM OM1 8104 -0.550000 15.99940
8105 OM 8105 OM OM1 8105 -0.550000 15.99940
8106 OM 8106 OM OM1 8106 -0.550000 15.99940
8107 OM 8107 OM OM1 8107 -0.550000 15.99940
8108 OM 8108 OM OM1 8108 -0.550000 15.99940
8109 OM 8109 OM OM1 8109 -0.550000 15.99940
8110 OM 8110 OM OM1 8110 -0.550000 15.99940
8111 OM 8111 OM OM1 8111 -0.550000 15.99940
8112 OM 8112 OM OM1 8112 -0.550000 15.99940
8113 OM 8113 OM OM1 8113 -0.550000 15.99940
8114 OM 8114 OM OM1 8114 -0.550000 15.99940
8115 OM 8115 OM OM1 8115 -0.550000 15.99940
8116 OM 8116 OM OM1 8116 -0.550000 15.99940
8117 OM 8117 OM OM1 8117 -0.550000 15.99940
8118 OM 8118 OM OM1 8118 -0.550000 15.99940
8119 OM 8119 OM OM1 8119 -0.550000 15.99940
8120 OM 8120 OM OM1 8120 -0.550000 15.99940
8121 OM 8121 OM OM1 8121 -0.550000 15.99940
8122 OM 8122 OM OM1 8122 -0.550000 15.99940
8123 OM 8123 OM OM1 8123 -0.550000 15.99940
8124 OM 8124 OM OM1 8124 -0.550000 15.99940
8125 OM 8125 OM OM1 8125 -0.550000 15.99940
8126 OM 8126 OM OM1 8126 -0.550000 15.99940
8127 OM 8127 OM OM1 8127 -0.550000 15.99940
8128 OM 8128 OM OM1 8128 -0.550000 15.99940
8129 OM 8129 OM OM1 8129 -0.550000 15.99940
8130 OM 8130 OM OM1 8130 -0.550000 15.99940
8131 OM 8131 OM OM1 8131 -0.550000 15.99940
8132 OM 8132 OM OM1 8132 -0.550000 15.99940
8133 OM 8133 OM OM1 8133 -0.550000 15.99940
8134 OM 8134 OM OM1 8134 -0.550000 15.99940
8135 OM 8135 OM OM1 8135 -0.550000 15.99940
8136 OM 8136 OM OM1 8136 -0.550000 15.99940
8137 OM 8137 OM OM1 8137 -0.550000 15.99940
8138 OM 8138 OM OM1 8138 -0.550000 15.99940
8139 OM 8139 OM OM1 8139 -0.550000 15.99940
8140 OM 8140 OM OM1 8140 -0.550000 15.99940
8141 OM 8141 OM OM1 8141 -0.550000 15.99940
8142 OM 8142 OM OM1 8142 -0.550000 15.99940
8143 OM 8143 OM OM1 8143 -0.550000 15.99940
8144 OM 8144 OM OM1 8144 -0.550000 15.99940
8145 OM 8145 OM OM1 8145 -0.550000 15.99940
8146 OM 8146 OM OM1 8146 -0.550000 15.99940
8147 OM 8147 OM OM1 8147 -0.550000 15.99940
8148 OM 8148 OM OM1 8148 -0.550000 15.99940
8149 OM 8149 OM OM1 8149 -0.550000 15.99940
8150 OM 8150 OM OM1 8150 -0.550000 15.99940
8151 OM 8151 OM OM1 8151 -0.550000 15.99940
8152 OM 8152 OM OM1 8152 -0.550000 15.99940
8153 OM 8153 OM OM1 8153 -0.550000 15.99940
8154 OM 8154 OM OM1 8154 -0.550000 15.99940
8155 OM 8155 OM OM1 8155 -0.550000 15.99940
8156 OM 8156 OM OM1 8156 -0.550000 15.99940
8157 OM 8157 OM OM1 8157 -0.550000 15.99940
8158 OM 8158 OM OM1 8158 -0.550000 15.99940
8159 OM 8159 OM OM1 8159 -0.550000 15.99940
8160 OM 8160 OM OM1 8160 -0.550000 15.99940
8161 OM 8161 OM OM1 8161 -0.550000 15.99940
8162 OM 8162 OM OM1 8162 -0.550000 15.99940
8163 OM 8163 OM OM1 8163 -0.550000 15.99940
8164 OM 8164 OM OM1 8164 -0.550000 15.99940
8165 OM 8165 OM OM1 8165 -0.550000 15.99940
8166 OM 8166 OM OM1 8166 -0.550000 15.99940
8167 OM 8167 OM OM1 8167 -0.550000 15.99940
8168 OM 8168 OM OM1 8168 -0.550000 15.99940
8169 OM 8169 OM OM1 8169 -0.550000 15.99940
8170 OM 8170 OM OM1 8170 -0.550000 15.99940
8171 OM 8171 OM OM1 8171 -0.550000 15.99940
8172 OM 8172 OM OM1 8172 -0.550000 15.99940
8173 OM 8173 OM OM1 8173 -0.550000 15.99940
8174 OM 8174 OM OM1 8174 -0.550000 15.99940
8175 OM 8175 OM OM1 8175 -0.550000 15.99940
8176 OM 8176 OM OM1 8176 -0.550000 15.99940
8177 OM 8177 OM OM1 8177 -0.550000 15.99940
8178 OM 8178 OM OM1 8178 -0.550000 15.99940
8179 OM 8179 OM OM1 8179 -0.550000 15.99940
8180 OM 8180 OM OM1 8180 -0.550000 15.99940
8181 OM 8181 OM OM1 8181 -0.550000 15.99940
8182 OM 8182 OM OM1 8182 -0.550000 15.99940
8183 OM 8183 OM OM1 8183 -0.550000 15.99940
8184 OM 8184 OM OM1 8184 -0.550000 15.99940
8185 OM 8185 OM OM1 8185 -0.550000 15.99940
8186 OM 8186 OM OM1 8186 -0.550000 15.99940
8187 OM 8187 OM OM1 8187 -0.550000 15.99940
8188 OM 8188 OM OM1 8188 -0.550000 15.99940
8189 OM 8189 OM OM1 8189 -0.550000 15.99940
8190 OM 8190 OM OM1 8190 -0.550000 15.99940
8191 OM 8191 OM OM1 8191 -0.550000 15.99940
8192 OM 8192 OM OM1 8192 -0.550000 15.99940
8193 OM 8193 OM OM1 8193 -0.550000 15.99940
8194 OM 8194 OM OM1 8194 -0.550000 15.99940
8195 OM 8195 OM OM1 8195 -0.550000 15.99940
8196 OM 8196 OM OM1 8196 -0.550000 15.99940
8197 OM 8197 OM OM1 8197 -0.550000 15.99940
8198 OM 8198 OM OM1 8198 -0.550000 15.99940
8199 OM 8199 OM OM1 8199 -0.550000 15.99940
8200 OM 8200 OM OM1 8200 -0.550000 15.99940
8201 OM 8201 OM OM1 8201 -0.550000 15.99940
8202 OM 8202 OM OM1 8202 -0.550000 15.99940
8203 OM 8203 OM OM1 8203 -0.550000 15.99940
8204 OM 8204 OM OM1 8204 -0.550000 15.99940
8205 OM 8205 OM OM1 8205 -0.550000 15.99940
8206 OM 8206 OM OM1 8206 -0.550000 15.99940
8207 OM 8207 OM OM1 8207 -0.550000 15.99940
8208 OM 8208 OM OM1 8208 -0.550000 15.99940
8209 OM 8209 OM OM1 8209 -0.550000 15.99940
8210 OM 8210 OM OM1 8210 -0.550000 15.99940
8211 OM 8211 OM OM1 8211 -0.550000 15.99940
8212 OM 8212 OM OM1 8212 -0.550000 15.99940
8213 OM 8213 OM OM1 8213 -0.550000 15.99940
8214 OM 8214 OM OM1 8214 -0.550000 15.99940
8215 OM 8215 OM OM1 8215 -0.550000 15.99940
8216 OM 8216 OM OM1 8216 -0.550000 15.99940
8217 OM 8217 OM OM1 8217 -0.550000 15.99940
8218 OM 8218 OM OM1 8218 -0.550000 15.99940
8219 OM 8219 OM OM1 8219 -0.550000 15.99940
8220 OM 8220 OM OM1 8220 -0.550000 15.99940
8221 OM 8221 OM OM1 8221 -0.550000 15.99940
8222 OM 8222 OM OM1 8222 -0.550000 15.99940
8223 OM 8223 OM OM1 8223 -0.550000 15.99940
8224 OM 8224 OM OM1 8224 -0.550000 15.99940
8225 OM 8225 OM OM1 8225 -0.550000 15.99940
8226 OM 8226 OM OM1 8226 -0.550000 15.99940
8227 OM 8227 OM OM1 8227 -0.550000 15.99940
8228 OM 8228 OM OM1 8228 -0.550000 15.99940
8229 OM 8229 OM OM1 8229 -0.550000 15.99940
8230 OM 8230 OM OM1 8230 -0.550000 15.99940
8231 OM 8231 OM OM1 8231 -0.550000 15.99940
8232 OM 8232 OM OM1 8232 -0.550000 15.99940
8233 OM 8233 OM OM1 8233 -0.550000 15.99940
8234 OM 8234 OM OM1 8234 -0.550000 15.99940
8235 OM 8235 OM OM1 8235 -0.550000 15.99940
8236 OM 8236 OM OM1 8236 -0.550000 15.99940
8237 OM 8237 OM OM1 8237 -0.550000 15.99940
8238 OM 8238 OM OM1 8238 -0.550000 15.99940
8239 OM 8239 OM OM1 8239 -0.550000 15.99940
8240 OM 8240 OM OM1 8240 -0.550000 15.99940
8241 OM 8241 OM OM1 8241 -0.550000 15.99940
8242 OM 8242 OM OM1 8242 -0.550000 15.99940
8243 OM 8243 OM OM1 8243 -0.550000 15.99940
8244 OM 8244 OM OM1 8244 -0.550000 15.99940
8245 OM 8245 OM OM1 8245 -0.550000 15.99940
8246 OM 8246 OM OM1 8246 -0.550000 15.99940
8247 OM 8247 OM OM1 8247 -0.550000 15.99940
8248 OM 8248 OM OM1 8248 -0.550000 15.99940
8249 OM 8249 OM OM1 8249 -0.550000 15.99940
8250 OM 8250 OM OM1 8250 -0.550000 15.99940
8251 OM 8251 OM OM1 8251 -0.550000 15.99940
8252 OM 8252 OM OM1 8252 -0.550000 15.99940
8253 OM 8253 OM OM1 8253 -0.550000 15.99940
8254 OM 8254 OM OM1 8254 -0.550000 15.99940
8255 OM 8255 OM OM1 8255 -0.550000 15.99940
8256 OM 8256 OM OM1 8256 -0.550000 15.99940
8257 OM 8257 OM OM1 8257 -0.550000 15.99940
8258 OM 8258 OM OM1 8258 -0.550000 15.99940
8259 OM 8259 OM OM1 8259 -0.550000 15.99940
8260 OM 8260 OM OM1 8260 -0.550000 15.99940
8261 OM 8261 OM OM1 8261 -0.550000 15.99940
8262 OM 8262 OM OM1 8262 -0.550000 15.99940
8263 OM 8263 OM OM1 8263 -0.550000 15.99940
8264 OM 8264 OM OM1 8264 -0.550000 15.99940
8265 OM 8265 OM OM1 8265 -0.550000 15.99940
8266 OM 8266 OM OM1 8266 -0.550000 15.99940
8267 OM 8267 OM OM1 8267 -0.550000 15.99940
8268 OM 8268 OM OM1 8268 -0.550000 15.99940
8269 OM 8269 OM OM1 8269 -0.550000 15.99940
8270 OM 8270 OM OM1 8270 -0.550000 15.99940
8271 OM 8271 OM OM1 8271 -0.550000 15.99940
8272 OM 8272 OM OM1 8272 -0.550000 15.99940
8273 OM 8273 OM OM1 8273 -0.550000 15.99940
8274 OM 8274 OM OM1 8274 -0.550000 15.99940
8275 OM 8275 OM OM1 8275 -0.550000 15.99940
8276 OM 8276 OM OM1 8276 -0.550000 15.99940
8277 OM 8277 OM OM1 8277 -0.550000 15.99940
8278 OM 8278 OM OM1 8278 -0.550000 15.99940
8279 OM 8279 OM OM1 8279 -0.550000 15.99940
8280 OM 8280 OM OM1 8280 -0.550000 15.99940
8281 OM 8281 OM OM1 8281 -0.550000 15.99940
8282 OM 8282 OM OM1 8282 -0.550000 15.99940
8283 OM 8283 OM OM1 8283 -0.550000 15.99940
8284 OM 8284 OM OM1 8284 -0.550000 15.99940
8285 OM 8285 OM OM1 8285 -0.550000 15.99940
8286 OM 8286 OM OM1 8286 -0.550000 15.99940
8287 OM 8287 OM OM1 8287 -0.550000 15.99940
8288 OM 8288 OM OM1 8288 -0.550000 15.99940
8289 OM 8289 OM OM1 8289 -0.550000 15.99940
8290 OM 8290 OM OM1 8290 -0.550000 15.99940
8291 OM 8291 OM OM1 8291 -0.550000 15.99940
8292 OM 8292 OM OM1 8292 -0.550000 15.99940
8293 OM 8293 OM OM1 8293 -0.550000 15.99940
8294 OM 8294 OM OM1 8294 -0.550000 15.99940
8295 OM 8295 OM OM1 8295 -0.550000 15.99940
8296 OM 8296 OM OM1 8296 -0.550000 15.99940
8297 OM 8297 OM OM1 8297 -0.550000 15.99940
8298 OM 8298 OM OM1 8298 -0.550000 15.99940
8299 OM 8299 OM OM1 8299 -0.550000 15.99940
8300 OM 8300 OM OM1 8300 -0.550000 15.99940
8301 OM 8301 OM OM1 8301 -0.550000 15.99940
8302 OM 8302 OM OM1 8302 -0.550000 15.99940
8303 OM 8303 OM OM1 8303 -0.550000 15.99940
8304 OM 8304 OM OM1 8304 -0.550000 15.99940
8305 OM 8305 OM OM1 8305 -0.550000 15.99940
8306 OM 8306 OM OM1 8306 -0.550000 15.99940
8307 OM 8307 OM OM1 8307 -0.550000 15.99940
8308 OM 8308 OM OM1 8308 -0.550000 15.99940
8309 OM 8309 OM OM1 8309 -0.550000 15.99940
8310 OM 8310 OM OM1 8310 -0.550000 15.99940
8311 OM 8311 OM OM1 8311 -0.550000 15.99940
8312 OM 8312 OM OM1 8312 -0.550000 15.99940
8313 OM 8313 OM OM1 8313 -0.550000 15.99940
8314 OM 8314 OM OM1 8314 -0.550000 15.99940
8315 OM 8315 OM OM1 8315 -0.550000 15.99940
8316 OM 8316 OM OM1 8316 -0.550000 15.99940
8317 OM 8317 OM OM1 8317 -0.550000 15.99940
8318 OM 8318 OM OM1 8318 -0.550000 15.99940
8319 OM 8319 OM OM1 8319 -0.550000 15.99940
8320 OM 8320 OM OM1 8320 -0.550000 15.99940
8321 OM 8321 OM OM1 8321 -0.550000 15.99940
8322 OM 8322 OM OM1 8322 -0.550000 15.99940
8323 OM 8323 OM OM1 8323 -0.550000 15.99940
8324 OM 8324 OM OM1 8324 -0.550000 15.99940
8325 OM 8325 OM OM1 8325 -0.550000 15.99940
8326 OM 8326 OM OM1 8326 -0.550000 15.99940
8327 OM 8327 OM OM1 8327 -0.550000 15.99940
8328 OM 8328 OM OM1 8328 -0.550000 15.99940
8329 OM 8329 OM OM1 8329 -0.550000 15.99940
8330 OM 8330 OM OM1 8330 -0.550000 15.99940
8331 OM 8331 OM OM1 8331 -0.550000 15.99940
8332 OM 8332 OM OM1 8332 -0.550000 15.99940
8333 OM 8333 OM OM1 8333 -0.550000 15.99940
8334 OM 8334 OM OM1 8334 -0.550000 15.99940
8335 OM 8335 OM OM1 8335 -0.550000 15.99940
8336 OM 8336 OM OM1 8336 -0.550000 15.99940
8337 OM 8337 OM OM1 8337 -0.550000 15.99940
8338 OM 8338 OM OM1 8338 -0.550000 15.99940
8339 OM 8339 OM OM1 8339 -0.550000 15.99940
8340 OM 8340 OM OM1 8340 -0.550000 15.99940
8341 OM 8341 OM OM1 8341 -0.550000 15.99940
8342 OM 8342 OM OM1 8342 -0.550000 15.99940
8343 OM 8343 OM OM1 8343 -0.550000 15.99940
8344 OM 8344 OM OM1 8344 -0.550000 15.99940
8345 OM 8345 OM OM1 8345 -0.550000 15.99940
8346 OM 8346 OM OM1 8346 -0.550000 15.99940
8347 OM 8347 OM OM1 8347 -0.550000 15.99940
8348 OM 8348 OM OM1 8348 -0.550000 15.99940
8349 OM 8349 OM OM1 8349 -0.550000 15.99940
8350 OM 8350 OM OM1 8350 -0.550000 15.99940
8351 OM 8351 OM OM1 8351 -0.550000 15.99940
8352 OM 8352 OM OM1 8352 -0.550000 15.99940
8353 OM 8353 OM OM1 8353 -0.550000 15.99940
8354 OM 8354 OM OM1 8354 -0.550000 15.99940
8355 OM 8355 OM OM1 8355 -0.550000 15.99940
8356 OM 8356 OM OM1 8356 -0.550000 15.99940
8357 OM 8357 OM OM1 8357 -0.550000 15.99940
8358 OM 8358 OM OM1 8358 -0.550000 15.99940
8359 OM 8359 OM OM1 8359 -0.550000 15.99940
8360 OM 8360 OM OM1 8360 -0.550000 15.99940
8361 OM 8361 OM OM1 8361 -0.550000 15.99940
8362 OM 8362 OM OM1 8362 -0.550000 15.99940
8363 OM 8363 OM OM1 8363 -0.550000 15.99940
8364 OM 8364 OM OM1 8364 -0.550000 15.99940
8365 OM 8365 OM OM1 8365 -0.550000 15.99940
8366 OM 8366 OM OM1 8366 -0.550000 15.99940
8367 OM 8367 OM OM1 8367 -0.550000 15.99940
8368 OM 8368 OM OM1 8368 -0.550000 15.99940
8369 OM 8369 OM OM1 8369 -0.550000 15.99940
8370 OM 8370 OM OM1 8370 -0.550000 15.99940
8371 OM 8371 OM OM1 8371 -0.550000 15.99940
8372 OM 8372 OM OM1 8372 -0.550000 15.99940
8373 OM 8373 OM OM1 8373 -0.550000 15.99940
8374 OM 8374 OM OM1 8374 -0.550000 15.99940
8375 OM 8375 OM OM1 8375 -0.550000 15.99940
8376 OM 8376 OM OM1 8376 -0.550000 15.99940
8377 OM 8377 OM OM1 8377 -0.550000 15.99940
8378 OM 8378 OM OM1 8378 -0.550000 15.99940
8379 OM 8379 OM OM1 8379 -0.550000 15.99940
8380 OM 8380 OM OM1 8380 -0.550000 15.99940
8381 OM 8381 OM OM1 8381 -0.550000 15.99940
8382 OM 8382 OM OM1 8382 -0.550000 15.99940
8383 OM 8383 OM OM1 8383 -0.550000 15.99940
8384 OM 8384 OM OM1 8384 -0.550000 15.99940
8385 OM 8385 OM OM1 8385 -0.550000 15.99940
8386 OM 8386 OM OM1 8386 -0.550000 15.99940
8387 OM 8387 OM OM1 8387 -0.550000 15.99940
8388 OM 8388 OM OM1 8388 -0.550000 15.99940
8389 OM 8389 OM OM1 8389 -0.550000 15.99940
8390 OM 8390 OM OM1 8390 -0.550000 15.99940
8391 OM 8391 OM OM1 8391 -0.550000 15.99940
8392 OM 8392 OM OM1 8392 -0.550000 15.99940
8393 OM 8393 OM OM1 8393 -0.550000 15.99940
8394 OM 8394 OM OM1 8394 -0.550000 15.99940
8395 OM 8395 OM OM1 8395 -0.550000 15.99940
8396 OM 8396 OM OM1 8396 -0.550000 15.99940
8397 OM 8397 OM OM1 8397 -0.550000 15.99940
8398 OM 8398 OM OM1 8398 -0.550000 15.99940
8399 OM 8399 OM OM1 8399 -0.550000 15.99940
8400 OM 8400 OM OM1 8400 -0.550000 15.99940
8401 OM 8401 OM OM1 8401 -0.550000 15.99940
8402 OM 8402 OM OM1 8402 -0.550000 15.99940
8403 OM 8403 OM OM1 8403 -0.550000 15.99940
8404 OM 8404 OM OM1 8404 -0.550000 15.99940
8405 OM 8405 OM OM1 8405 -0.550000 15.99940
8406 OM 8406 OM OM1 8406 -0.550000 15.99940
8407 OM 8407 OM OM1 8407 -0.550000 15.99940
8408 OM 8408 OM OM1 8408 -0.550000 15.99940
8409 OM 8409 OM OM1 8409 -0.550000 15.99940
8410 OM 8410 OM OM1 8410 -0.550000 15.99940
8411 OM 8411 OM OM1 8411 -0.550000 15.99940
8412 OM 8412 OM OM1 8412 -0.550000 15.99940
8413 OM 8413 OM OM1 8413 -0.550000 15.99940
8414 OM 8414 OM OM1 8414 -0.550000 15.99940
8415 OM 8415 OM OM1 8415 -0.550000 15.99940
8416 OM 8416 OM OM1 8416 -0.550000 15.99940
8417 OM 8417 OM OM1 8417 -0.550000 15.99940
8418 OM 8418 OM OM1 8418 -0.550000 15.99940
8419 OM 8419 OM OM1 8419 -0.550000 15.99940
8420 OM 8420 OM OM1 8420 -0.550000 15.99940
8421 OM 8421 OM OM1 8421 -0.550000 15.99940
8422 OM 8422 OM OM1 8422 -0.550000 15.99940
8423 OM 8423 OM OM1 8423 -0.550000 15.99940
8424 OM 8424 OM OM1 8424 -0.550000 15.99940
8425 OM 8425 OM OM1 8425 -0.550000 15.99940
8426 OM 8426 OM OM1 8426 -0.550000 15.99940
8427 OM 8427 OM OM1 8427 -0.550000 15.99940
8428 OM 8428 OM OM1 8428 -0.550000 15.99940
8429 OM 8429 OM OM1 8429 -0.550000 15.99940
8430 OM 8430 OM OM1 8430 -0.550000 15.99940
8431 OM 8431 OM OM1 8431 -0.550000 15.99940
8432 OM 8432 OM OM1 8432 -0.550000 15.99940
8433 OM 8433 OM OM1 8433 -0.550000 15.99940
8434 OM 8434 OM OM1 8434 -0.550000 15.99940
8435 OM 8435 OM OM1 8435 -0.550000 15.99940
8436 OM 8436 OM OM1 8436 -0.550000 15.99940
8437 OM 8437 OM OM1 8437 -0.550000 15.99940
8438 OM 8438 OM OM1 8438 -0.550000 15.99940
8439 OM 8439 OM OM1 8439 -0.550000 15.99940
8440 OM 8440 OM OM1 8440 -0.550000 15.99940
8441 OM 8441 OM OM1 8441 -0.550000 15.99940
8442 OM 8442 OM OM1 8442 -0.550000 15.99940
8443 OM 8443 OM OM1 8443 -0.550000 15.99940
8444 OM 8444 OM OM1 8444 -0.550000 15.99940
8445 OM 8445 OM OM1 8445 -0.550000 15.99940
8446 OM 8446 OM OM1 8446 -0.550000 15.99940
8447 OM 8447 OM OM1 8447 -0.550000 15.99940
8448 OM 8448 OM OM1 8448 -0.550000 15.99940
8449 OM 8449 OM OM1 8449 -0.550000 15.99940
8450 OM 8450 OM OM1 8450 -0.550000 15.99940
8451 OM 8451 OM OM1 8451 -0.550000 15.99940
8452 OM 8452 OM OM1 8452 -0.550000 15.99940
8453 OM 8453 OM OM1 8453 -0.550000 15.99940
8454 OM 8454 OM OM1 8454 -0.550000 15.99940
8455 OM 8455 OM OM1 8455 -0.550000 15.99940
8456 OM 8456 OM OM1 8456 -0.550000 15.99940
8457 OM 8457 OM OM1 8457 -0.550000 15.99940
8458 OM 8458 OM OM1 8458 -0.550000 15.99940
8459 OM 8459 OM OM1 8459 -0.550000 15.99940
8460 OM 8460 OM OM1 8460 -0.550000 15.99940
8461 OM 8461 OM OM1 8461 -0.550000 15.99940
8462 OM 8462 OM OM1 8462 -0.550000 15.99940
8463 OM 8463 OM OM1 8463 -0.550000 15.99940
8464 OM 8464 OM OM1 8464 -0.550000 15.99940
8465 OM 8465 OM OM1 8465 -0.550000 15.99940
8466 OM 8466 OM OM1 8466 -0.550000 15.99940
8467 OM 8467 OM OM1 8467 -0.550000 15.99940
8468 OM 8468 OM OM1 8468 -0.550000 15.99940
8469 OM 8469 OM OM1 8469 -0.550000 15.99940
8470 OM 8470 OM OM1 8470 -0.550000 15.99940
8471 OM 8471 OM OM1 8471 -0.550000 15.99940
8472 OM 8472 OM OM1 8472 -0.550000 15.99940
8473 OM 8473 OM OM1 8473 -0.550000 15.99940
8474 OM 8474 OM OM1 8474 -0.550000 15.99940
8475 OM 8475 OM OM1 8475 -0.550000 15.99940
8476 OM 8476 OM OM1 8476 -0.550000 15.99940
8477 OM 8477 OM OM1 8477 -0.550000 15.99940
8478 OM 8478 OM OM1 8478 -0.550000 15.99940
8479 OM 8479 OM OM1 8479 -0.550000 15.99940
8480 OM 8480 OM OM1 8480 -0.550000 15.99940
8481 OM 8481 OM OM1 8481 -0.550000 15.99940
8482 OM 8482 OM OM1 8482 -0.550000 15.99940
8483 OM 8483 OM OM1 8483 -0.550000 15.99940
8484 OM 8484 OM OM1 8484 -0.550000 15.99940
8485 OM 8485 OM OM1 8485 -0.550000 15.99940
8486 OM 8486 OM OM1 8486 -0.550000 15.99940
8487 OM 8487 OM OM1 8487 -0.550000 15.99940
8488 OM 8488 OM OM1 8488 -0.550000 15.99940
8489 OM 8489 OM OM1 8489 -0.550000 15.99940
8490 OM 8490 OM OM1 8490 -0.550000 15.99940
8491 OM 8491 OM OM1 8491 -0.550000 15.99940
8492 OM 8492 OM OM1 8492 -0.550000 15.99940
8493 OM 8493 OM OM1 8493 -0.550000 15.99940
8494 OM 8494 OM OM1 8494 -0.550000 15.99940
8495 OM 8495 OM OM1 8495 -0.550000 15.99940
8496 OM 8496 OM OM1 8496 -0.550000 15.99940
8497 OM 8497 OM OM1 8497 -0.550000 15.99940
8498 OM 8498 OM OM1 8498 -0.550000 15.99940
8499 OM 8499 OM OM1 8499 -0.550000 15.99940
8500 OM 8500 OM OM1 8500 -0.550000 15.99940
8501 OM 8501 OM OM1 8501 -0.550000 15.99940
8502 OM 8502 OM OM1 8502 -0.550000 15.99940
8503 OM 8503 OM OM1 8503 -0.550000 15.99940
8504 OM 8504 OM OM1 8504 -0.550000 15.99940
8505 OM 8505 OM OM1 8505 -0.550000 15.99940
8506 OM 8506 OM OM1 8506 -0.550000 15.99940
8507 OM 8507 OM OM1 8507 -0.550000 15.99940
8508 OM 8508 OM OM1 8508 -0.550000 15.99940
8509 OM 8509 OM OM1 8509 -0.550000 15.99940
8510 OM 8510 OM OM1 8510 -0.550000 15.99940
8511 OM 8511 OM OM1 8511 -0.550000 15.99940
8512 OM 8512 OM OM1 8512 -0.550000 15.99940
8513 OM 8513 OM OM1 8513 -0.550000 15.99940
8514 OM 8514 OM OM1 8514 -0.550000 15.99940
8515 OM 8515 OM OM1 8515 -0.550000 15.99940
8516 OM 8516 OM OM1 8516 -0.550000 15.99940
8517 OM 8517 OM OM1 8517 -0.550000 15.99940
8518 OM 8518 OM OM1 8518 -0.550000 15.99940
8519 OM 8519 OM OM1 8519 -0.550000 15.99940
8520 OM 8520 OM OM1 8520 -0.550000 15.99940
8521 OM 8521 OM OM1 8521 -0.550000 15.99940
8522 OM 8522 OM OM1 8522 -0.550000 15.99940
8523 OM 8523 OM OM1 8523 -0.550000 15.99940
8524 OM 8524 OM OM1 8524 -0.550000 15.99940
8525 OM 8525 OM OM1 8525 -0.550000 15.99940
8526 OM 8526 OM OM1 8526 -0.550000 15.99940
8527 OM 8527 OM OM1 8527 -0.550000 15.99940
8528 OM 8528 OM OM1 8528 -0.550000 15.99940
8529 OM 8529 OM OM1 8529 -0.550000 15.99940
8530 OM 8530 OM OM1 8530 -0.550000 15.99940
8531 OM 8531 OM OM1 8531 -0.550000 15.99940
8532 OM 8532 OM OM1 8532 -0.550000 15.99940
8533 OM 8533 OM OM1 8533 -0.550000 15.99940
8534 OM 8534 OM OM1 8534 -0.550000 15.99940
8535 OM 8535 OM OM1 8535 -0.550000 15.99940
8536 OM 8536 OM OM1 8536 -0.550000 15.99940
8537 OM 8537 OM OM1 8537 -0.550000 15.99940
8538 OM 8538 OM OM1 8538 -0.550000 15.99940
8539 OM 8539 OM OM1 8539 -0.550000 15.99940
8540 OM 8540 OM OM1 8540 -0.550000 15.99940
8541 OM 8541 OM OM1 8541 -0.550000 15.99940
8542 OM 8542 OM OM1 8542 -0.550000 15.99940
8543 OM 8543 OM OM1 8543 -0.550000 15.99940
8544 OM 8544 OM OM1 8544 -0.550000 15.99940
8545 OM 8545 OM OM1 8545 -0.550000 15.99940
8546 OM 8546 OM OM1 8546 -0.550000 15.99940
8547 OM 8547 OM OM1 8547 -0.550000 15.99940
8548 OM 8548 OM OM1 8548 -0.550000 15.99940
8549 OM 8549 OM OM1 8549 -0.550000 15.99940
8550 OM 8550 OM OM1 8550 -0.550000 15.99940
8551 OM 8551 OM OM1 8551 -0.550000 15.99940
8552 OM 8552 OM OM1 8552 -0.550000 15.99940
8553 OM 8553 OM OM1 8553 -0.550000 15.99940
8554 OM 8554 OM OM1 8554 -0.550000 15.99940
8555 OM 8555 OM OM1 8555 -0.550000 15.99940
8556 OM 8556 OM OM1 8556 -0.550000 15.99940
8557 OM 8557 OM OM1 8557 -0.550000 15.99940
8558 OM 8558 OM OM1 8558 -0.550000 15.99940
8559 OM 8559 OM OM1 8559 -0.550000 15.99940
8560 OM 8560 OM OM1 8560 -0.550000 15.99940
8561 OM 8561 OM OM1 8561 -0.550000 15.99940
8562 OM 8562 OM OM1 8562 -0.550000 15.99940
8563 OM 8563 OM OM1 8563 -0.550000 15.99940
8564 OM 8564 OM OM1 8564 -0.550000 15.99940
8565 OM 8565 OM OM1 8565 -0.550000 15.99940
8566 OM 8566 OM OM1 8566 -0.550000 15.99940
8567 OM 8567 OM OM1 8567 -0.550000 15.99940
8568 OM 8568 OM OM1 8568 -0.550000 15.99940
8569 OM 8569 OM OM1 8569 -0.550000 15.99940
8570 OM 8570 OM OM1 8570 -0.550000 15.99940
8571 OM 8571 OM OM1 8571 -0.550000 15.99940
8572 OM 8572 OM OM1 8572 -0.550000 15.99940
8573 OM 8573 OM OM1 8573 -0.550000 15.99940
8574 OM 8574 OM OM1 8574 -0.550000 15.99940
8575 OM 8575 OM OM1 8575 -0.550000 15.99940
8576 OM 8576 OM OM1 8576 -0.550000 15.99940
8577 OM 8577 OM OM1 8577 -0.550000 15.99940
8578 OM 8578 OM OM1 8578 -0.550000 15.99940
8579 OM 8579 OM OM1 8579 -0.550000 15.99940
8580 OM 8580 OM OM1 8580 -0.550000 15.99940
8581 OM 8581 OM OM1 8581 -0.550000 15.99940
8582 OM 8582 OM OM1 8582 -0.550000 15.99940
8583 OM 8583 OM OM1 8583 -0.550000 15.99940
8584 OM 8584 OM OM1 8584 -0.550000 15.99940
8585 OM 8585 OM OM1 8585 -0.550000 15.99940
8586 OM 8586 OM OM1 8586 -0.550000 15.99940
8587 OM 8587 OM OM1 8587 -0.550000 15.99940
8588 OM 8588 OM OM1 8588 -0.550000 15.99940
8589 OM 8589 OM OM1 8589 -0.550000 15.99940
8590 OM 8590 OM OM1 8590 -0.550000 15.99940
8591 OM 8591 OM OM1 8591 -0.550000 15.99940
8592 OM 8592 OM OM1 8592 -0.550000 15.99940
8593 OM 8593 OM OM1 8593 -0.550000 15.99940
8594 OM 8594 OM OM1 8594 -0.550000 15.99940
8595 OM 8595 OM OM1 8595 -0.550000 15.99940
8596 OM 8596 OM OM1 8596 -0.550000 15.99940
8597 OM 8597 OM OM1 8597 -0.550000 15.99940
8598 OM 8598 OM OM1 8598 -0.550000 15.99940
8599 OM 8599 OM OM1 8599 -0.550000 15.99940
8600 OM 8600 OM OM1 8600 -0.550000 15.99940
8601 OM 8601 OM OM1 8601 -0.550000 15.99940
8602 OM 8602 OM OM1 8602 -0.550000 15.99940
8603 OM 8603 OM OM1 8603 -0.550000 15.99940
8604 OM 8604 OM OM1 8604 -0.550000 15.99940
8605 OM 8605 OM OM1 8605 -0.550000 15.99940
8606 OM 8606 OM OM1 8606 -0.550000 15.99940
8607 OM 8607 OM OM1 8607 -0.550000 15.99940
8608 OM 8608 OM OM1 8608 -0.550000 15.99940
8609 OM 8609 OM OM1 8609 -0.550000 15.99940
8610 OM 8610 OM OM1 8610 -0.550000 15.99940
8611 OM 8611 OM OM1 8611 -0.550000 15.99940
8612 OM 8612 OM OM1 8612 -0.550000 15.99940
8613 OM 8613 OM OM1 8613 -0.550000 15.99940
8614 OM 8614 OM OM1 8614 -0.550000 15.99940
8615 OM 8615 OM OM1 8615 -0.550000 15.99940
8616 OM 8616 OM OM1 8616 -0.550000 15.99940
8617 OM 8617 OM OM1 8617 -0.550000 15.99940
8618 OM 8618 OM OM1 8618 -0.550000 15.99940
8619 OM 8619 OM OM1 8619 -0.550000 15.99940
8620 OM 8620 OM OM1 8620 -0.550000 15.99940
8621 OM 8621 OM OM1 8621 -0.550000 15.99940
8622 OM 8622 OM OM1 8622 -0.550000 15.99940
8623 OM 8623 OM OM1 8623 -0.550000 15.99940
8624 OM 8624 OM OM1 8624 -0.550000 15.99940
8625 OM 8625 OM OM1 8625 -0.550000 15.99940
8626 OM 8626 OM OM1 8626 -0.550000 15.99940
8627 OM 8627 OM OM1 8627 -0.550000 15.99940
8628 OM 8628 OM OM1 8628 -0.550000 15.99940
8629 OM 8629 OM OM1 8629 -0.550000 15.99940
8630 OM 8630 OM OM1 8630 -0.550000 15.99940
8631 OM 8631 OM OM1 8631 -0.550000 15.99940
8632 OM 8632 OM OM1 8632 -0.550000 15.99940
8633 OM 8633 OM OM1 8633 -0.550000 15.99940
8634 OM 8634 OM OM1 8634 -0.550000 15.99940
8635 OM 8635 OM OM1 8635 -0.550000 15.99940
8636 OM 8636 OM OM1 8636 -0.550000 15.99940
8637 OM 8637 OM OM1 8637 -0.550000 15.99940
8638 OM 8638 OM OM1 8638 -0.550000 15.99940
8639 OM 8639 OM OM1 8639 -0.550000 15.99940
8640 OM 8640 OM OM1 8640 -0.550000 15.99940
8641 OM 8641 OM OM1 8641 -0.550000 15.99940
8642 OM 8642 OM OM1 8642 -0.550000 15.99940
8643 OM 8643 OM OM1 8643 -0.550000 15.99940
8644 OM 8644 OM OM1 8644 -0.550000 15.99940
8645 OM 8645 OM OM1 8645 -0.550000 15.99940
8646 OM 8646 OM OM1 8646 -0.550000 15.99940
8647 OM 8647 OM OM1 8647 -0.550000 15.99940
8648 OM 8648 OM OM1 8648 -0.550000 15.99940
8649 OM 8649 OM OM1 8649 -0.550000 15.99940
8650 OM 8650 OM OM1 8650 -0.550000 15.99940
8651 OM 8651 OM OM1 8651 -0.550000 15.99940
8652 OM 8652 OM OM1 8652 -0.550000 15.99940
8653 OM 8653 OM OM1 8653 -0.550000 15.99940
8654 OM 8654 OM OM1 8654 -0.550000 15.99940
8655 OM 8655 OM OM1 8655 -0.550000 15.99940
8656 OM 8656 OM OM1 8656 -0.550000 15.99940
8657 OM 8657 OM OM1 8657 -0.550000 15.99940
8658 OM 8658 OM OM1 8658 -0.550000 15.99940
8659 OM 8659 OM OM1 8659 -0.550000 15.99940
8660 OM 8660 OM OM1 8660 -0.550000 15.99940
8661 OM 8661 OM OM1 8661 -0.550000 15.99940
8662 OM 8662 OM OM1 8662 -0.550000 15.99940
8663 OM 8663 OM OM1 8663 -0.550000 15.99940
8664 OM 8664 OM OM1 8664 -0.550000 15.99940
8665 OM 8665 OM OM1 8665 -0.550000 15.99940
8666 OM 8666 OM OM1 8666 -0.550000 15.99940
8667 OM 8667 OM OM1 8667 -0.550000 15.99940
8668 OM 8668 OM OM1 8668 -0.550000 15.99940
8669 OM 8669 OM OM1 8669 -0.550000 15.99940
8670 OM 8670 OM OM1 8670 -0.550000 15.99940
8671 OM 8671 OM OM1 8671 -0.550000 15.99940
8672 OM 8672 OM OM1 8672 -0.550000 15.99940
8673 OM 8673 OM OM1 8673 -0.550000 15.99940
8674 OM 8674 OM OM1 8674 -0.550000 15.99940
8675 OM 8675 OM OM1 8675 -0.550000 15.99940
8676 OM 8676 OM OM1 8676 -0.550000 15.99940
8677 OM 8677 OM OM1 8677 -0.550000 15.99940
8678 OM 8678 OM OM1 8678 -0.550000 15.99940
8679 OM 8679 OM OM1 8679 -0.550000 15.99940
8680 OM 8680 OM OM1 8680 -0.550000 15.99940
8681 OM 8681 OM OM1 8681 -0.550000 15.99940
8682 OM 8682 OM OM1 8682 -0.550000 15.99940
8683 OM 8683 OM OM1 8683 -0.550000 15.99940
8684 OM 8684 OM OM1 8684 -0.550000 15.99940
8685 OM 8685 OM OM1 8685 -0.550000 15.99940
8686 OM 8686 OM OM1 8686 -0.550000 15.99940
8687 OM 8687 OM OM1 8687 -0.550000 15.99940
8688 OM 8688 OM OM1 8688 -0.550000 15.99940
8689 OM 8689 OM OM1 8689 -0.550000 15.99940
8690 OM 8690 OM OM1 8690 -0.550000 15.99940
8691 OM 8691 OM OM1 8691 -0.550000 15.99940
8692 OM 8692 OM OM1 8692 -0.550000 15.99940
8693 OM 8693 OM OM1 8693 -0.550000 15.99940
8694 OM 8694 OM OM1 8694 -0.550000 15.99940
8695 OM 8695 OM OM1 8695 -0.550000 15.99940
8696 OM 8696 OM OM1 8696 -0.550000 15.99940
8697 OM 8697 OM OM1 8697 -0.550000 15.99940
8698 OM 8698 OM OM1 8698 -0.550000 15.99940
8699 OM 8699 OM OM1 8699 -0.550000 15.99940
8700 OM 8700 OM OM1 8700 -0.550000 15.99940
8701 OM 8701 OM OM1 8701 -0.550000 15.99940
8702 OM 8702 OM OM1 8702 -0.550000 15.99940
8703 OM 8703 OM OM1 8703 -0.550000 15.99940
8704 OM 8704 OM OM1 8704 -0.550000 15.99940
8705 OM 8705 OM OM1 8705 -0.550000 15.99940
8706 OM 8706 OM OM1 8706 -0.550000 15.99940
8707 OM 8707 OM OM1 8707 -0.550000 15.99940
8708 OM 8708 OM OM1 8708 -0.550000 15.99940
8709 OM 8709 OM OM1 8709 -0.550000 15.99940
8710 OM 8710 OM OM1 8710 -0.550000 15.99940
8711 OM 8711 OM OM1 8711 -0.550000 15.99940
8712 OM 8712 OM OM1 8712 -0.550000 15.99940
8713 OM 8713 OM OM1 8713 -0.550000 15.99940
8714 OM 8714 OM OM1 8714 -0.550000 15.99940
8715 OM 8715 OM OM1 8715 -0.550000 15.99940
8716 OM 8716 OM OM1 8716 -0.550000 15.99940
8717 OM 8717 OM OM1 8717 -0.550000 15.99940
8718 OM 8718 OM OM1 8718 -0.550000 15.99940
8719 OM 8719 OM OM1 8719 -0.550000 15.99940
8720 OM 8720 OM OM1 8720 -0.550000 15.99940
8721 OM 8721 OM OM1 8721 -0.550000 15.99940
8722 OM 8722 OM OM1 8722 -0.550000 15.99940
8723 OM 8723 OM OM1 8723 -0.550000 15.99940
8724 OM 8724 OM OM1 8724 -0.550000 15.99940
8725 OM 8725 OM OM1 8725 -0.550000 15.99940
8726 OM 8726 OM OM1 8726 -0.550000 15.99940
8727 OM 8727 OM OM1 8727 -0.550000 15.99940
8728 OM 8728 OM OM1 8728 -0.550000 15.99940
8729 OM 8729 OM OM1 8729 -0.550000 15.99940
8730 OM 8730 OM OM1 8730 -0.550000 15.99940
8731 OM 8731 OM OM1 8731 -0.550000 15.99940
8732 OM 8732 OM OM1 8732 -0.550000 15.99940
8733 OM 8733 OM OM1 8733 -0.550000 15.99940
8734 OM 8734 OM OM1 8734 -0.550000 15.99940
8735 OM 8735 OM OM1 8735 -0.550000 15.99940
8736 OM 8736 OM OM1 8736 -0.550000 15.99940
8737 OM 8737 OM OM1 8737 -0.550000 15.99940
8738 OM 8738 OM OM1 8738 -0.550000 15.99940
8739 OM 8739 OM OM1 8739 -0.550000 15.99940
8740 OM 8740 OM OM1 8740 -0.550000 15.99940
8741 OM 8741 OM OM1 8741 -0.550000 15.99940
8742 OM 8742 OM OM1 8742 -0.550000 15.99940
8743 OM 8743 OM OM1 8743 -0.550000 15.99940
8744 OM 8744 OM OM1 8744 -0.550000 15.99940
8745 OM 8745 OM OM1 8745 -0.550000 15.99940
8746 OM 8746 OM OM1 8746 -0.550000 15.99940
8747 OM 8747 OM OM1 8747 -0.550000 15.99940
8748 OM 8748 OM OM1 8748 -0.550000 15.99940
8749 OM 8749 OM OM1 8749 -0.550000 15.99940
8750 OM 8750 OM OM1 8750 -0.550000 15.99940
8751 OM 8751 OM OM1 8751 -0.550000 15.99940
8752 OM 8752 OM OM1 8752 -0.550000 15.99940
8753 OM 8753 OM OM1 8753 -0.550000 15.99940
8754 OM 8754 OM OM1 8754 -0.550000 15.99940
8755 OM 8755 OM OM1 8755 -0.550000 15.99940
8756 OM 8756 OM OM1 8756 -0.550000 15.99940
8757 OM 8757 OM OM1 8757 -0.550000 15.99940
8758 OM 8758 OM OM1 8758 -0.550000 15.99940
8759 OM 8759 OM OM1 8759 -0.550000 15.99940
8760 OM 8760 OM OM1 8760 -0.550000 15.99940
8761 OM 8761 OM OM1 8761 -0.550000 15.99940
8762 OM 8762 OM OM1 8762 -0.550000 15.99940
8763 OM 8763 OM OM1 8763 -0.550000 15.99940
8764 OM 8764 OM OM1 8764 -0.550000 15.99940
8765 OM 8765 OM OM1 8765 -0.550000 15.99940
8766 OM 8766 OM OM1 8766 -0.550000 15.99940
8767 OM 8767 OM OM1 8767 -0.550000 15.99940
8768 OM 8768 OM OM1 8768 -0.550000 15.99940
8769 OM 8769 OM OM1 8769 -0.550000 15.99940
8770 OM 8770 OM OM1 8770 -0.550000 15.99940
8771 OM 8771 OM OM1 8771 -0.550000 15.99940
8772 OM 8772 OM OM1 8772 -0.550000 15.99940
8773 OM 8773 OM OM1 8773 -0.550000 15.99940
8774 OM 8774 OM OM1 8774 -0.550000 15.99940
8775 OM 8775 OM OM1 8775 -0.550000 15.99940
8776 OM 8776 OM OM1 8776 -0.550000 15.99940
8777 OM 8777 OM OM1 8777 -0.550000 15.99940
8778 OM 8778 OM OM1 8778 -0.550000 15.99940
8779 OM 8779 OM OM1 8779 -0.550000 15.99940
8780 OM 8780 OM OM1 8780 -0.550000 15.99940
8781 OM 8781 OM OM1 8781 -0.550000 15.99940
8782 OM 8782 OM OM1 8782 -0.550000 15.99940
8783 OM 8783 OM OM1 8783 -0.550000 15.99940
8784 OM 8784 OM OM1 8784 -0.550000 15.99940
8785 OM 8785 OM OM1 8785 -0.550000 15.99940
8786 OM 8786 OM OM1 8786 -0.550000 15.99940
8787 OM 8787 OM OM1 8787 -0.550000 15.99940
8788 OM 8788 OM OM1 8788 -0.550000 15.99940
8789 OM 8789 OM OM1 8789 -0.550000 15.99940
8790 OM 8790 OM OM1 8790 -0.550000 15.99940
8791 OM 8791 OM OM1 8791 -0.550000 15.99940
8792 OM 8792 OM OM1 8792 -0.550000 15.99940
8793 OM 8793 OM OM1 8793 -0.550000 15.99940
8794 OM 8794 OM OM1 8794 -0.550000 15.99940
8795 OM 8795 OM OM1 8795 -0.550000 15.99940
8796 OM 8796 OM OM1 8796 -0.550000 15.99940
8797 OM 8797 OM OM1 8797 -0.550000 15.99940
8798 OM 8798 OM OM1 8798 -0.550000 15.99940
8799 OM 8799 OM OM1 8799 -0.550000 15.99940
8800 OM 8800 OM OM1 8800 -0.550000 15.99940
8801 OM 8801 OM OM1 8801 -0.550000 15.99940
8802 OM 8802 OM OM1 8802 -0.550000 15.99940
8803 OM 8803 OM OM1 8803 -0.550000 15.99940
8804 OM 8804 OM OM1 8804 -0.550000 15.99940
8805 OM 8805 OM OM1 8805 -0.550000 15.99940
8806 OM 8806 OM OM1 8806 -0.550000 15.99940
8807 OM 8807 OM OM1 8807 -0.550000 15.99940
8808 OM 8808 OM OM1 8808 -0.550000 15.99940
8809 OM 8809 OM OM1 8809 -0.550000 15.99940
8810 OM 8810 OM OM1 8810 -0.550000 15.99940
8811 OM 8811 OM OM1 8811 -0.550000 15.99940
8812 OM 8812 OM OM1 8812 -0.550000 15.99940
8813 OM 8813 OM OM1 8813 -0.550000 15.99940
8814 OM 8814 OM OM1 8814 -0.550000 15.99940
8815 OM 8815 OM OM1 8815 -0.550000 15.99940
8816 OM 8816 OM OM1 8816 -0.550000 15.99940
8817 OM 8817 OM OM1 8817 -0.550000 15.99940
8818 OM 8818 OM OM1 8818 -0.550000 15.99940
8819 OM 8819 OM OM1 8819 -0.550000 15.99940
8820 OM 8820 OM OM1 8820 -0.550000 15.99940
8821 OM 8821 OM OM1 8821 -0.550000 15.99940
8822 OM 8822 OM OM1 8822 -0.550000 15.99940
8823 OM 8823 OM OM1 8823 -0.550000 15.99940
8824 OM 8824 OM OM1 8824 -0.550000 15.99940
8825 OM 8825 OM OM1 8825 -0.550000 15.99940
8826 OM 8826 OM OM1 8826 -0.550000 15.99940
8827 OM 8827 OM OM1 8827 -0.550000 15.99940
8828 OM 8828 OM OM1 8828 -0.550000 15.99940
8829 OM 8829 OM OM1 8829 -0.550000 15.99940
8830 OM 8830 OM OM1 8830 -0.550000 15.99940
8831 OM 8831 OM OM1 8831 -0.550000 15.99940
8832 OM 8832 OM OM1 8832 -0.550000 15.99940
8833 OM 8833 OM OM1 8833 -0.550000 15.99940
8834 OM 8834 OM OM1 8834 -0.550000 15.99940
8835 OM 8835 OM OM1 8835 -0.550000 15.99940
8836 OM 8836 OM OM1 8836 -0.550000 15.99940
8837 OM 8837 OM OM1 8837 -0.550000 15.99940
8838 OM 8838 OM OM1 8838 -0.550000 15.99940
8839 OM 8839 OM OM1 8839 -0.550000 15.99940
8840 OM 8840 OM OM1 8840 -0.550000 15.99940
8841 OM 8841 OM OM1 8841 -0.550000 15.99940
8842 OM 8842 OM OM1 8842 -0.550000 15.99940
8843 OM 8843 OM OM1 8843 -0.550000 15.99940
8844 OM 8844 OM OM1 8844 -0.550000 15.99940
8845 OM 8845 OM OM1 8845 -0.550000 15.99940
8846 OM 8846 OM OM1 8846 -0.550000 15.99940
8847 OM 8847 OM OM1 8847 -0.550000 15.99940
8848 OM 8848 OM OM1 8848 -0.550000 15.99940
8849 OM 8849 OM OM1 8849 -0.550000 15.99940
8850 OM 8850 OM OM1 8850 -0.550000 15.99940
8851 OM 8851 OM OM1 8851 -0.550000 15.99940
8852 OM 8852 OM OM1 8852 -0.550000 15.99940
8853 OM 8853 OM OM1 8853 -0.550000 15.99940
8854 OM 8854 OM OM1 8854 -0.550000 15.99940
8855 OM 8855 OM OM1 8855 -0.550000 15.99940
8856 OM 8856 OM OM1 8856 -0.550000 15.99940
8857 OM 8857 OM OM1 8857 -0.550000 15.99940
8858 OM 8858 OM OM1 8858 -0.550000 15.99940
8859 OM 8859 OM OM1 8859 -0.550000 15.99940
8860 OM 8860 OM OM1 8860 -0.550000 15.99940
8861 OM 8861 OM OM1 8861 -0.550000 15.99940
8862 OM 8862 OM OM1 8862 -0.550000 15.99940
8863 OM 8863 OM OM1 8863 -0.550000 15.99940
8864 OM 8864 OM OM1 8864 -0.550000 15.99940
8865 OM 8865 OM OM1 8865 -0.550000 15.99940
8866 OM 8866 OM OM1 8866 -0.550000 15.99940
8867 OM 8867 OM OM1 8867 -0.550000 15.99940
8868 OM 8868 OM OM1 8868 -0.550000 15.99940
8869 OM 8869 OM OM1 8869 -0.550000 15.99940
8870 OM 8870 OM OM1 8870 -0.550000 15.99940
8871 OM 8871 OM OM1 8871 -0.550000 15.99940
8872 OM 8872 OM OM1 8872 -0.550000 15.99940
8873 OM 8873 OM OM1 8873 -0.550000 15.99940
8874 OM 8874 OM OM1 8874 -0.550000 15.99940
8875 OM 8875 OM OM1 8875 -0.550000 15.99940
8876 OM 8876 OM OM1 8876 -0.550000 15.99940
8877 OM 8877 OM OM1 8877 -0.550000 15.99940
8878 OM 8878 OM OM1 8878 -0.550000 15.99940
8879 OM 8879 OM OM1 8879 -0.550000 15.99940
8880 OM 8880 OM OM1 8880 -0.550000 15.99940
8881 OM 8881 OM OM1 8881 -0.550000 15.99940
8882 OM 8882 OM OM1 8882 -0.550000 15.99940
8883 OM 8883 OM OM1 8883 -0.550000 15.99940
8884 OM 8884 OM OM1 8884 -0.550000 15.99940
8885 OM 8885 OM OM1 8885 -0.550000 15.99940
8886 OM 8886 OM OM1 8886 -0.550000 15.99940
8887 OM 8887 OM OM1 8887 -0.550000 15.99940
8888 OM 8888 OM OM1 8888 -0.550000 15.99940
8889 OM 8889 OM OM1 8889 -0.550000 15.99940
8890 OM 8890 OM OM1 8890 -0.550000 15.99940
8891 OM 8891 OM OM1 8891 -0.550000 15.99940
8892 OM 8892 OM OM1 8892 -0.550000 15.99940
8893 OM 8893 OM OM1 8893 -0.550000 15.99940
8894 OM 8894 OM OM1 8894 -0.550000 15.99940
8895 OM 8895 OM OM1 8895 -0.550000 15.99940
8896 OM 8896 OM OM1 8896 -0.550000 15.99940
8897 OM 8897 OM OM1 8897 -0.550000 15.99940
8898 OM 8898 OM OM1 8898 -0.550000 15.99940
8899 OM 8899 OM OM1 8899 -0.550000 15.99940
8900 OM 8900 OM OM1 8900 -0.550000 15.99940
8901 OM 8901 OM OM1 8901 -0.550000 15.99940
8902 OM 8902 OM OM1 8902 -0.550000 15.99940
8903 OM 8903 OM OM1 8903 -0.550000 15.99940
8904 OM 8904 OM OM1 8904 -0.550000 15.99940
8905 OM 8905 OM OM1 8905 -0.550000 15.99940
8906 OM 8906 OM OM1 8906 -0.550000 15.99940
8907 OM 8907 OM OM1 8907 -0.550000 15.99940
8908 OM 8908 OM OM1 8908 -0.550000 15.99940
8909 OM 8909 OM OM1 8909 -0.550000 15.99940
8910 OM 8910 OM OM1 8910 -0.550000 15.99940
8911 OM 8911 OM OM1 8911 -0.550000 15.99940
8912 OM 8912 OM OM1 8912 -0.550000 15.99940
8913 OM 8913 OM OM1 8913 -0.550000 15.99940
8914 OM 8914 OM OM1 8914 -0.550000 15.99940
8915 OM 8915 OM OM1 8915 -0.550000 15.99940
8916 OM 8916 OM OM1 8916 -0.550000 15.99940
8917 OM 8917 OM OM1 8917 -0.550000 15.99940
8918 OM 8918 OM OM1 8918 -0.550000 15.99940
8919 OM 8919 OM OM1 8919 -0.550000 15.99940
8920 OM 8920 OM OM1 8920 -0.550000 15.99940
8921 OM 8921 OM OM1 8921 -0.550000 15.99940
8922 OM 8922 OM OM1 8922 -0.550000 15.99940
8923 OM 8923 OM OM1 8923 -0.550000 15.99940
8924 OM 8924 OM OM1 8924 -0.550000 15.99940
8925 OM 8925 OM OM1 8925 -0.550000 15.99940
8926 OM 8926 OM OM1 8926 -0.550000 15.99940
8927 OM 8927 OM OM1 8927 -0.550000 15.99940
8928 OM 8928 OM OM1 8928 -0.550000 15.99940
8929 OM 8929 OM OM1 8929 -0.550000 15.99940
8930 OM 8930 OM OM1 8930 -0.550000 15.99940
8931 OM 8931 OM OM1 8931 -0.550000 15.99940
8932 OM 8932 OM OM1 8932 -0.550000 15.99940
8933 OM 8933 OM OM1 8933 -0.550000 15.99940
8934 OM 8934 OM OM1 8934 -0.550000 15.99940
8935 OM 8935 OM OM1 8935 -0.550000 15.99940
8936 OM 8936 OM OM1 8936 -0.550000 15.99940
8937 OM 8937 OM OM1 8937 -0.550000 15.99940
8938 OM 8938 OM OM1 8938 -0.550000 15.99940
8939 OM 8939 OM OM1 8939 -0.550000 15.99940
8940 OM 8940 OM OM1 8940 -0.550000 15.99940
8941 OM 8941 OM OM1 8941 -0.550000 15.99940
8942 OM 8942 OM OM1 8942 -0.550000 15.99940
8943 OM 8943 OM OM1 8943 -0.550000 15.99940
8944 OM 8944 OM OM1 8944 -0.550000 15.99940
8945 OM 8945 OM OM1 8945 -0.550000 15.99940
8946 OM 8946 OM OM1 8946 -0.550000 15.99940
8947 OM 8947 OM OM1 8947 -0.550000 15.99940
8948 OM 8948 OM OM1 8948 -0.550000 15.99940
8949 OM 8949 OM OM1 8949 -0.550000 15.99940
8950 OM 8950 OM OM1 8950 -0.550000 15.99940
8951 OM 8951 OM OM1 8951 -0.550000 15.99940
8952 OM 8952 OM OM1 8952 -0.550000 15.99940
8953 OM 8953 OM OM1 8953 -0.550000 15.99940
8954 OM 8954 OM OM1 8954 -0.550000 15.99940
8955 OM 8955 OM OM1 8955 -0.550000 15.99940
8956 OM 8956 OM OM1 8956 -0.550000 15.99940
8957 OM 8957 OM OM1 8957 -0.550000 15.99940
8958 OM 8958 OM OM1 8958 -0.550000 15.99940
8959 OM 8959 OM OM1 8959 -0.550000 15.99940
8960 OM 8960 OM OM1 8960 -0.550000 15.99940
8961 OM 8961 OM OM1 8961 -0.550000 15.99940
8962 OM 8962 OM OM1 8962 -0.550000 15.99940
8963 OM 8963 OM OM1 8963 -0.550000 15.99940
8964 OM 8964 OM OM1 8964 -0.550000 15.99940
8965 OM 8965 OM OM1 8965 -0.550000 15.99940
8966 OM 8966 OM OM1 8966 -0.550000 15.99940
8967 OM 8967 OM OM1 8967 -0.550000 15.99940
8968 OM 8968 OM OM1 8968 -0.550000 15.99940
8969 OM 8969 OM OM1 8969 -0.550000 15.99940
8970 OM 8970 OM OM1 8970 -0.550000 15.99940
8971 OM 8971 OM OM1 8971 -0.550000 15.99940
8972 OM 8972 OM OM1 8972 -0.550000 15.99940
8973 OM 8973 OM OM1 8973 -0.550000 15.99940
8974 OM 8974 OM OM1 8974 -0.550000 15.99940
8975 OM 8975 OM OM1 8975 -0.550000 15.99940
8976 OM 8976 OM OM1 8976 -0.550000 15.99940
8977 OM 8977 OM OM1 8977 -0.550000 15.99940
8978 OM 8978 OM OM1 8978 -0.550000 15.99940
8979 OM 8979 OM OM1 8979 -0.550000 15.99940
8980 OM 8980 OM OM1 8980 -0.550000 15.99940
8981 OM 8981 OM OM1 8981 -0.550000 15.99940
8982 OM 8982 OM OM1 8982 -0.550000 15.99940
8983 OM 8983 OM OM1 8983 -0.550000 15.99940
8984 OM 8984 OM OM1 8984 -0.550000 15.99940
8985 OM 8985 OM OM1 8985 -0.550000 15.99940
8986 OM 8986 OM OM1 8986 -0.550000 15.99940
8987 OM 8987 OM OM1 8987 -0.550000 15.99940
8988 OM 8988 OM OM1 8988 -0.550000 15.99940
8989 OM 8989 OM OM1 8989 -0.550000 15.99940
8990 OM 8990 OM OM1 8990 -0.550000 15.99940
8991 OM 8991 OM OM1 8991 -0.550000 15.99940
8992 OM 8992 OM OM1 8992 -0.550000 15.99940
8993 OM 8993 OM OM1 8993 -0.550000 15.99940
8994 OM 8994 OM OM1 8994 -0.550000 15.99940
8995 OM 8995 OM OM1 8995 -0.550000 15.99940
8996 OM 8996 OM OM1 8996 -0.550000 15.99940
8997 OM 8997 OM OM1 8997 -0.550000 15.99940
8998 OM 8998 OM OM1 8998 -0.550000 15.99940
8999 OM 8999 OM OM1 8999 -0.550000 15.99940
9000 OM 9000 OM OM1 9000 -0.550000 15.99940
9001 OM 9001 OM OM1 9001 -0.550000 15.99940
9002 OM 9002 OM OM1 9002 -0.550000 15.99940
9003 OM 9003 OM OM1 9003 -0.550000 15.99940
9004 OM 9004 OM OM1 9004 -0.550000 15.99940
9005 OM 9005 OM OM1 9005 -0.550000 15.99940
9006 OM 9006 OM OM1 9006 -0.550000 15.99940
9007 OM 9007 OM OM1 9007 -0.550000 15.99940
9008 OM 9008 OM OM1 9008 -0.550000 15.99940
9009 OM 9009 OM OM1 9009 -0.550000 15.99940
9010 OM 9010 OM OM1 9010 -0.550000 15.99940
9011 OM 9011 OM OM1 9011 -0.550000 15.99940
9012 OM 9012 OM OM1 9012 -0.550000 15.99940
9013 OM 9013 OM OM1 9013 -0.550000 15.99940
9014 OM 9014 OM OM1 9014 -0.550000 15.99940
9015 OM 9015 OM OM1 9015 -0.550000 15.99940
9016 OM 9016 OM OM1 9016 -0.550000 15.99940
9017 OM 9017 OM OM1 9017 -0.550000 15.99940
9018 OM 9018 OM OM1 9018 -0.550000 15.99940
9019 OM 9019 OM OM1 9019 -0.550000 15.99940
9020 OM 9020 OM OM1 9020 -0.550000 15.99940
9021 OM 9021 OM OM1 9021 -0.550000 15.99940
9022 OM 9022 OM OM1 9022 -0.550000 15.99940
9023 OM 9023 OM OM1 9023 -0.550000 15.99940
9024 OM 9024 OM OM1 9024 -0.550000 15.99940
9025 OM 9025 OM OM1 9025 -0.550000 15.99940
9026 OM 9026 OM OM1 9026 -0.550000 15.99940
9027 OM 9027 OM OM1 9027 -0.550000 15.99940
9028 OM 9028 OM OM1 9028 -0.550000 15.99940
9029 OM 9029 OM OM1 9029 -0.550000 15.99940
9030 OM 9030 OM OM1 9030 -0.550000 15.99940
9031 OM 9031 OM OM1 9031 -0.550000 15.99940
9032 OM 9032 OM OM1 9032 -0.550000 15.99940
9033 OM 9033 OM OM1 9033 -0.550000 15.99940
9034 OM 9034 OM OM1 9034 -0.550000 15.99940
9035 OM 9035 OM OM1 9035 -0.550000 15.99940
9036 OM 9036 OM OM1 9036 -0.550000 15.99940
9037 OM 9037 OM OM1 9037 -0.550000 15.99940
9038 OM 9038 OM OM1 9038 -0.550000 15.99940
9039 OM 9039 OM OM1 9039 -0.550000 15.99940
9040 OM 9040 OM OM1 9040 -0.550000 15.99940
9041 OM 9041 OM OM1 9041 -0.550000 15.99940
9042 OM 9042 OM OM1 9042 -0.550000 15.99940
9043 OM 9043 OM OM1 9043 -0.550000 15.99940
9044 OM 9044 OM OM1 9044 -0.550000 15.99940
9045 OM 9045 OM OM1 9045 -0.550000 15.99940
9046 OM 9046 OM OM1 9046 -0.550000 15.99940
9047 OM 9047 OM OM1 9047 -0.550000 15.99940
9048 OM 9048 OM OM1 9048 -0.550000 15.99940
9049 OM 9049 OM OM1 9049 -0.550000 15.99940
9050 OM 9050 OM OM1 9050 -0.550000 15.99940
9051 OM 9051 OM OM1 9051 -0.550000 15.99940
9052 OM 9052 OM OM1 9052 -0.550000 15.99940
9053 OM 9053 OM OM1 9053 -0.550000 15.99940
9054 OM 9054 OM OM1 9054 -0.550000 15.99940
9055 OM 9055 OM OM1 9055 -0.550000 15.99940
9056 OM 9056 OM OM1 9056 -0.550000 15.99940
9057 OM 9057 OM OM1 9057 -0.550000 15.99940
9058 OM 9058 OM OM1 9058 -0.550000 15.99940
9059 OM 9059 OM OM1 9059 -0.550000 15.99940
9060 OM 9060 OM OM1 9060 -0.550000 15.99940
9061 OM 9061 OM OM1 9061 -0.550000 15.99940
9062 OM 9062 OM OM1 9062 -0.550000 15.99940
9063 OM 9063 OM OM1 9063 -0.550000 15.99940
9064 OM 9064 OM OM1 9064 -0.550000 15.99940
9065 OM 9065 OM OM1 9065 -0.550000 15.99940
9066 OM 9066 OM OM1 9066 -0.550000 15.99940
9067 OM 9067 OM OM1 9067 -0.550000 15.99940
9068 OM 9068 OM OM1 9068 -0.550000 15.99940
9069 OM 9069 OM OM1 9069 -0.550000 15.99940
9070 OM 9070 OM OM1 9070 -0.550000 15.99940
9071 OM 9071 OM OM1 9071 -0.550000 15.99940
9072 OM 9072 OM OM1 9072 -0.550000 15.99940
9073 OM 9073 OM OM1 9073 -0.550000 15.99940
9074 OM 9074 OM OM1 9074 -0.550000 15.99940
9075 OM 9075 OM OM1 9075 -0.550000 15.99940
9076 OM 9076 OM OM1 9076 -0.550000 15.99940
9077 OM 9077 OM OM1 9077 -0.550000 15.99940
9078 OM 9078 OM OM1 9078 -0.550000 15.99940
9079 OM 9079 OM OM1 9079 -0.550000 15.99940
9080 OM 9080 OM OM1 9080 -0.550000 15.99940
9081 OM 9081 OM OM1 9081 -0.550000 15.99940
9082 OM 9082 OM OM1 9082 -0.550000 15.99940
9083 OM 9083 OM OM1 9083 -0.550000 15.99940
9084 OM 9084 OM OM1 9084 -0.550000 15.99940
9085 OM 9085 OM OM1 9085 -0.550000 15.99940
9086 OM 9086 OM OM1 9086 -0.550000 15.99940
9087 OM 9087 OM OM1 9087 -0.550000 15.99940
9088 OM 9088 OM OM1 9088 -0.550000 15.99940
9089 OM 9089 OM OM1 9089 -0.550000 15.99940
9090 OM 9090 OM OM1 9090 -0.550000 15.99940
9091 OM 9091 OM OM1 9091 -0.550000 15.99940
9092 OM 9092 OM OM1 9092 -0.550000 15.99940
9093 OM 9093 OM OM1 9093 -0.550000 15.99940
9094 OM 9094 OM OM1 9094 -0.550000 15.99940
9095 OM 9095 OM OM1 9095 -0.550000 15.99940
9096 OM 9096 OM OM1 9096 -0.550000 15.99940
9097 OM 9097 OM OM1 9097 -0.550000 15.99940
9098 OM 9098 OM OM1 9098 -0.550000 15.99940
9099 OM 9099 OM OM1 9099 -0.550000 15.99940
9100 OM 9100 OM OM1 9100 -0.550000 15.99940
9101 OM 9101 OM OM1 9101 -0.550000 15.99940
9102 OM 9102 OM OM1 9102 -0.550000 15.99940
9103 OM 9103 OM OM1 9103 -0.550000 15.99940
9104 OM 9104 OM OM1 9104 -0.550000 15.99940
9105 OM 9105 OM OM1 9105 -0.550000 15.99940
9106 OM 9106 OM OM1 9106 -0.550000 15.99940
9107 OM 9107 OM OM1 9107 -0.550000 15.99940
9108 OM 9108 OM OM1 9108 -0.550000 15.99940
9109 OM 9109 OM OM1 9109 -0.550000 15.99940
9110 OM 9110 OM OM1 9110 -0.550000 15.99940
9111 OM 9111 OM OM1 9111 -0.550000 15.99940
9112 OM 9112 OM OM1 9112 -0.550000 15.99940
9113 OM 9113 OM OM1 9113 -0.550000 15.99940
9114 OM 9114 OM OM1 9114 -0.550000 15.99940
9115 OM 9115 OM OM1 9115 -0.550000 15.99940
9116 OM 9116 OM OM1 9116 -0.550000 15.99940
9117 OM 9117 OM OM1 9117 -0.550000 15.99940
9118 OM 9118 OM OM1 9118 -0.550000 15.99940
9119 OM 9119 OM OM1 9119 -0.550000 15.99940
9120 OM 9120 OM OM1 9120 -0.550000 15.99940
9121 OM 9121 OM OM1 9121 -0.550000 15.99940
9122 OM 9122 OM OM1 9122 -0.550000 15.99940
9123 OM 9123 OM OM1 9123 -0.550000 15.99940
9124 OM 9124 OM OM1 9124 -0.550000 15.99940
9125 OM 9125 OM OM1 9125 -0.550000 15.99940
9126 OM 9126 OM OM1 9126 -0.550000 15.99940
9127 OM 9127 OM OM1 9127 -0.550000 15.99940
9128 OM 9128 OM OM1 9128 -0.550000 15.99940
9129 OM 9129 OM OM1 9129 -0.550000 15.99940
9130 OM 9130 OM OM1 9130 -0.550000 15.99940
9131 OM 9131 OM OM1 9131 -0.550000 15.99940
9132 OM 9132 OM OM1 9132 -0.550000 15.99940
9133 OM 9133 OM OM1 9133 -0.550000 15.99940
9134 OM 9134 OM OM1 9134 -0.550000 15.99940
9135 OM 9135 OM OM1 9135 -0.550000 15.99940
9136 OM 9136 OM OM1 9136 -0.550000 15.99940
9137 OM 9137 OM OM1 9137 -0.550000 15.99940
9138 OM 9138 OM OM1 9138 -0.550000 15.99940
9139 OM 9139 OM OM1 9139 -0.550000 15.99940
9140 OM 9140 OM OM1 9140 -0.550000 15.99940
9141 OM 9141 OM OM1 9141 -0.550000 15.99940
9142 OM 9142 OM OM1 9142 -0.550000 15.99940
9143 OM 9143 OM OM1 9143 -0.550000 15.99940
9144 OM 9144 OM OM1 9144 -0.550000 15.99940
9145 OM 9145 OM OM1 9145 -0.550000 15.99940
9146 OM 9146 OM OM1 9146 -0.550000 15.99940
9147 OM 9147 OM OM1 9147 -0.550000 15.99940
9148 OM 9148 OM OM1 9148 -0.550000 15.99940
9149 OM 9149 OM OM1 9149 -0.550000 15.99940
9150 OM 9150 OM OM1 9150 -0.550000 15.99940
9151 OM 9151 OM OM1 9151 -0.550000 15.99940
9152 OM 9152 OM OM1 9152 -0.550000 15.99940
9153 OM 9153 OM OM1 9153 -0.550000 15.99940
9154 OM 9154 OM OM1 9154 -0.550000 15.99940
9155 OM 9155 OM OM1 9155 -0.550000 15.99940
9156 OM 9156 OM OM1 9156 -0.550000 15.99940
9157 OM 9157 OM OM1 9157 -0.550000 15.99940
9158 OM 9158 OM OM1 9158 -0.550000 15.99940
9159 OM 9159 OM OM1 9159 -0.550000 15.99940
9160 OM 9160 OM OM1 9160 -0.550000 15.99940
9161 OM 9161 OM OM1 9161 -0.550000 15.99940
9162 OM 9162 OM OM1 9162 -0.550000 15.99940
9163 OM 9163 OM OM1 9163 -0.550000 15.99940
9164 OM 9164 OM OM1 9164 -0.550000 15.99940
9165 OM 9165 OM OM1 9165 -0.550000 15.99940
9166 OM 9166 OM OM1 9166 -0.550000 15.99940
9167 OM 9167 OM OM1 9167 -0.550000 15.99940
9168 OM 9168 OM OM1 9168 -0.550000 15.99940
9169 OM 9169 OM OM1 9169 -0.550000 15.99940
9170 OM 9170 OM OM1 9170 -0.550000 15.99940
9171 OM 9171 OM OM1 9171 -0.550000 15.99940
9172 OM 9172 OM OM1 9172 -0.550000 15.99940
9173 OM 9173 OM OM1 9173 -0.550000 15.99940
9174 OM 9174 OM OM1 9174 -0.550000 15.99940
9175 OM 9175 OM OM1 9175 -0.550000 15.99940
9176 OM 9176 OM OM1 9176 -0.550000 15.99940
9177 OM 9177 OM OM1 9177 -0.550000 15.99940
9178 OM 9178 OM OM1 9178 -0.550000 15.99940
9179 OM 9179 OM OM1 9179 -0.550000 15.99940
9180 OM 9180 OM OM1 9180 -0.550000 15.99940
9181 OM 9181 OM OM1 9181 -0.550000 15.99940
9182 OM 9182 OM OM1 9182 -0.550000 15.99940
9183 OM 9183 OM OM1 9183 -0.550000 15.99940
9184 OM 9184 OM OM1 9184 -0.550000 15.99940
9185 OM 9185 OM OM1 9185 -0.550000 15.99940
9186 OM 9186 OM OM1 9186 -0.550000 15.99940
9187 OM 9187 OM OM1 9187 -0.550000 15.99940
9188 OM 9188 OM OM1 9188 -0.550000 15.99940
9189 OM 9189 OM OM1 9189 -0.550000 15.99940
9190 OM 9190 OM OM1 9190 -0.550000 15.99940
9191 OM 9191 OM OM1 9191 -0.550000 15.99940
9192 OM 9192 OM OM1 9192 -0.550000 15.99940
9193 OM 9193 OM OM1 9193 -0.550000 15.99940
9194 OM 9194 OM OM1 9194 -0.550000 15.99940
9195 OM 9195 OM OM1 9195 -0.550000 15.99940
9196 OM 9196 OM OM1 9196 -0.550000 15.99940
9197 OM 9197 OM OM1 9197 -0.550000 15.99940
9198 OM 9198 OM OM1 9198 -0.550000 15.99940
9199 OM 9199 OM OM1 9199 -0.550000 15.99940
9200 OM 9200 OM OM1 9200 -0.550000 15.99940
9201 OM 9201 OM OM1 9201 -0.550000 15.99940
9202 OM 9202 OM OM1 9202 -0.550000 15.99940
9203 OM 9203 OM OM1 9203 -0.550000 15.99940
9204 OM 9204 OM OM1 9204 -0.550000 15.99940
9205 OM 9205 OM OM1 9205 -0.550000 15.99940
9206 OM 9206 OM OM1 9206 -0.550000 15.99940
9207 OM 9207 OM OM1 9207 -0.550000 15.99940
9208 OM 9208 OM OM1 9208 -0.550000 15.99940
9209 OM 9209 OM OM1 9209 -0.550000 15.99940
9210 OM 9210 OM OM1 9210 -0.550000 15.99940
9211 OM 9211 OM OM1 9211 -0.550000 15.99940
9212 OM 9212 OM OM1 9212 -0.550000 15.99940
9213 OM 9213 OM OM1 9213 -0.550000 15.99940
9214 OM 9214 OM OM1 9214 -0.550000 15.99940
9215 OM 9215 OM OM1 9215 -0.550000 15.99940
9216 OM 9216 OM OM1 9216 -0.550000 15.99940
9217 OM 9217 OM OM1 9217 -0.550000 15.99940
9218 OM 9218 OM OM1 9218 -0.550000 15.99940
9219 OM 9219 OM OM1 9219 -0.550000 15.99940
9220 OM 9220 OM OM1 9220 -0.550000 15.99940
9221 OM 9221 OM OM1 9221 -0.550000 15.99940
9222 OM 9222 OM OM1 9222 -0.550000 15.99940
9223 OM 9223 OM OM1 9223 -0.550000 15.99940
9224 OM 9224 OM OM1 9224 -0.550000 15.99940
9225 OM 9225 OM OM1 9225 -0.550000 15.99940
9226 OM 9226 OM OM1 9226 -0.550000 15.99940
9227 OM 9227 OM OM1 9227 -0.550000 15.99940
9228 OM 9228 OM OM1 9228 -0.550000 15.99940
9229 OM 9229 OM OM1 9229 -0.550000 15.99940
9230 OM 9230 OM OM1 9230 -0.550000 15.99940
9231 OM 9231 OM OM1 9231 -0.550000 15.99940
9232 OM 9232 OM OM1 9232 -0.550000 15.99940
9233 OM 9233 OM OM1 9233 -0.550000 15.99940
9234 OM 9234 OM OM1 9234 -0.550000 15.99940
9235 OM 9235 OM OM1 9235 -0.550000 15.99940
9236 OM 9236 OM OM1 9236 -0.550000 15.99940
9237 OM 9237 OM OM1 9237 -0.550000 15.99940
9238 OM 9238 OM OM1 9238 -0.550000 15.99940
9239 OM 9239 OM OM1 9239 -0.550000 15.99940
9240 OM 9240 OM OM1 9240 -0.550000 15.99940
9241 OM 9241 OM OM1 9241 -0.550000 15.99940
9242 OM 9242 OM OM1 9242 -0.550000 15.99940
9243 OM 9243 OM OM1 9243 -0.550000 15.99940
9244 OM 9244 OM OM1 9244 -0.550000 15.99940
9245 OM 9245 OM OM1 9245 -0.550000 15.99940
9246 OM 9246 OM OM1 9246 -0.550000 15.99940
9247 OM 9247 OM OM1 9247 -0.550000 15.99940
9248 OM 9248 OM OM1 9248 -0.550000 15.99940
9249 OM 9249 OM OM1 9249 -0.550000 15.99940
9250 OM 9250 OM OM1 9250 -0.550000 15.99940
9251 OM 9251 OM OM1 9251 -0.550000 15.99940
9252 OM 9252 OM OM1 9252 -0.550000 15.99940
9253 OM 9253 OM OM1 9253 -0.550000 15.99940
9254 OM 9254 OM OM1 9254 -0.550000 15.99940
9255 OM 9255 OM OM1 9255 -0.550000 15.99940
9256 OM 9256 OM OM1 9256 -0.550000 15.99940
9257 OM 9257 OM OM1 9257 -0.550000 15.99940
9258 OM 9258 OM OM1 9258 -0.550000 15.99940
9259 OM 9259 OM OM1 9259 -0.550000 15.99940
9260 OM 9260 OM OM1 9260 -0.550000 15.99940
9261 OM 9261 OM OM1 9261 -0.550000 15.99940
9262 OM 9262 OM OM1 9262 -0.550000 15.99940
9263 OM 9263 OM OM1 9263 -0.550000 15.99940
9264 OM 9264 OM OM1 9264 -0.550000 15.99940
9265 OM 9265 OM OM1 9265 -0.550000 15.99940
9266 OM 9266 OM OM1 9266 -0.550000 15.99940
9267 OM 9267 OM OM1 9267 -0.550000 15.99940
9268 OM 9268 OM OM1 9268 -0.550000 15.99940
9269 OM 9269 OM OM1 9269 -0.550000 15.99940
9270 OM 9270 OM OM1 9270 -0.550000 15.99940
9271 OM 9271 OM OM1 9271 -0.550000 15.99940
9272 OM 9272 OM OM1 9272 -0.550000 15.99940
9273 OM 9273 OM OM1 9273 -0.550000 15.99940
9274 OM 9274 OM OM1 9274 -0.550000 15.99940
9275 OM 9275 OM OM1 9275 -0.550000 15.99940
9276 OM 9276 OM OM1 9276 -0.550000 15.99940
9277 OM 9277 OM OM1 9277 -0.550000 15.99940
9278 OM 9278 OM OM1 9278 -0.550000 15.99940
9279 OM 9279 OM OM1 9279 -0.550000 15.99940
9280 OM 9280 OM OM1 9280 -0.550000 15.99940
9281 OM 9281 OM OM1 9281 -0.550000 15.99940
9282 OM 9282 OM OM1 9282 -0.550000 15.99940
9283 OM 9283 OM OM1 9283 -0.550000 15.99940
9284 OM 9284 OM OM1 9284 -0.550000 15.99940
9285 OM 9285 OM OM1 9285 -0.550000 15.99940
9286 OM 9286 OM OM1 9286 -0.550000 15.99940
9287 OM 9287 OM OM1 9287 -0.550000 15.99940
9288 OM 9288 OM OM1 9288 -0.550000 15.99940
9289 OM 9289 OM OM1 9289 -0.550000 15.99940
9290 OM 9290 OM OM1 9290 -0.550000 15.99940
9291 OM 9291 OM OM1 9291 -0.550000 15.99940
9292 OM 9292 OM OM1 9292 -0.550000 15.99940
9293 OM 9293 OM OM1 9293 -0.550000 15.99940
9294 OM 9294 OM OM1 9294 -0.550000 15.99940
9295 OM 9295 OM OM1 9295 -0.550000 15.99940
9296 OM 9296 OM OM1 9296 -0.550000 15.99940
9297 OM 9297 OM OM1 9297 -0.550000 15.99940
9298 OM 9298 OM OM1 9298 -0.550000 15.99940
9299 OM 9299 OM OM1 9299 -0.550000 15.99940
9300 OM 9300 OM OM1 9300 -0.550000 15.99940
9301 OM 9301 OM OM1 9301 -0.550000 15.99940
9302 OM 9302 OM OM1 9302 -0.550000 15.99940
9303 OM 9303 OM OM1 9303 -0.550000 15.99940
9304 OM 9304 OM OM1 9304 -0.550000 15.99940
9305 OM 9305 OM OM1 9305 -0.550000 15.99940
9306 OM 9306 OM OM1 9306 -0.550000 15.99940
9307 OM 9307 OM OM1 9307 -0.550000 15.99940
9308 OM 9308 OM OM1 9308 -0.550000 15.99940
9309 OM 9309 OM OM1 9309 -0.550000 15.99940
9310 OM 9310 OM OM1 9310 -0.550000 15.99940
9311 OM 9311 OM OM1 9311 -0.550000 15.99940
9312 OM 9312 OM OM1 9312 -0.550000 15.99940
9313 OM 9313 OM OM1 9313 -0.550000 15.99940
9314 OM 9314 OM OM1 9314 -0.550000 15.99940
9315 OM 9315 OM OM1 9315 -0.550000 15.99940
9316 OM 9316 OM OM1 9316 -0.550000 15.99940
9317 OM 9317 OM OM1 9317 -0.550000 15.99940
9318 OM 9318 OM OM1 9318 -0.550000 15.99940
9319 OM 9319 OM OM1 9319 -0.550000 15.99940
9320 OM 9320 OM OM1 9320 -0.550000 15.99940
9321 OM 9321 OM OM1 9321 -0.550000 15.99940
9322 OM 9322 OM OM1 9322 -0.550000 15.99940
9323 OM 9323 OM OM1 9323 -0.550000 15.99940
9324 OM 9324 OM OM1 9324 -0.550000 15.99940
9325 OM 9325 OM OM1 9325 -0.550000 15.99940
9326 OM 9326 OM OM1 9326 -0.550000 15.99940
9327 OM 9327 OM OM1 9327 -0.550000 15.99940
9328 OM 9328 OM OM1 9328 -0.550000 15.99940
9329 OM 9329 OM OM1 9329 -0.550000 15.99940
9330 OM 9330 OM OM1 9330 -0.550000 15.99940
9331 OM 9331 OM OM1 9331 -0.550000 15.99940
9332 OM 9332 OM OM1 9332 -0.550000 15.99940
9333 OM 9333 OM OM1 9333 -0.550000 15.99940
9334 OM 9334 OM OM1 9334 -0.550000 15.99940
9335 OM 9335 OM OM1 9335 -0.550000 15.99940
9336 OM 9336 OM OM1 9336 -0.550000 15.99940
9337 OM 9337 OM OM1 9337 -0.550000 15.99940
9338 OM 9338 OM OM1 9338 -0.550000 15.99940
9339 OM 9339 OM OM1 9339 -0.550000 15.99940
9340 OM 9340 OM OM1 9340 -0.550000 15.99940
9341 OM 9341 OM OM1 9341 -0.550000 15.99940
9342 OM 9342 OM OM1 9342 -0.550000 15.99940
9343 OM 9343 OM OM1 9343 -0.550000 15.99940
9344 OM 9344 OM OM1 9344 -0.550000 15.99940
9345 OM 9345 OM OM1 9345 -0.550000 15.99940
9346 OM 9346 OM OM1 9346 -0.550000 15.99940
9347 OM 9347 OM OM1 9347 -0.550000 15.99940
9348 OM 9348 OM OM1 9348 -0.550000 15.99940
9349 OM 9349 OM OM1 9349 -0.550000 15.99940
9350 OM 9350 OM OM1 9350 -0.550000 15.99940
9351 OM 9351 OM OM1 9351 -0.550000 15.99940
9352 OM 9352 OM OM1 9352 -0.550000 15.99940
9353 OM 9353 OM OM1 9353 -0.550000 15.99940
9354 OM 9354 OM OM1 9354 -0.550000 15.99940
9355 OM 9355 OM OM1 9355 -0.550000 15.99940
9356 OM 9356 OM OM1 9356 -0.550000 15.99940
9357 OM 9357 OM OM1 9357 -0.550000 15.99940
9358 OM 9358 OM OM1 9358 -0.550000 15.99940
9359 OM 9359 OM OM1 9359 -0.550000 15.99940
9360 OM 9360 OM OM1 9360 -0.550000 15.99940
9361 OM 9361 OM OM1 9361 -0.550000 15.99940
9362 OM 9362 OM OM1 9362 -0.550000 15.99940
9363 OM 9363 OM OM1 9363 -0.550000 15.99940
9364 OM 9364 OM OM1 9364 -0.550000 15.99940
9365 OM 9365 OM OM1 9365 -0.550000 15.99940
9366 OM 9366 OM OM1 9366 -0.550000 15.99940
9367 OM 9367 OM OM1 9367 -0.550000 15.99940
9368 OM 9368 OM OM1 9368 -0.550000 15.99940
9369 OM 9369 OM OM1 9369 -0.550000 15.99940
9370 OM 9370 OM OM1 9370 -0.550000 15.99940
9371 OM 9371 OM OM1 9371 -0.550000 15.99940
9372 OM 9372 OM OM1 9372 -0.550000 15.99940
9373 OM 9373 OM OM1 9373 -0.550000 15.99940
9374 OM 9374 OM OM1 9374 -0.550000 15.99940
9375 OM 9375 OM OM1 9375 -0.550000 15.99940
9376 OM 9376 OM OM1 9376 -0.550000 15.99940
9377 OM 9377 OM OM1 9377 -0.550000 15.99940
9378 OM 9378 OM OM1 9378 -0.550000 15.99940
9379 OM 9379 OM OM1 9379 -0.550000 15.99940
9380 OM 9380 OM OM1 9380 -0.550000 15.99940
9381 OM 9381 OM OM1 9381 -0.550000 15.99940
9382 OM 9382 OM OM1 9382 -0.550000 15.99940
9383 OM 9383 OM OM1 9383 -0.550000 15.99940
9384 OM 9384 OM OM1 9384 -0.550000 15.99940
9385 OM 9385 OM OM1 9385 -0.550000 15.99940
9386 OM 9386 OM OM1 9386 -0.550000 15.99940
9387 OM 9387 OM OM1 9387 -0.550000 15.99940
9388 OM 9388 OM OM1 9388 -0.550000 15.99940
9389 OM 9389 OM OM1 9389 -0.550000 15.99940
9390 OM 9390 OM OM1 9390 -0.550000 15.99940
9391 OM 9391 OM OM1 9391 -0.550000 15.99940
9392 OM 9392 OM OM1 9392 -0.550000 15.99940
9393 OM 9393 OM OM1 9393 -0.550000 15.99940
9394 OM 9394 OM OM1 9394 -0.550000 15.99940
9395 OM 9395 OM OM1 9395 -0.550000 15.99940
9396 OM 9396 OM OM1 9396 -0.550000 15.99940
9397 OM 9397 OM OM1 9397 -0.550000 15.99940
9398 OM 9398 OM OM1 9398 -0.550000 15.99940
9399 OM 9399 OM OM1 9399 -0.550000 15.99940
9400 OM 9400 OM OM1 9400 -0.550000 15.99940
9401 OM 9401 OM OM1 9401 -0.550000 15.99940
9402 OM 9402 OM OM1 9402 -0.550000 15.99940
9403 OM 9403 OM OM1 9403 -0.550000 15.99940
9404 OM 9404 OM OM1 9404 -0.550000 15.99940
9405 OM 9405 OM OM1 9405 -0.550000 15.99940
9406 OM 9406 OM OM1 9406 -0.550000 15.99940
9407 OM 9407 OM OM1 9407 -0.550000 15.99940
9408 OM 9408 OM OM1 9408 -0.550000 15.99940
9409 OM 9409 OM OM1 9409 -0.550000 15.99940
9410 OM 9410 OM OM1 9410 -0.550000 15.99940
9411 OM 9411 OM OM1 9411 -0.550000 15.99940
9412 OM 9412 OM OM1 9412 -0.550000 15.99940
9413 OM 9413 OM OM1 9413 -0.550000 15.99940
9414 OM 9414 OM OM1 9414 -0.550000 15.99940
9415 OM 9415 OM OM1 9415 -0.550000 15.99940
9416 OM 9416 OM OM1 9416 -0.550000 15.99940
9417 OM 9417 OM OM1 9417 -0.550000 15.99940
9418 OM 9418 OM OM1 9418 -0.550000 15.99940
9419 OM 9419 OM OM1 9419 -0.550000 15.99940
9420 OM 9420 OM OM1 9420 -0.550000 15.99940
9421 OM 9421 OM OM1 9421 -0.550000 15.99940
9422 OM 9422 OM OM1 9422 -0.550000 15.99940
9423 OM 9423 OM OM1 9423 -0.550000 15.99940
9424 OM 9424 OM OM1 9424 -0.550000 15.99940
9425 OM 9425 OM OM1 9425 -0.550000 15.99940
9426 OM 9426 OM OM1 9426 -0.550000 15.99940
9427 OM 9427 OM OM1 9427 -0.550000 15.99940
9428 OM 9428 OM OM1 9428 -0.550000 15.99940
9429 OM 9429 OM OM1 9429 -0.550000 15.99940
9430 OM 9430 OM OM1 9430 -0.550000 15.99940
9431 OM 9431 OM OM1 9431 -0.550000 15.99940
9432 OM 9432 OM OM1 9432 -0.550000 15.99940
9433 OM 9433 OM OM1 9433 -0.550000 15.99940
9434 OM 9434 OM OM1 9434 -0.550000 15.99940
9435 OM 9435 OM OM1 9435 -0.550000 15.99940
9436 OM 9436 OM OM1 9436 -0.550000 15.99940
9437 OM 9437 OM OM1 9437 -0.550000 15.99940
9438 OM 9438 OM OM1 9438 -0.550000 15.99940
9439 OM 9439 OM OM1 9439 -0.550000 15.99940
9440 OM 9440 OM OM1 9440 -0.550000 15.99940
9441 OM 9441 OM OM1 9441 -0.550000 15.99940
9442 OM 9442 OM OM1 9442 -0.550000 15.99940
9443 OM 9443 OM OM1 9443 -0.550000 15.99940
9444 OM 9444 OM OM1 9444 -0.550000 15.99940
9445 OM 9445 OM OM1 9445 -0.550000 15.99940
9446 OM 9446 OM OM1 9446 -0.550000 15.99940
9447 OM 9447 OM OM1 9447 -0.550000 15.99940
9448 OM 9448 OM OM1 9448 -0.550000 15.99940
9449 OM 9449 OM OM1 9449 -0.550000 15.99940
9450 OM 9450 OM OM1 9450 -0.550000 15.99940
9451 OM 9451 OM OM1 9451 -0.550000 15.99940
9452 OM 9452 OM OM1 9452 -0.550000 15.99940
9453 OM 9453 OM OM1 9453 -0.550000 15.99940
9454 OM 9454 OM OM1 9454 -0.550000 15.99940
9455 OM 9455 OM OM1 9455 -0.550000 15.99940
9456 OM 9456 OM OM1 9456 -0.550000 15.99940
9457 OM 9457 OM OM1 9457 -0.550000 15.99940
9458 OM 9458 OM OM1 9458 -0.550000 15.99940
9459 OM 9459 OM OM1 9459 -0.550000 15.99940
9460 OM 9460 OM OM1 9460 -0.550000 15.99940
9461 OM 9461 OM OM1 9461 -0.550000 15.99940
9462 OM 9462 OM OM1 9462 -0.550000 15.99940
9463 OM 9463 OM OM1 9463 -0.550000 15.99940
9464 OM 9464 OM OM1 9464 -0.550000 15.99940
9465 OM 9465 OM OM1 9465 -0.550000 15.99940
9466 OM 9466 OM OM1 9466 -0.550000 15.99940
9467 OM 9467 OM OM1 9467 -0.550000 15.99940
9468 OM 9468 OM OM1 9468 -0.550000 15.99940
9469 OM 9469 OM OM1 9469 -0.550000 15.99940
9470 OM 9470 OM OM1 9470 -0.550000 15.99940
9471 OM 9471 OM OM1 9471 -0.550000 15.99940
9472 OM 9472 OM OM1 9472 -0.550000 15.99940
9473 OM 9473 OM OM1 9473 -0.550000 15.99940
9474 OM 9474 OM OM1 9474 -0.550000 15.99940
9475 OM 9475 OM OM1 9475 -0.550000 15.99940
9476 OM 9476 OM OM1 9476 -0.550000 15.99940
9477 OM 9477 OM OM1 9477 -0.550000 15.99940
9478 OM 9478 OM OM1 9478 -0.550000 15.99940
9479 OM 9479 OM OM1 9479 -0.550000 15.99940
9480 OM 9480 OM OM1 9480 -0.550000 15.99940
9481 OM 9481 OM OM1 9481 -0.550000 15.99940
9482 OM 9482 OM OM1 9482 -0.550000 15.99940
9483 OM 9483 OM OM1 9483 -0.550000 15.99940
9484 OM 9484 OM OM1 9484 -0.550000 15.99940
9485 OM 9485 OM OM1 9485 -0.550000 15.99940
9486 OM 9486 OM OM1 9486 -0.550000 15.99940
9487 OM 9487 OM OM1 9487 -0.550000 15.99940
9488 OM 9488 OM OM1 9488 -0.550000 15.99940
9489 OM 9489 OM OM1 9489 -0.550000 15.99940
9490 OM 9490 OM OM1 9490 -0.550000 15.99940
9491 OM 9491 OM OM1 9491 -0.550000 15.99940
9492 OM 9492 OM OM1 9492 -0.550000 15.99940
9493 OM 9493 OM OM1 9493 -0.550000 15.99940
9494 OM 9494 OM OM1 9494 -0.550000 15.99940
9495 OM 9495 OM OM1 9495 -0.550000 15.99940
9496 OM 9496 OM OM1 9496 -0.550000 15.99940
9497 OM 9497 OM OM1 9497 -0.550000 15.99940
9498 OM 9498 OM OM1 9498 -0.550000 15.99940
9499 OM 9499 OM OM1 9499 -0.550000 15.99940
9500 OM 9500 OM OM1 9500 -0.550000 15.99940
9501 OM 9501 OM OM1 9501 -0.550000 15.99940
9502 OM 9502 OM OM1 9502 -0.550000 15.99940
9503 OM 9503 OM OM1 9503 -0.550000 15.99940
9504 OM 9504 OM OM1 9504 -0.550000 15.99940
9505 OM 9505 OM OM1 9505 -0.550000 15.99940
9506 OM 9506 OM OM1 9506 -0.550000 15.99940
9507 OM 9507 OM OM1 9507 -0.550000 15.99940
9508 OM 9508 OM OM1 9508 -0.550000 15.99940
9509 OM 9509 OM OM1 9509 -0.550000 15.99940
9510 OM 9510 OM OM1 9510 -0.550000 15.99940
9511 OM 9511 OM OM1 9511 -0.550000 15.99940
9512 OM 9512 OM OM1 9512 -0.550000 15.99940
9513 OM 9513 OM OM1 9513 -0.550000 15.99940
9514 OM 9514 OM OM1 9514 -0.550000 15.99940
9515 OM 9515 OM OM1 9515 -0.550000 15.99940
9516 OM 9516 OM OM1 9516 -0.550000 15.99940
9517 OM 9517 OM OM1 9517 -0.550000 15.99940
9518 OM 9518 OM OM1 9518 -0.550000 15.99940
9519 OM 9519 OM OM1 9519 -0.550000 15.99940
9520 OM 9520 OM OM1 9520 -0.550000 15.99940
9521 OM 9521 OM OM1 9521 -0.550000 15.99940
9522 OM 9522 OM OM1 9522 -0.550000 15.99940
9523 OM 9523 OM OM1 9523 -0.550000 15.99940
9524 OM 9524 OM OM1 9524 -0.550000 15.99940
9525 OM 9525 OM OM1 9525 -0.550000 15.99940
9526 OM 9526 OM OM1 9526 -0.550000 15.99940
9527 OM 9527 OM OM1 9527 -0.550000 15.99940
9528 OM 9528 OM OM1 9528 -0.550000 15.99940
9529 OM 9529 OM OM1 9529 -0.550000 15.99940
9530 OM 9530 OM OM1 9530 -0.550000 15.99940
9531 OM 9531 OM OM1 9531 -0.550000 15.99940
9532 OM 9532 OM OM1 9532 -0.550000 15.99940
9533 OM 9533 OM OM1 9533 -0.550000 15.99940
9534 OM 9534 OM OM1 9534 -0.550000 15.99940
9535 OM 9535 OM OM1 9535 -0.550000 15.99940
9536 OM 9536 OM OM1 9536 -0.550000 15.99940
9537 OM 9537 OM OM1 9537 -0.550000 15.99940
9538 OM 9538 OM OM1 9538 -0.550000 15.99940
9539 OM 9539 OM OM1 9539 -0.550000 15.99940
9540 OM 9540 OM OM1 9540 -0.550000 15.99940
9541 OM 9541 OM OM1 9541 -0.550000 15.99940
9542 OM 9542 OM OM1 9542 -0.550000 15.99940
9543 OM 9543 OM OM1 9543 -0.550000 15.99940
9544 OM 9544 OM OM1 9544 -0.550000 15.99940
9545 OM 9545 OM OM1 9545 -0.550000 15.99940
9546 OM 9546 OM OM1 9546 -0.550000 15.99940
9547 OM 9547 OM OM1 9547 -0.550000 15.99940
9548 OM 9548 OM OM1 9548 -0.550000 15.99940
9549 OM 9549 OM OM1 9549 -0.550000 15.99940
9550 OM 9550 OM OM1 9550 -0.550000 15.99940
9551 OM 9551 OM OM1 9551 -0.550000 15.99940
9552 OM 9552 OM OM1 9552 -0.550000 15.99940
9553 OM 9553 OM OM1 9553 -0.550000 15.99940
9554 OM 9554 OM OM1 9554 -0.550000 15.99940
9555 OM 9555 OM OM1 9555 -0.550000 15.99940
9556 OM 9556 OM OM1 9556 -0.550000 15.99940
9557 OM 9557 OM OM1 9557 -0.550000 15.99940
9558 OM 9558 OM OM1 9558 -0.550000 15.99940
9559 OM 9559 OM OM1 9559 -0.550000 15.99940
9560 OM 9560 OM OM1 9560 -0.550000 15.99940
9561 OM 9561 OM OM1 9561 -0.550000 15.99940
9562 OM 9562 OM OM1 9562 -0.550000 15.99940
9563 OM 9563 OM OM1 9563 -0.550000 15.99940
9564 OM 9564 OM OM1 9564 -0.550000 15.99940
9565 OM 9565 OM OM1 9565 -0.550000 15.99940
9566 OM 9566 OM OM1 9566 -0.550000 15.99940
9567 OM 9567 OM OM1 9567 -0.550000 15.99940
9568 OM 9568 OM OM1 9568 -0.550000 15.99940
9569 OM 9569 OM OM1 9569 -0.550000 15.99940
9570 OM 9570 OM OM1 9570 -0.550000 15.99940
9571 OM 9571 OM OM1 9571 -0.550000 15.99940
9572 OM 9572 OM OM1 9572 -0.550000 15.99940
9573 OM 9573 OM OM1 9573 -0.550000 15.99940
9574 OM 9574 OM OM1 9574 -0.550000 15.99940
9575 OM 9575 OM OM1 9575 -0.550000 15.99940
9576 OM 9576 OM OM1 9576 -0.550000 15.99940
9577 OM 9577 OM OM1 9577 -0.550000 15.99940
9578 OM 9578 OM OM1 9578 -0.550000 15.99940
9579 OM 9579 OM OM1 9579 -0.550000 15.99940
9580 OM 9580 OM OM1 9580 -0.550000 15.99940
9581 OM 9581 OM OM1 9581 -0.550000 15.99940
9582 OM 9582 OM OM1 9582 -0.550000 15.99940
9583 OM 9583 OM OM1 9583 -0.550000 15.99940
9584 OM 9584 OM OM1 9584 -0.550000 15.99940
9585 OM 9585 OM OM1 9585 -0.550000 15.99940
9586 OM 9586 OM OM1 9586 -0.550000 15.99940
9587 OM 9587 OM OM1 9587 -0.550000 15.99940
9588 OM 9588 OM OM1 9588 -0.550000 15.99940
9589 OM 9589 OM OM1 9589 -0.550000 15.99940
9590 OM 9590 OM OM1 9590 -0.550000 15.99940
9591 OM 9591 OM OM1 9591 -0.550000 15.99940
9592 OM 9592 OM OM1 9592 -0.550000 15.99940
9593 OM 9593 OM OM1 9593 -0.550000 15.99940
9594 OM 9594 OM OM1 9594 -0.550000 15.99940
9595 OM 9595 OM OM1 9595 -0.550000 15.99940
9596 OM 9596 OM OM1 9596 -0.550000 15.99940
9597 OM 9597 OM OM1 9597 -0.550000 15.99940
9598 OM 9598 OM OM1 9598 -0.550000 15.99940
9599 OM 9599 OM OM1 9599 -0.550000 15.99940
9600 OM 9600 OM OM1 9600 -0.550000 15.99940
9601 OM 9601 OM OM1 9601 -0.550000 15.99940
9602 OM 9602 OM OM1 9602 -0.550000 15.99940
9603 OM 9603 OM OM1 9603 -0.550000 15.99940
9604 OM 9604 OM OM1 9604 -0.550000 15.99940
9605 OM 9605 OM OM1 9605 -0.550000 15.99940
9606 OM 9606 OM OM1 9606 -0.550000 15.99940
9607 OM 9607 OM OM1 9607 -0.550000 15.99940
9608 OM 9608 OM OM1 9608 -0.550000 15.99940
9609 OM 9609 OM OM1 9609 -0.550000 15.99940
9610 OM 9610 OM OM1 9610 -0.550000 15.99940
9611 OM 9611 OM OM1 9611 -0.550000 15.99940
9612 OM 9612 OM OM1 9612 -0.550000 15.99940
9613 OM 9613 OM OM1 9613 -0.550000 15.99940
9614 OM 9614 OM OM1 9614 -0.550000 15.99940
9615 OM 9615 OM OM1 9615 -0.550000 15.99940
9616 OM 9616 OM OM1 9616 -0.550000 15.99940
9617 OM 9617 OM OM1 9617 -0.550000 15.99940
9618 OM 9618 OM OM1 9618 -0.550000 15.99940
9619 OM 9619 OM OM1 9619 -0.550000 15.99940
9620 OM 9620 OM OM1 9620 -0.550000 15.99940
9621 OM 9621 OM OM1 9621 -0.550000 15.99940
9622 OM 9622 OM OM1 9622 -0.550000 15.99940
9623 OM 9623 OM OM1 9623 -0.550000 15.99940
9624 OM 9624 OM OM1 9624 -0.550000 15.99940
9625 OM 9625 OM OM1 9625 -0.550000 15.99940
9626 OM 9626 OM OM1 9626 -0.550000 15.99940
9627 OM 9627 OM OM1 9627 -0.550000 15.99940
9628 OM 9628 OM OM1 9628 -0.550000 15.99940
9629 OM 9629 OM OM1 9629 -0.550000 15.99940
9630 OM 9630 OM OM1 9630 -0.550000 15.99940
9631 OM 9631 OM OM1 9631 -0.550000 15.99940
9632 OM 9632 OM OM1 9632 -0.550000 15.99940
9633 OM 9633 OM OM1 9633 -0.550000 15.99940
9634 OM 9634 OM OM1 9634 -0.550000 15.99940
9635 OM 9635 OM OM1 9635 -0.550000 15.99940
9636 OM 9636 OM OM1 9636 -0.550000 15.99940
9637 OM 9637 OM OM1 9637 -0.550000 15.99940
9638 OM 9638 OM OM1 9638 -0.550000 15.99940
9639 OM 9639 OM OM1 9639 -0.550000 15.99940
9640 OM 9640 OM OM1 9640 -0.550000 15.99940
9641 OM 9641 OM OM1 9641 -0.550000 15.99940
9642 OM 9642 OM OM1 9642 -0.550000 15.99940
9643 OM 9643 OM OM1 9643 -0.550000 15.99940
9644 OM 9644 OM OM1 9644 -0.550000 15.99940
9645 OM 9645 OM OM1 9645 -0.550000 15.99940
9646 OM 9646 OM OM1 9646 -0.550000 15.99940
9647 OM 9647 OM OM1 9647 -0.550000 15.99940
9648 OM 9648 OM OM1 9648 -0.550000 15.99940
9649 OM 9649 OM OM1 9649 -0.550000 15.99940
9650 OM 9650 OM OM1 9650 -0.550000 15.99940
9651 OM 9651 OM OM1 9651 -0.550000 15.99940
9652 OM 9652 OM OM1 9652 -0.550000 15.99940
9653 OM 9653 OM OM1 9653 -0.550000 15.99940
9654 OM 9654 OM OM1 9654 -0.550000 15.99940
9655 OM 9655 OM OM1 9655 -0.550000 15.99940
9656 OM 9656 OM OM1 9656 -0.550000 15.99940
9657 OM 9657 OM OM1 9657 -0.550000 15.99940
9658 OM 9658 OM OM1 9658 -0.550000 15.99940
9659 OM 9659 OM OM1 9659 -0.550000 15.99940
9660 OM 9660 OM OM1 9660 -0.550000 15.99940
9661 OM 9661 OM OM1 9661 -0.550000 15.99940
9662 OM 9662 OM OM1 9662 -0.550000 15.99940
9663 OM 9663 OM OM1 9663 -0.550000 15.99940
9664 OM 9664 OM OM1 9664 -0.550000 15.99940
9665 OM 9665 OM OM1 9665 -0.550000 15.99940
9666 OM 9666 OM OM1 9666 -0.550000 15.99940
9667 OM 9667 OM OM1 9667 -0.550000 15.99940
9668 OM 9668 OM OM1 9668 -0.550000 15.99940
9669 OM 9669 OM OM1 9669 -0.550000 15.99940
9670 OM 9670 OM OM1 9670 -0.550000 15.99940
9671 OM 9671 OM OM1 9671 -0.550000 15.99940
9672 OM 9672 OM OM1 9672 -0.550000 15.99940
9673 OM 9673 OM OM1 9673 -0.550000 15.99940
9674 OM 9674 OM OM1 9674 -0.550000 15.99940
9675 OM 9675 OM OM1 9675 -0.550000 15.99940
9676 OM 9676 OM OM1 9676 -0.550000 15.99940
9677 OM 9677 OM OM1 9677 -0.550000 15.99940
9678 OM 9678 OM OM1 9678 -0.550000 15.99940
9679 OM 9679 OM OM1 9679 -0.550000 15.99940
9680 OM 9680 OM OM1 9680 -0.550000 15.99940
9681 OM 9681 OM OM1 9681 -0.550000 15.99940
9682 OM 9682 OM OM1 9682 -0.550000 15.99940
9683 OM 9683 OM OM1 9683 -0.550000 15.99940
9684 OM 9684 OM OM1 9684 -0.550000 15.99940
9685 OM 9685 OM OM1 9685 -0.550000 15.99940
9686 OM 9686 OM OM1 9686 -0.550000 15.99940
9687 OM 9687 OM OM1 9687 -0.550000 15.99940
9688 OM 9688 OM OM1 9688 -0.550000 15.99940
9689 OM 9689 OM OM1 9689 -0.550000 15.99940
9690 OM 9690 OM OM1 9690 -0.550000 15.99940
9691 OM 9691 OM OM1 9691 -0.550000 15.99940
9692 OM 9692 OM OM1 9692 -0.550000 15.99940
9693 OM 9693 OM OM1 9693 -0.550000 15.99940
9694 OM 9694 OM OM1 9694 -0.550000 15.99940
9695 OM 9695 OM OM1 9695 -0.550000 15.99940
9696 OM 9696 OM OM1 9696 -0.550000 15.99940
9697 OM 9697 OM OM1 9697 -0.550000 15.99940
9698 OM 9698 OM OM1 9698 -0.550000 15.99940
9699 OM 9699 OM OM1 9699 -0.550000 15.99940
9700 OM 9700 OM OM1 9700 -0.550000 15.99940
9701 OM 9701 OM OM1 9701 -0.550000 15.99940
9702 OM 9702 OM OM1 9702 -0.550000 15.99940
9703 OM 9703 OM OM1 9703 -0.550000 15.99940
9704 OM 9704 OM OM1 9704 -0.550000 15.99940
9705 OM 9705 OM OM1 9705 -0.550000 15.99940
9706 OM 9706 OM OM1 9706 -0.550000 15.99940
9707 OM 9707 OM OM1 9707 -0.550000 15.99940
9708 OM 9708 OM OM1 9708 -0.550000 15.99940
9709 OM 9709 OM OM1 9709 -0.550000 15.99940
9710 OM 9710 OM OM1 9710 -0.550000 15.99940
9711 OM 9711 OM OM1 9711 -0.550000 15.99940
9712 OM 9712 OM OM1 9712 -0.550000 15.99940
9713 OM 9713 OM OM1 9713 -0.550000 15.99940
9714 OM 9714 OM OM1 9714 -0.550000 15.99940
9715 OM 9715 OM OM1 9715 -0.550000 15.99940
9716 OM 9716 OM OM1 9716 -0.550000 15.99940
9717 OM 9717 OM OM1 9717 -0.550000 15.99940
9718 OM 9718 OM OM1 9718 -0.550000 15.99940
9719 OM 9719 OM OM1 9719 -0.550000 15.99940
9720 OM 9720 OM OM1 9720 -0.550000 15.99940
9721 OM 9721 OM OM1 9721 -0.550000 15.99940
9722 OM 9722 OM OM1 9722 -0.550000 15.99940
9723 OM 9723 OM OM1 9723 -0.550000 15.99940
9724 OM 9724 OM OM1 9724 -0.550000 15.99940
9725 OM 9725 OM OM1 9725 -0.550000 15.99940
9726 OM 9726 OM OM1 9726 -0.550000 15.99940
9727 OM 9727 OM OM1 9727 -0.550000 15.99940
9728 OM 9728 OM OM1 9728 -0.550000 15.99940
9729 OM 9729 OM OM1 9729 -0.550000 15.99940
9730 OM 9730 OM OM1 9730 -0.550000 15.99940
9731 OM 9731 OM OM1 9731 -0.550000 15.99940
9732 OM 9732 OM OM1 9732 -0.550000 15.99940
9733 OM 9733 OM OM1 9733 -0.550000 15.99940
9734 OM 9734 OM OM1 9734 -0.550000 15.99940
9735 OM 9735 OM OM1 9735 -0.550000 15.99940
9736 OM 9736 OM OM1 9736 -0.550000 15.99940
9737 OM 9737 OM OM1 9737 -0.550000 15.99940
9738 OM 9738 OM OM1 9738 -0.550000 15.99940
9739 OM 9739 OM OM1 9739 -0.550000 15.99940
9740 OM 9740 OM OM1 9740 -0.550000 15.99940
9741 OM 9741 OM OM1 9741 -0.550000 15.99940
9742 OM 9742 OM OM1 9742 -0.550000 15.99940
9743 OM 9743 OM OM1 9743 -0.550000 15.99940
9744 OM 9744 OM OM1 9744 -0.550000 15.99940
9745 OM 9745 OM OM1 9745 -0.550000 15.99940
9746 OM 9746 OM OM1 9746 -0.550000 15.99940
9747 OM 9747 OM OM1 9747 -0.550000 15.99940
9748 OM 9748 OM OM1 9748 -0.550000 15.99940
9749 OM 9749 OM OM1 9749 -0.550000 15.99940
9750 OM 9750 OM OM1 9750 -0.550000 15.99940
9751 OM 9751 OM OM1 9751 -0.550000 15.99940
9752 OM 9752 OM OM1 9752 -0.550000 15.99940
9753 OM 9753 OM OM1 9753 -0.550000 15.99940
9754 OM 9754 OM OM1 9754 -0.550000 15.99940
9755 OM 9755 OM OM1 9755 -0.550000 15.99940
9756 OM 9756 OM OM1 9756 -0.550000 15.99940
9757 OM 9757 OM OM1 9757 -0.550000 15.99940
9758 OM 9758 OM OM1 9758 -0.550000 15.99940
9759 OM 9759 OM OM1 9759 -0.550000 15.99940
9760 OM 9760 OM OM1 9760 -0.550000 15.99940
9761 OM 9761 OM OM1 9761 -0.550000 15.99940
9762 OM 9762 OM OM1 9762 -0.550000 15.99940
9763 OM 9763 OM OM1 9763 -0.550000 15.99940
9764 OM 9764 OM OM1 9764 -0.550000 15.99940
9765 OM 9765 OM OM1 9765 -0.550000 15.99940
9766 OM 9766 OM OM1 9766 -0.550000 15.99940
9767 OM 9767 OM OM1 9767 -0.550000 15.99940
9768 OM 9768 OM OM1 9768 -0.550000 15.99940
9769 OM 9769 OM OM1 9769 -0.550000 15.99940
9770 OM 9770 OM OM1 9770 -0.550000 15.99940
9771 OM 9771 OM OM1 9771 -0.550000 15.99940
9772 OM 9772 OM OM1 9772 -0.550000 15.99940
9773 OM 9773 OM OM1 9773 -0.550000 15.99940
9774 OM 9774 OM OM1 9774 -0.550000 15.99940
9775 OM 9775 OM OM1 9775 -0.550000 15.99940
9776 OM 9776 OM OM1 9776 -0.550000 15.99940
9777 OM 9777 OM OM1 9777 -0.550000 15.99940
9778 OM 9778 OM OM1 9778 -0.550000 15.99940
9779 OM 9779 OM OM1 9779 -0.550000 15.99940
9780 OM 9780 OM OM1 9780 -0.550000 15.99940
9781 OM 9781 OM OM1 9781 -0.550000 15.99940
9782 OM 9782 OM OM1 9782 -0.550000 15.99940
9783 OM 9783 OM OM1 9783 -0.550000 15.99940
9784 OM 9784 OM OM1 9784 -0.550000 15.99940
9785 OM 9785 OM OM1 9785 -0.550000 15.99940
9786 OM 9786 OM OM1 9786 -0.550000 15.99940
9787 OM 9787 OM OM1 9787 -0.550000 15.99940
9788 OM 9788 OM OM1 9788 -0.550000 15.99940
9789 OM 9789 OM OM1 9789 -0.550000 15.99940
9790 OM 9790 OM OM1 9790 -0.550000 15.99940
9791 OM 9791 OM OM1 9791 -0.550000 15.99940
9792 OM 9792 OM OM1 9792 -0.550000 15.99940
9793 OM 9793 OM OM1 9793 -0.550000 15.99940
9794 OM 9794 OM OM1 9794 -0.550000 15.99940
9795 OM 9795 OM OM1 9795 -0.550000 15.99940
9796 OM 9796 OM OM1 9796 -0.550000 15.99940
9797 OM 9797 OM OM1 9797 -0.550000 15.99940
9798 OM 9798 OM OM1 9798 -0.550000 15.99940
9799 OM 9799 OM OM1 9799 -0.550000 15.99940
9800 OM 9800 OM OM1 9800 -0.550000 15.99940
9801 OM 9801 OM OM1 9801 -0.550000 15.99940
9802 OM 9802 OM OM1 9802 -0.550000 15.99940
9803 OM 9803 OM OM1 9803 -0.550000 15.99940
9804 OM 9804 OM OM1 9804 -0.550000 15.99940
9805 OM 9805 OM OM1 9805 -0.550000 15.99940
9806 OM 9806 OM OM1 9806 -0.550000 15.99940
9807 OM 9807 OM OM1 9807 -0.550000 15.99940
9808 OM 9808 OM OM1 9808 -0.550000 15.99940
9809 OM 9809 OM OM1 9809 -0.550000 15.99940
9810 OM 9810 OM OM1 9810 -0.550000 15.99940
9811 OM 9811 OM OM1 9811 -0.550000 15.99940
9812 OM 9812 OM OM1 9812 -0.550000 15.99940
9813 OM 9813 OM OM1 9813 -0.550000 15.99940
9814 OM 9814 OM OM1 9814 -0.550000 15.99940
9815 OM 9815 OM OM1 9815 -0.550000 15.99940
9816 OM 9816 OM OM1 9816 -0.550000 15.99940
9817 OM 9817 OM OM1 9817 -0.550000 15.99940
9818 OM 9818 OM OM1 9818 -0.550000 15.99940
9819 OM 9819 OM OM1 9819 -0.550000 15.99940
9820 OM 9820 OM OM1 9820 -0.550000 15.99940
9821 OM 9821 OM OM1 9821 -0.550000 15.99940
9822 OM 9822 OM OM1 9822 -0.550000 15.99940
9823 OM 9823 OM OM1 9823 -0.550000 15.99940
9824 OM 9824 OM OM1 9824 -0.550000 15.99940
9825 OM 9825 OM OM1 9825 -0.550000 15.99940
9826 OM 9826 OM OM1 9826 -0.550000 15.99940
9827 OM 9827 OM OM1 9827 -0.550000 15.99940
9828 OM 9828 OM OM1 9828 -0.550000 15.99940
9829 OM 9829 OM OM1 9829 -0.550000 15.99940
9830 OM 9830 OM OM1 9830 -0.550000 15.99940
9831 OM 9831 OM OM1 9831 -0.550000 15.99940
9832 OM 9832 OM OM1 9832 -0.550000 15.99940
9833 OM 9833 OM OM1 9833 -0.550000 15.99940
9834 OM 9834 OM OM1 9834 -0.550000 15.99940
9835 OM 9835 OM OM1 9835 -0.550000 15.99940
9836 OM 9836 OM OM1 9836 -0.550000 15.99940
9837 OM 9837 OM OM1 9837 -0.550000 15.99940
9838 OM 9838 OM OM1 9838 -0.550000 15.99940
9839 OM 9839 OM OM1 9839 -0.550000 15.99940
9840 OM 9840 OM OM1 9840 -0.550000 15.99940
9841 OM 9841 OM OM1 9841 -0.550000 15.99940
9842 OM 9842 OM OM1 9842 -0.550000 15.99940
9843 OM 9843 OM OM1 9843 -0.550000 15.99940
9844 OM 9844 OM OM1 9844 -0.550000 15.99940
9845 OM 9845 OM OM1 9845 -0.550000 15.99940
9846 OM 9846 OM OM1 9846 -0.550000 15.99940
9847 OM 9847 OM OM1 9847 -0.550000 15.99940
9848 OM 9848 OM OM1 9848 -0.550000 15.99940
9849 OM 9849 OM OM1 9849 -0.550000 15.99940
9850 OM 9850 OM OM1 9850 -0.550000 15.99940
9851 OM 9851 OM OM1 9851 -0.550000 15.99940
9852 OM 9852 OM OM1 9852 -0.550000 15.99940
9853 OM 9853 OM OM1 9853 -0.550000 15.99940
9854 OM 9854 OM OM1 9854 -0.550000 15.99940
9855 OM 9855 OM OM1 9855 -0.550000 15.99940
9856 OM 9856 OM OM1 9856 -0.550000 15.99940
9857 OM 9857 OM OM1 9857 -0.550000 15.99940
9858 OM 9858 OM OM1 9858 -0.550000 15.99940
9859 OM 9859 OM OM1 9859 -0.550000 15.99940
9860 OM 9860 OM OM1 9860 -0.550000 15.99940
9861 OM 9861 OM OM1 9861 -0.550000 15.99940
9862 OM 9862 OM OM1 9862 -0.550000 15.99940
9863 OM 9863 OM OM1 9863 -0.550000 15.99940
9864 OM 9864 OM OM1 9864 -0.550000 15.99940
9865 OM 9865 OM OM1 9865 -0.550000 15.99940
9866 OM 9866 OM OM1 9866 -0.550000 15.99940
9867 OM 9867 OM OM1 9867 -0.550000 15.99940
9868 OM 9868 OM OM1 9868 -0.550000 15.99940
9869 OM 9869 OM OM1 9869 -0.550000 15.99940
9870 OM 9870 OM OM1 9870 -0.550000 15.99940
9871 OM 9871 OM OM1 9871 -0.550000 15.99940
9872 OM 9872 OM OM1 9872 -0.550000 15.99940
9873 OM 9873 OM OM1 9873 -0.550000 15.99940
9874 OM 9874 OM OM1 9874 -0.550000 15.99940
9875 OM 9875 OM OM1 9875 -0.550000 15.99940
9876 OM 9876 OM OM1 9876 -0.550000 15.99940
9877 OM 9877 OM OM1 9877 -0.550000 15.99940
9878 OM 9878 OM OM1 9878 -0.550000 15.99940
9879 OM 9879 OM OM1 9879 -0.550000 15.99940
9880 OM 9880 OM OM1 9880 -0.550000 15.99940
9881 OM 9881 OM OM1 9881 -0.550000 15.99940
9882 OM 9882 OM OM1 9882 -0.550000 15.99940
9883 OM 9883 OM OM1 9883 -0.550000 15.99940
9884 OM 9884 OM OM1 9884 -0.550000 15.99940
9885 OM 9885 OM OM1 9885 -0.550000 15.99940
9886 OM 9886 OM OM1 9886 -0.550000 15.99940
9887 OM 9887 OM OM1 9887 -0.550000 15.99940
9888 OM 9888 OM OM1 9888 -0.550000 15.99940
9889 OM 9889 OM OM1 9889 -0.550000 15.99940
9890 OM 9890 OM OM1 9890 -0.550000 15.99940
9891 OM 9891 OM OM1 9891 -0.550000 15.99940
9892 OM 9892 OM OM1 9892 -0.550000 15.99940
9893 OM 9893 OM OM1 9893 -0.550000 15.99940
9894 OM 9894 OM OM1 9894 -0.550000 15.99940
9895 OM 9895 OM OM1 9895 -0.550000 15.99940
9896 OM 9896 OM OM1 9896 -0.550000 15.99940
9897 OM 9897 OM OM1 9897 -0.550000 15.99940
9898 OM 9898 OM OM1 9898 -0.550000 15.99940
9899 OM 9899 OM OM1 9899 -0.550000 15.99940
9900 OM 9900 OM OM1 9900 -0.550000 15.99940
9901 OM 9901 OM OM1 9901 -0.550000 15.99940
9902 OM 9902 OM OM1 9902 -0.550000 15.99940
9903 OM 9903 OM OM1 9903 -0.550000 15.99940
9904 OM 9904 OM OM1 9904 -0.550000 15.99940
9905 OM 9905 OM OM1 9905 -0.550000 15.99940
9906 OM 9906 OM OM1 9906 -0.550000 15.99940
9907 OM 9907 OM OM1 9907 -0.550000 15.99940
9908 OM 9908 OM OM1 9908 -0.550000 15.99940
9909 OM 9909 OM OM1 9909 -0.550000 15.99940
9910 OM 9910 OM OM1 9910 -0.550000 15.99940
9911 OM 9911 OM OM1 9911 -0.550000 15.99940
9912 OM 9912 OM OM1 9912 -0.550000 15.99940
9913 OM 9913 OM OM1 9913 -0.550000 15.99940
9914 OM 9914 OM OM1 9914 -0.550000 15.99940
9915 OM 9915 OM OM1 9915 -0.550000 15.99940
9916 OM 9916 OM OM1 9916 -0.550000 15.99940
9917 OM 9917 OM OM1 9917 -0.550000 15.99940
9918 OM 9918 OM OM1 9918 -0.550000 15.99940
9919 OM 9919 OM OM1 9919 -0.550000 15.99940
9920 OM 9920 OM OM1 9920 -0.550000 15.99940
9921 OM 9921 OM OM1 9921 -0.550000 15.99940
9922 OM 9922 OM OM1 9922 -0.550000 15.99940
9923 OM 9923 OM OM1 9923 -0.550000 15.99940
9924 OM 9924 OM OM1 9924 -0.550000 15.99940
9925 OM 9925 OM OM1 9925 -0.550000 15.99940
9926 OM 9926 OM OM1 9926 -0.550000 15.99940
9927 OM 9927 OM OM1 9927 -0.550000 15.99940
9928 OM 9928 OM OM1 9928 -0.550000 15.99940
9929 OM 9929 OM OM1 9929 -0.550000 15.99940
9930 OM 9930 OM OM1 9930 -0.550000 15.99940
9931 OM 9931 OM OM1 9931 -0.550000 15.99940
9932 OM 9932 OM OM1 9932 -0.550000 15.99940
9933 OM 9933 OM OM1 9933 -0.550000 15.99940
9934 OM 9934 OM OM1 9934 -0.550000 15.99940
9935 OM 9935 OM OM1 9935 -0.550000 15.99940
9936 OM 9936 OM OM1 9936 -0.550000 15.99940
9937 OM 9937 OM OM1 9937 -0.550000 15.99940
9938 OM 9938 OM OM1 9938 -0.550000 15.99940
9939 OM 9939 OM OM1 9939 -0.550000 15.99940
9940 OM 9940 OM OM1 9940 -0.550000 15.99940
9941 OM 9941 OM OM1 9941 -0.550000 15.99940
9942 OM 9942 OM OM1 9942 -0.550000 15.99940
9943 OM 9943 OM OM1 9943 -0.550000 15.99940
9944 OM 9944 OM OM1 9944 -0.550000 15.99940
9945 OM 9945 OM OM1 9945 -0.550000 15.99940
9946 OM 9946 OM OM1 9946 -0.550000 15.99940
9947 OM 9947 OM OM1 9947 -0.550000 15.99940
9948 OM 9948 OM OM1 9948 -0.550000 15.99940
9949 OM 9949 OM OM1 9949 -0.550000 15.99940
9950 OM 9950 OM OM1 9950 -0.550000 15.99940
9951 OM 9951 OM OM1 9951 -0.550000 15.99940
9952 OM 9952 OM OM1 9952 -0.550000 15.99940
9953 OM 9953 OM OM1 9953 -0.550000 15.99940
9954 OM 9954 OM OM1 9954 -0.550000 15.99940
9955 OM 9955 OM OM1 9955 -0.550000 15.99940
9956 OM 9956 OM OM1 9956 -0.550000 15.99940
9957 OM 9957 OM OM1 9957 -0.550000 15.99940
9958 OM 9958 OM OM1 9958 -0.550000 15.99940
9959 OM 9959 OM OM1 9959 -0.550000 15.99940
9960 OM 9960 OM OM1 9960 -0.550000 15.99940
9961 OM 9961 OM OM1 9961 -0.550000 15.99940
9962 OM 9962 OM OM1 9962 -0.550000 15.99940
9963 OM 9963 OM OM1 9963 -0.550000 15.99940
9964 OM 9964 OM OM1 9964 -0.550000 15.99940
9965 OM 9965 OM OM1 9965 -0.550000 15.99940
9966 OM 9966 OM OM1 9966 -0.550000 15.99940
9967 OM 9967 OM OM1 9967 -0.550000 15.99940
9968 OM 9968 OM OM1 9968 -0.550000 15.99940
9969 OM 9969 OM OM1 9969 -0.550000 15.99940
9970 OM 9970 OM OM1 9970 -0.550000 15.99940
9971 OM 9971 OM OM1 9971 -0.550000 15.99940
9972 OM 9972 OM OM1 9972 -0.550000 15.99940
9973 OM 9973 OM OM1 9973 -0.550000 15.99940
9974 OM 9974 OM OM1 9974 -0.550000 15.99940
9975 OM 9975 OM OM1 9975 -0.550000 15.99940
9976 OM 9976 OM OM1 9976 -0.550000 15.99940
9977 OM 9977 OM OM1 9977 -0.550000 15.99940
9978 OM 9978 OM OM1 9978 -0.550000 15.99940
9979 OM 9979 OM OM1 9979 -0.550000 15.99940
9980 OM 9980 OM OM1 9980 -0.550000 15.99940
9981 OM 9981 OM OM1 9981 -0.550000 15.99940
9982 OM 9982 OM OM1 9982 -0.550000 15.99940
9983 OM 9983 OM OM1 9983 -0.550000 15.99940
9984 OM 9984 OM OM1 9984 -0.550000 15.99940
9985 OM 9985 OM OM1 9985 -0.550000 15.99940
9986 OM 9986 OM OM1 9986 -0.550000 15.99940
9987 OM 9987 OM OM1 9987 -0.550000 15.99940
9988 OM 9988 OM OM1 9988 -0.550000 15.99940
9989 OM 9989 OM OM1 9989 -0.550000 15.99940
9990 OM 9990 OM OM1 9990 -0.550000 15.99940
9991 OM 9991 OM OM1 9991 -0.550000 15.99940
9992 OM 9992 OM OM1 9992 -0.550000 15.99940
9993 OM 9993 OM OM1 9993 -0.550000 15.99940
9994 OM 9994 OM OM1 9994 -0.550000 15.99940
9995 OM 9995 OM OM1 9995 -0.550000 15.99940
9996 OM 9996 OM OM1 9996 -0.550000 15.99940
9997 OM 9997 OM OM1 9997 -0.550000 15.99940
9998 OM 9998 OM OM1 9998 -0.550000 15.99940
9999 OM 9999 OM OM1 9999 -0.550000 15.99940
10000 OM 10000 OM OM1 10000 -0.550000 15.99940
10001 OM 10001 OM OM1 10001 -0.550000 15.99940
10002 OM 10002 OM OM1 10002 -0.550000 15.99940
10003 OM 10003 OM OM1 10003 -0.550000 15.99940
10004 OM 10004 OM OM1 10004 -0.550000 15.99940
10005 OM 10005 OM OM1 10005 -0.550000 15.99940
10006 OM 10006 OM OM1 10006 -0.550000 15.99940
10007 OM 10007 OM OM1 10007 -0.550000 15.99940
10008 OM 10008 OM OM1 10008 -0.550000 15.99940
10009 OM 10009 OM OM1 10009 -0.550000 15.99940
10010 OM 10010 OM OM1 10010 -0.550000 15.99940
10011 OM 10011 OM OM1 10011 -0.550000 15.99940
10012 OM 10012 OM OM1 10012 -0.550000 15.99940
10013 OM 10013 OM OM1 10013 -0.550000 15.99940
10014 OM 10014 OM OM1 10014 -0.550000 15.99940
10015 OM 10015 OM OM1 10015 -0.550000 15.99940
10016 OM 10016 OM OM1 10016 -0.550000 15.99940
10017 OM 10017 OM OM1 10017 -0.550000 15.99940
10018 OM 10018 OM OM1 10018 -0.550000 15.99940
10019 OM 10019 OM OM1 10019 -0.550000 15.99940
10020 OM 10020 OM OM1 10020 -0.550000 15.99940
10021 OM 10021 OM OM1 10021 -0.550000 15.99940
10022 OM 10022 OM OM1 10022 -0.550000 15.99940
10023 OM 10023 OM OM1 10023 -0.550000 15.99940
10024 OM 10024 OM OM1 10024 -0.550000 15.99940
10025 OM 10025 OM OM1 10025 -0.550000 15.99940
10026 OM 10026 OM OM1 10026 -0.550000 15.99940
10027 OM 10027 OM OM1 10027 -0.550000 15.99940
10028 OM 10028 OM OM1 10028 -0.550000 15.99940
10029 OM 10029 OM OM1 10029 -0.550000 15.99940
10030 OM 10030 OM OM1 10030 -0.550000 15.99940
10031 OM 10031 OM OM1 10031 -0.550000 15.99940
10032 OM 10032 OM OM1 10032 -0.550000 15.99940
10033 OM 10033 OM OM1 10033 -0.550000 15.99940
10034 OM 10034 OM OM1 10034 -0.550000 15.99940
10035 OM 10035 OM OM1 10035 -0.550000 15.99940
10036 OM 10036 OM OM1 10036 -0.550000 15.99940
10037 OM 10037 OM OM1 10037 -0.550000 15.99940
10038 OM 10038 OM OM1 10038 -0.550000 15.99940
10039 OM 10039 OM OM1 10039 -0.550000 15.99940
10040 OM 10040 OM OM1 10040 -0.550000 15.99940
10041 OM 10041 OM OM1 10041 -0.550000 15.99940
10042 OM 10042 OM OM1 10042 -0.550000 15.99940
10043 OM 10043 OM OM1 10043 -0.550000 15.99940
10044 OM 10044 OM OM1 10044 -0.550000 15.99940
10045 OM 10045 OM OM1 10045 -0.550000 15.99940
10046 OM 10046 OM OM1 10046 -0.550000 15.99940
10047 OM 10047 OM OM1 10047 -0.550000 15.99940
10048 OM 10048 OM OM1 10048 -0.550000 15.99940
10049 OM 10049 OM OM1 10049 -0.550000 15.99940
10050 OM 10050 OM OM1 10050 -0.550000 15.99940
10051 OM 10051 OM OM1 10051 -0.550000 15.99940
10052 OM 10052 OM OM1 10052 -0.550000 15.99940
10053 OM 10053 OM OM1 10053 -0.550000 15.99940
10054 OM 10054 OM OM1 10054 -0.550000 15.99940
10055 OM 10055 OM OM1 10055 -0.550000 15.99940
10056 OM 10056 OM OM1 10056 -0.550000 15.99940
10057 OM 10057 OM OM1 10057 -0.550000 15.99940
10058 OM 10058 OM OM1 10058 -0.550000 15.99940
10059 OM 10059 OM OM1 10059 -0.550000 15.99940
10060 OM 10060 OM OM1 10060 -0.550000 15.99940
10061 OM 10061 OM OM1 10061 -0.550000 15.99940
10062 OM 10062 OM OM1 10062 -0.550000 15.99940
10063 OM 10063 OM OM1 10063 -0.550000 15.99940
10064 OM 10064 OM OM1 10064 -0.550000 15.99940
10065 OM 10065 OM OM1 10065 -0.550000 15.99940
10066 OM 10066 OM OM1 10066 -0.550000 15.99940
10067 OM 10067 OM OM1 10067 -0.550000 15.99940
10068 OM 10068 OM OM1 10068 -0.550000 15.99940
10069 OM 10069 OM OM1 10069 -0.550000 15.99940
10070 OM 10070 OM OM1 10070 -0.550000 15.99940
10071 OM 10071 OM OM1 10071 -0.550000 15.99940
10072 OM 10072 OM OM1 10072 -0.550000 15.99940
10073 OM 10073 OM OM1 10073 -0.550000 15.99940
10074 OM 10074 OM OM1 10074 -0.550000 15.99940
10075 OM 10075 OM OM1 10075 -0.550000 15.99940
10076 OM 10076 OM OM1 10076 -0.550000 15.99940
10077 OM 10077 OM OM1 10077 -0.550000 15.99940
10078 OM 10078 OM OM1 10078 -0.550000 15.99940
10079 OM 10079 OM OM1 10079 -0.550000 15.99940
10080 OM 10080 OM OM1 10080 -0.550000 15.99940
10081 OM 10081 OM OM1 10081 -0.550000 15.99940
10082 OM 10082 OM OM1 10082 -0.550000 15.99940
10083 OM 10083 OM OM1 10083 -0.550000 15.99940
10084 OM 10084 OM OM1 10084 -0.550000 15.99940
10085 OM 10085 OM OM1 10085 -0.550000 15.99940
10086 OM 10086 OM OM1 10086 -0.550000 15.99940
10087 OM 10087 OM OM1 10087 -0.550000 15.99940
10088 OM 10088 OM OM1 10088 -0.550000 15.99940
10089 OM 10089 OM OM1 10089 -0.550000 15.99940
10090 OM 10090 OM OM1 10090 -0.550000 15.99940
10091 OM 10091 OM OM1 10091 -0.550000 15.99940
10092 OM 10092 OM OM1 10092 -0.550000 15.99940
10093 OM 10093 OM OM1 10093 -0.550000 15.99940
10094 OM 10094 OM OM1 10094 -0.550000 15.99940
10095 OM 10095 OM OM1 10095 -0.550000 15.99940
10096 OM 10096 OM OM1 10096 -0.550000 15.99940
10097 OM 10097 OM OM1 10097 -0.550000 15.99940
10098 OM 10098 OM OM1 10098 -0.550000 15.99940
10099 OM 10099 OM OM1 10099 -0.550000 15.99940
10100 OM 10100 OM OM1 10100 -0.550000 15.99940
10101 OM 10101 OM OM1 10101 -0.550000 15.99940
10102 OM 10102 OM OM1 10102 -0.550000 15.99940
10103 OM 10103 OM OM1 10103 -0.550000 15.99940
10104 OM 10104 OM OM1 10104 -0.550000 15.99940
10105 OM 10105 OM OM1 10105 -0.550000 15.99940
10106 OM 10106 OM OM1 10106 -0.550000 15.99940
10107 OM 10107 OM OM1 10107 -0.550000 15.99940
10108 OM 10108 OM OM1 10108 -0.550000 15.99940
10109 OM 10109 OM OM1 10109 -0.550000 15.99940
10110 OM 10110 OM OM1 10110 -0.550000 15.99940
10111 OM 10111 OM OM1 10111 -0.550000 15.99940
10112 OM 10112 OM OM1 10112 -0.550000 15.99940
10113 OM 10113 OM OM1 10113 -0.550000 15.99940
10114 OM 10114 OM OM1 10114 -0.550000 15.99940
10115 OM 10115 OM OM1 10115 -0.550000 15.99940
10116 OM 10116 OM OM1 10116 -0.550000 15.99940
10117 OM 10117 OM OM1 10117 -0.550000 15.99940
10118 OM 10118 OM OM1 10118 -0.550000 15.99940
10119 OM 10119 OM OM1 10119 -0.550000 15.99940
10120 OM 10120 OM OM1 10120 -0.550000 15.99940
10121 OM 10121 OM OM1 10121 -0.550000 15.99940
10122 OM 10122 OM OM1 10122 -0.550000 15.99940
10123 OM 10123 OM OM1 10123 -0.550000 15.99940
10124 OM 10124 OM OM1 10124 -0.550000 15.99940
10125 OM 10125 OM OM1 10125 -0.550000 15.99940
10126 OM 10126 OM OM1 10126 -0.550000 15.99940
10127 OM 10127 OM OM1 10127 -0.550000 15.99940
10128 OM 10128 OM OM1 10128 -0.550000 15.99940
10129 OM 10129 OM OM1 10129 -0.550000 15.99940
10130 OM 10130 OM OM1 10130 -0.550000 15.99940
10131 OM 10131 OM OM1 10131 -0.550000 15.99940
10132 OM 10132 OM OM1 10132 -0.550000 15.99940
10133 OM 10133 OM OM1 10133 -0.550000 15.99940
10134 OM 10134 OM OM1 10134 -0.550000 15.99940
10135 OM 10135 OM OM1 10135 -0.550000 15.99940
10136 OM 10136 OM OM1 10136 -0.550000 15.99940
10137 OM 10137 OM OM1 10137 -0.550000 15.99940
10138 OM 10138 OM OM1 10138 -0.550000 15.99940
10139 OM 10139 OM OM1 10139 -0.550000 15.99940
10140 OM 10140 OM OM1 10140 -0.550000 15.99940
10141 OM 10141 OM OM1 10141 -0.550000 15.99940
10142 OM 10142 OM OM1 10142 -0.550000 15.99940
10143 OM 10143 OM OM1 10143 -0.550000 15.99940
10144 OM 10144 OM OM1 10144 -0.550000 15.99940
10145 OM 10145 OM OM1 10145 -0.550000 15.99940
10146 OM 10146 OM OM1 10146 -0.550000 15.99940
10147 OM 10147 OM OM1 10147 -0.550000 15.99940
10148 OM 10148 OM OM1 10148 -0.550000 15.99940
10149 OM 10149 OM OM1 10149 -0.550000 15.99940
10150 OM 10150 OM OM1 10150 -0.550000 15.99940
10151 OM 10151 OM OM1 10151 -0.550000 15.99940
10152 OM 10152 OM OM1 10152 -0.550000 15.99940
10153 OM 10153 OM OM1 10153 -0.550000 15.99940
10154 OM 10154 OM OM1 10154 -0.550000 15.99940
10155 OM 10155 OM OM1 10155 -0.550000 15.99940
10156 OM 10156 OM OM1 10156 -0.550000 15.99940
10157 OM 10157 OM OM1 10157 -0.550000 15.99940
10158 OM 10158 OM OM1 10158 -0.550000 15.99940
10159 OM 10159 OM OM1 10159 -0.550000 15.99940
10160 OM 10160 OM OM1 10160 -0.550000 15.99940
10161 OM 10161 OM OM1 10161 -0.550000 15.99940
10162 OM 10162 OM OM1 10162 -0.550000 15.99940
10163 OM 10163 OM OM1 10163 -0.550000 15.99940
10164 OM 10164 OM OM1 10164 -0.550000 15.99940
10165 OM 10165 OM OM1 10165 -0.550000 15.99940
10166 OM 10166 OM OM1 10166 -0.550000 15.99940
10167 OM 10167 OM OM1 10167 -0.550000 15.99940
10168 OM 10168 OM OM1 10168 -0.550000 15.99940
10169 OM 10169 OM OM1 10169 -0.550000 15.99940
10170 OM 10170 OM OM1 10170 -0.550000 15.99940
10171 OM 10171 OM OM1 10171 -0.550000 15.99940
10172 OM 10172 OM OM1 10172 -0.550000 15.99940
10173 OM 10173 OM OM1 10173 -0.550000 15.99940
10174 OM 10174 OM OM1 10174 -0.550000 15.99940
10175 OM 10175 OM OM1 10175 -0.550000 15.99940
10176 OM 10176 OM OM1 10176 -0.550000 15.99940
10177 OM 10177 OM OM1 10177 -0.550000 15.99940
10178 OM 10178 OM OM1 10178 -0.550000 15.99940
10179 OM 10179 OM OM1 10179 -0.550000 15.99940
10180 OM 10180 OM OM1 10180 -0.550000 15.99940
10181 OM 10181 OM OM1 10181 -0.550000 15.99940
10182 OM 10182 OM OM1 10182 -0.550000 15.99940
10183 OM 10183 OM OM1 10183 -0.550000 15.99940
10184 OM 10184 OM OM1 10184 -0.550000 15.99940
10185 OM 10185 OM OM1 10185 -0.550000 15.99940
10186 OM 10186 OM OM1 10186 -0.550000 15.99940
10187 OM 10187 OM OM1 10187 -0.550000 15.99940
10188 OM 10188 OM OM1 10188 -0.550000 15.99940
10189 OM 10189 OM OM1 10189 -0.550000 15.99940
10190 OM 10190 OM OM1 10190 -0.550000 15.99940
10191 OM 10191 OM OM1 10191 -0.550000 15.99940
10192 OM 10192 OM OM1 10192 -0.550000 15.99940
10193 OM 10193 OM OM1 10193 -0.550000 15.99940
10194 OM 10194 OM OM1 10194 -0.550000 15.99940
10195 OM 10195 OM OM1 10195 -0.550000 15.99940
10196 OM 10196 OM OM1 10196 -0.550000 15.99940
10197 OM 10197 OM OM1 10197 -0.550000 15.99940
10198 OM 10198 OM OM1 10198 -0.550000 15.99940
10199 OM 10199 OM OM1 10199 -0.550000 15.99940
10200 OM 10200 OM OM1 10200 -0.550000 15.99940
10201 OM 10201 OM OM1 10201 -0.550000 15.99940
10202 OM 10202 OM OM1 10202 -0.550000 15.99940
10203 OM 10203 OM OM1 10203 -0.550000 15.99940
10204 OM 10204 OM OM1 10204 -0.550000 15.99940
10205 OM 10205 OM OM1 10205 -0.550000 15.99940
10206 OM 10206 OM OM1 10206 -0.550000 15.99940
10207 OM 10207 OM OM1 10207 -0.550000 15.99940
10208 OM 10208 OM OM1 10208 -0.550000 15.99940
10209 OM 10209 OM OM1 10209 -0.550000 15.99940
10210 OM 10210 OM OM1 10210 -0.550000 15.99940
10211 OM 10211 OM OM1 10211 -0.550000 15.99940
10212 OM 10212 OM OM1 10212 -0.550000 15.99940
10213 OM 10213 OM OM1 10213 -0.550000 15.99940
10214 OM 10214 OM OM1 10214 -0.550000 15.99940
10215 OM 10215 OM OM1 10215 -0.550000 15.99940
10216 OM 10216 OM OM1 10216 -0.550000 15.99940
10217 OM 10217 OM OM1 10217 -0.550000 15.99940
10218 OM 10218 OM OM1 10218 -0.550000 15.99940
10219 OM 10219 OM OM1 10219 -0.550000 15.99940
10220 OM 10220 OM OM1 10220 -0.550000 15.99940
10221 OM 10221 OM OM1 10221 -0.550000 15.99940
10222 OM 10222 OM OM1 10222 -0.550000 15.99940
10223 OM 10223 OM OM1 10223 -0.550000 15.99940
10224 OM 10224 OM OM1 10224 -0.550000 15.99940
10225 OM 10225 OM OM1 10225 -0.550000 15.99940
10226 OM 10226 OM OM1 10226 -0.550000 15.99940
10227 OM 10227 OM OM1 10227 -0.550000 15.99940
10228 OM 10228 OM OM1 10228 -0.550000 15.99940
10229 OM 10229 OM OM1 10229 -0.550000 15.99940
10230 OM 10230 OM OM1 10230 -0.550000 15.99940
10231 OM 10231 OM OM1 10231 -0.550000 15.99940
10232 OM 10232 OM OM1 10232 -0.550000 15.99940
10233 OM 10233 OM OM1 10233 -0.550000 15.99940
10234 OM 10234 OM OM1 10234 -0.550000 15.99940
10235 OM 10235 OM OM1 10235 -0.550000 15.99940
10236 OM 10236 OM OM1 10236 -0.550000 15.99940
10237 OM 10237 OM OM1 10237 -0.550000 15.99940
10238 OM 10238 OM OM1 10238 -0.550000 15.99940
10239 OM 10239 OM OM1 10239 -0.550000 15.99940
10240 OM 10240 OM OM1 10240 -0.550000 15.99940
10241 OM 10241 OM OM1 10241 -0.550000 15.99940
10242 OM 10242 OM OM1 10242 -0.550000 15.99940
10243 OM 10243 OM OM1 10243 -0.550000 15.99940
10244 OM 10244 OM OM1 10244 -0.550000 15.99940
10245 OM 10245 OM OM1 10245 -0.550000 15.99940
10246 OM 10246 OM OM1 10246 -0.550000 15.99940
10247 OM 10247 OM OM1 10247 -0.550000 15.99940
10248 OM 10248 OM OM1 10248 -0.550000 15.99940
10249 OM 10249 OM OM1 10249 -0.550000 15.99940
10250 OM 10250 OM OM1 10250 -0.550000 15.99940
10251 OM 10251 OM OM1 10251 -0.550000 15.99940
10252 OM 10252 OM OM1 10252 -0.550000 15.99940
10253 OM 10253 OM OM1 10253 -0.550000 15.99940
10254 OM 10254 OM OM1 10254 -0.550000 15.99940
10255 OM 10255 OM OM1 10255 -0.550000 15.99940
10256 OM 10256 OM OM1 10256 -0.550000 15.99940
10257 OM 10257 OM OM1 10257 -0.550000 15.99940
10258 OM 10258 OM OM1 10258 -0.550000 15.99940
10259 OM 10259 OM OM1 10259 -0.550000 15.99940
10260 OM 10260 OM OM1 10260 -0.550000 15.99940
10261 OM 10261 OM OM1 10261 -0.550000 15.99940
10262 OM 10262 OM OM1 10262 -0.550000 15.99940
10263 OM 10263 OM OM1 10263 -0.550000 15.99940
10264 OM 10264 OM OM1 10264 -0.550000 15.99940
10265 OM 10265 OM OM1 10265 -0.550000 15.99940
10266 OM 10266 OM OM1 10266 -0.550000 15.99940
10267 OM 10267 OM OM1 10267 -0.550000 15.99940
10268 OM 10268 OM OM1 10268 -0.550000 15.99940
10269 OM 10269 OM OM1 10269 -0.550000 15.99940
10270 OM 10270 OM OM1 10270 -0.550000 15.99940
10271 OM 10271 OM OM1 10271 -0.550000 15.99940
10272 OM 10272 OM OM1 10272 -0.550000 15.99940
10273 OM 10273 OM OM1 10273 -0.550000 15.99940
10274 OM 10274 OM OM1 10274 -0.550000 15.99940
10275 OM 10275 OM OM1 10275 -0.550000 15.99940
10276 OM 10276 OM OM1 10276 -0.550000 15.99940
10277 OM 10277 OM OM1 10277 -0.550000 15.99940
10278 OM 10278 OM OM1 10278 -0.550000 15.99940
10279 OM 10279 OM OM1 10279 -0.550000 15.99940
10280 OM 10280 OM OM1 10280 -0.550000 15.99940
10281 OM 10281 OM OM1 10281 -0.550000 15.99940
10282 OM 10282 OM OM1 10282 -0.550000 15.99940
10283 OM 10283 OM OM1 10283 -0.550000 15.99940
10284 OM 10284 OM OM1 10284 -0.550000 15.99940
10285 OM 10285 OM OM1 10285 -0.550000 15.99940
10286 OM 10286 OM OM1 10286 -0.550000 15.99940
10287 OM 10287 OM OM1 10287 -0.550000 15.99940
10288 OM 10288 OM OM1 10288 -0.550000 15.99940
10289 OM 10289 OM OM1 10289 -0.550000 15.99940
10290 OM 10290 OM OM1 10290 -0.550000 15.99940
10291 OM 10291 OM OM1 10291 -0.550000 15.99940
10292 OM 10292 OM OM1 10292 -0.550000 15.99940
10293 OM 10293 OM OM1 10293 -0.550000 15.99940
10294 OM 10294 OM OM1 10294 -0.550000 15.99940
10295 OM 10295 OM OM1 10295 -0.550000 15.99940
10296 OM 10296 OM OM1 10296 -0.550000 15.99940
10297 OM 10297 OM OM1 10297 -0.550000 15.99940
10298 OM 10298 OM OM1 10298 -0.550000 15.99940
10299 OM 10299 OM OM1 10299 -0.550000 15.99940
10300 OM 10300 OM OM1 10300 -0.550000 15.99940
10301 OM 10301 OM OM1 10301 -0.550000 15.99940
10302 OM 10302 OM OM1 10302 -0.550000 15.99940
10303 OM 10303 OM OM1 10303 -0.550000 15.99940
10304 OM 10304 OM OM1 10304 -0.550000 15.99940
10305 OM 10305 OM OM1 10305 -0.550000 15.99940
10306 OM 10306 OM OM1 10306 -0.550000 15.99940
10307 OM 10307 OM OM1 10307 -0.550000 15.99940
10308 OM 10308 OM OM1 10308 -0.550000 15.99940
10309 OM 10309 OM OM1 10309 -0.550000 15.99940
10310 OM 10310 OM OM1 10310 -0.550000 15.99940
10311 OM 10311 OM OM1 10311 -0.550000 15.99940
10312 OM 10312 OM OM1 10312 -0.550000 15.99940
10313 OM 10313 OM OM1 10313 -0.550000 15.99940
10314 OM 10314 OM OM1 10314 -0.550000 15.99940
10315 OM 10315 OM OM1 10315 -0.550000 15.99940
10316 OM 10316 OM OM1 10316 -0.550000 15.99940
10317 OM 10317 OM OM1 10317 -0.550000 15.99940
10318 OM 10318 OM OM1 10318 -0.550000 15.99940
10319 OM 10319 OM OM1 10319 -0.550000 15.99940
10320 OM 10320 OM OM1 10320 -0.550000 15.99940
10321 OM 10321 OM OM1 10321 -0.550000 15.99940
10322 OM 10322 OM OM1 10322 -0.550000 15.99940
10323 OM 10323 OM OM1 10323 -0.550000 15.99940
10324 OM 10324 OM OM1 10324 -0.550000 15.99940
10325 OM 10325 OM OM1 10325 -0.550000 15.99940
10326 OM 10326 OM OM1 10326 -0.550000 15.99940
10327 OM 10327 OM OM1 10327 -0.550000 15.99940
10328 OM 10328 OM OM1 10328 -0.550000 15.99940
10329 OM 10329 OM OM1 10329 -0.550000 15.99940
10330 OM 10330 OM OM1 10330 -0.550000 15.99940
10331 OM 10331 OM OM1 10331 -0.550000 15.99940
10332 OM 10332 OM OM1 10332 -0.550000 15.99940
10333 OM 10333 OM OM1 10333 -0.550000 15.99940
10334 OM 10334 OM OM1 10334 -0.550000 15.99940
10335 OM 10335 OM OM1 10335 -0.550000 15.99940
10336 OM 10336 OM OM1 10336 -0.550000 15.99940
10337 OM 10337 OM OM1 10337 -0.550000 15.99940
10338 OM 10338 OM OM1 10338 -0.550000 15.99940
10339 OM 10339 OM OM1 10339 -0.550000 15.99940
10340 OM 10340 OM OM1 10340 -0.550000 15.99940
10341 OM 10341 OM OM1 10341 -0.550000 15.99940
10342 OM 10342 OM OM1 10342 -0.550000 15.99940
10343 OM 10343 OM OM1 10343 -0.550000 15.99940
10344 OM 10344 OM OM1 10344 -0.550000 15.99940
10345 OM 10345 OM OM1 10345 -0.550000 15.99940
10346 OM 10346 OM OM1 10346 -0.550000 15.99940
10347 OM 10347 OM OM1 10347 -0.550000 15.99940
10348 OM 10348 OM OM1 10348 -0.550000 15.99940
10349 OM 10349 OM OM1 10349 -0.550000 15.99940
10350 OM 10350 OM OM1 10350 -0.550000 15.99940
10351 OM 10351 OM OM1 10351 -0.550000 15.99940
10352 OM 10352 OM OM1 10352 -0.550000 15.99940
10353 OM 10353 OM OM1 10353 -0.550000 15.99940
10354 OM 10354 OM OM1 10354 -0.550000 15.99940
10355 OM 10355 OM OM1 10355 -0.550000 15.99940
10356 OM 10356 OM OM1 10356 -0.550000 15.99940
10357 OM 10357 OM OM1 10357 -0.550000 15.99940
10358 OM 10358 OM OM1 10358 -0.550000 15.99940
10359 OM 10359 OM OM1 10359 -0.550000 15.99940
10360 OM 10360 OM OM1 10360 -0.550000 15.99940
10361 OM 10361 OM OM1 10361 -0.550000 15.99940
10362 OM 10362 OM OM1 10362 -0.550000 15.99940
10363 OM 10363 OM OM1 10363 -0.550000 15.99940
10364 OM 10364 OM OM1 10364 -0.550000 15.99940
10365 OM 10365 OM OM1 10365 -0.550000 15.99940
10366 OM 10366 OM OM1 10366 -0.550000 15.99940
10367 OM 10367 OM OM1 10367 -0.550000 15.99940
10368 OM 10368 OM OM1 10368 -0.550000 15.99940
10369 OM 10369 OM OM1 10369 -0.550000 15.99940
10370 OM 10370 OM OM1 10370 -0.550000 15.99940
10371 OM 10371 OM OM1 10371 -0.550000 15.99940
10372 OM 10372 OM OM1 10372 -0.550000 15.99940
10373 OM 10373 OM OM1 10373 -0.550000 15.99940
10374 OM 10374 OM OM1 10374 -0.550000 15.99940
10375 OM 10375 OM OM1 10375 -0.550000 15.99940
10376 OM 10376 OM OM1 10376 -0.550000 15.99940
10377 OM 10377 OM OM1 10377 -0.550000 15.99940
10378 OM 10378 OM OM1 10378 -0.550000 15.99940
10379 OM 10379 OM OM1 10379 -0.550000 15.99940
10380 OM 10380 OM OM1 10380 -0.550000 15.99940
10381 OM 10381 OM OM1 10381 -0.550000 15.99940
10382 OM 10382 OM OM1 10382 -0.550000 15.99940
10383 OM 10383 OM OM1 10383 -0.550000 15.99940
10384 OM 10384 OM OM1 10384 -0.550000 15.99940
10385 OM 10385 OM OM1 10385 -0.550000 15.99940
10386 OM 10386 OM OM1 10386 -0.550000 15.99940
10387 OM 10387 OM OM1 10387 -0.550000 15.99940
10388 OM 10388 OM OM1 10388 -0.550000 15.99940
10389 OM 10389 OM OM1 10389 -0.550000 15.99940
10390 OM 10390 OM OM1 10390 -0.550000 15.99940
10391 OM 10391 OM OM1 10391 -0.550000 15.99940
10392 OM 10392 OM OM1 10392 -0.550000 15.99940
10393 OM 10393 OM OM1 10393 -0.550000 15.99940
10394 OM 10394 OM OM1 10394 -0.550000 15.99940
10395 OM 10395 OM OM1 10395 -0.550000 15.99940
10396 OM 10396 OM OM1 10396 -0.550000 15.99940
10397 OM 10397 OM OM1 10397 -0.550000 15.99940
10398 OM 10398 OM OM1 10398 -0.550000 15.99940
10399 OM 10399 OM OM1 10399 -0.550000 15.99940
10400 OM 10400 OM OM1 10400 -0.550000 15.99940
10401 OM 10401 OM OM1 10401 -0.550000 15.99940
10402 OM 10402 OM OM1 10402 -0.550000 15.99940
10403 OM 10403 OM OM1 10403 -0.550000 15.99940
10404 OM 10404 OM OM1 10404 -0.550000 15.99940
10405 OM 10405 OM OM1 10405 -0.550000 15.99940
10406 OM 10406 OM OM1 10406 -0.550000 15.99940
10407 OM 10407 OM OM1 10407 -0.550000 15.99940
10408 OM 10408 OM OM1 10408 -0.550000 15.99940
10409 OM 10409 OM OM1 10409 -0.550000 15.99940
10410 OM 10410 OM OM1 10410 -0.550000 15.99940
10411 OM 10411 OM OM1 10411 -0.550000 15.99940
10412 OM 10412 OM OM1 10412 -0.550000 15.99940
10413 OM 10413 OM OM1 10413 -0.550000 15.99940
10414 OM 10414 OM OM1 10414 -0.550000 15.99940
10415 OM 10415 OM OM1 10415 -0.550000 15.99940
10416 OM 10416 OM OM1 10416 -0.550000 15.99940
10417 OM 10417 OM OM1 10417 -0.550000 15.99940
10418 OM 10418 OM OM1 10418 -0.550000 15.99940
10419 OM 10419 OM OM1 10419 -0.550000 15.99940
10420 OM 10420 OM OM1 10420 -0.550000 15.99940
10421 OM 10421 OM OM1 10421 -0.550000 15.99940
10422 OM 10422 OM OM1 10422 -0.550000 15.99940
10423 OM 10423 OM OM1 10423 -0.550000 15.99940
10424 OM 10424 OM OM1 10424 -0.550000 15.99940
10425 OM 10425 OM OM1 10425 -0.550000 15.99940
10426 OM 10426 OM OM1 10426 -0.550000 15.99940
10427 OM 10427 OM OM1 10427 -0.550000 15.99940
10428 OM 10428 OM OM1 10428 -0.550000 15.99940
10429 OM 10429 OM OM1 10429 -0.550000 15.99940
10430 OM 10430 OM OM1 10430 -0.550000 15.99940
10431 OM 10431 OM OM1 10431 -0.550000 15.99940
10432 OM 10432 OM OM1 10432 -0.550000 15.99940
10433 OM 10433 OM OM1 10433 -0.550000 15.99940
10434 OM 10434 OM OM1 10434 -0.550000 15.99940
10435 OM 10435 OM OM1 10435 -0.550000 15.99940
10436 OM 10436 OM OM1 10436 -0.550000 15.99940
10437 OM 10437 OM OM1 10437 -0.550000 15.99940
10438 OM 10438 OM OM1 10438 -0.550000 15.99940
10439 OM 10439 OM OM1 10439 -0.550000 15.99940
10440 OM 10440 OM OM1 10440 -0.550000 15.99940
10441 OM 10441 OM OM1 10441 -0.550000 15.99940
10442 OM 10442 OM OM1 10442 -0.550000 15.99940
10443 OM 10443 OM OM1 10443 -0.550000 15.99940
10444 OM 10444 OM OM1 10444 -0.550000 15.99940
10445 OM 10445 OM OM1 10445 -0.550000 15.99940
10446 OM 10446 OM OM1 10446 -0.550000 15.99940
10447 OM 10447 OM OM1 10447 -0.550000 15.99940
10448 OM 10448 OM OM1 10448 -0.550000 15.99940
10449 OM 10449 OM OM1 10449 -0.550000 15.99940
10450 OM 10450 OM OM1 10450 -0.550000 15.99940
10451 OM 10451 OM OM1 10451 -0.550000 15.99940
10452 OM 10452 OM OM1 10452 -0.550000 15.99940
10453 OM 10453 OM OM1 10453 -0.550000 15.99940
10454 OM 10454 OM OM1 10454 -0.550000 15.99940
10455 OM 10455 OM OM1 10455 -0.550000 15.99940
10456 OM 10456 OM OM1 10456 -0.550000 15.99940
10457 OM 10457 OM OM1 10457 -0.550000 15.99940
10458 OM 10458 OM OM1 10458 -0.550000 15.99940
10459 OM 10459 OM OM1 10459 -0.550000 15.99940
10460 OM 10460 OM OM1 10460 -0.550000 15.99940
10461 OM 10461 OM OM1 10461 -0.550000 15.99940
10462 OM 10462 OM OM1 10462 -0.550000 15.99940
10463 OM 10463 OM OM1 10463 -0.550000 15.99940
10464 OM 10464 OM OM1 10464 -0.550000 15.99940
10465 OM 10465 OM OM1 10465 -0.550000 15.99940
10466 OM 10466 OM OM1 10466 -0.550000 15.99940
10467 OM 10467 OM OM1 10467 -0.550000 15.99940
10468 OM 10468 OM OM1 10468 -0.550000 15.99940
10469 OM 10469 OM OM1 10469 -0.550000 15.99940
10470 OM 10470 OM OM1 10470 -0.550000 15.99940
10471 OM 10471 OM OM1 10471 -0.550000 15.99940
10472 OM 10472 OM OM1 10472 -0.550000 15.99940
10473 OM 10473 OM OM1 10473 -0.550000 15.99940
10474 OM 10474 OM OM1 10474 -0.550000 15.99940
10475 OM 10475 OM OM1 10475 -0.550000 15.99940
10476 OM 10476 OM OM1 10476 -0.550000 15.99940
10477 OM 10477 OM OM1 10477 -0.550000 15.99940
10478 OM 10478 OM OM1 10478 -0.550000 15.99940
10479 OM 10479 OM OM1 10479 -0.550000 15.99940
10480 OM 10480 OM OM1 10480 -0.550000 15.99940
10481 OM 10481 OM OM1 10481 -0.550000 15.99940
10482 OM 10482 OM OM1 10482 -0.550000 15.99940
10483 OM 10483 OM OM1 10483 -0.550000 15.99940
10484 OM 10484 OM OM1 10484 -0.550000 15.99940
10485 OM 10485 OM OM1 10485 -0.550000 15.99940
10486 OM 10486 OM OM1 10486 -0.550000 15.99940
10487 OM 10487 OM OM1 10487 -0.550000 15.99940
10488 OM 10488 OM OM1 10488 -0.550000 15.99940
10489 OM 10489 OM OM1 10489 -0.550000 15.99940
10490 OM 10490 OM OM1 10490 -0.550000 15.99940
10491 OM 10491 OM OM1 10491 -0.550000 15.99940
10492 OM 10492 OM OM1 10492 -0.550000 15.99940
10493 OM 10493 OM OM1 10493 -0.550000 15.99940
10494 OM 10494 OM OM1 10494 -0.550000 15.99940
10495 OM 10495 OM OM1 10495 -0.550000 15.99940
10496 OM 10496 OM OM1 10496 -0.550000 15.99940
10497 OM 10497 OM OM1 10497 -0.550000 15.99940
10498 OM 10498 OM OM1 10498 -0.550000 15.99940
10499 OM 10499 OM OM1 10499 -0.550000 15.99940
10500 OM 10500 OM OM1 10500 -0.550000 15.99940
10501 OM 10501 OM OM1 10501 -0.550000 15.99940
10502 OM 10502 OM OM1 10502 -0.550000 15.99940
10503 OM 10503 OM OM1 10503 -0.550000 15.99940
10504 OM 10504 OM OM1 10504 -0.550000 15.99940
10505 OM 10505 OM OM1 10505 -0.550000 15.99940
10506 OM 10506 OM OM1 10506 -0.550000 15.99940
10507 OM 10507 OM OM1 10507 -0.550000 15.99940
10508 OM 10508 OM OM1 10508 -0.550000 15.99940
10509 OM 10509 OM OM1 10509 -0.550000 15.99940
10510 OM 10510 OM OM1 10510 -0.550000 15.99940
10511 OM 10511 OM OM1 10511 -0.550000 15.99940
10512 OM 10512 OM OM1 10512 -0.550000 15.99940
10513 OM 10513 OM OM1 10513 -0.550000 15.99940
10514 OM 10514 OM OM1 10514 -0.550000 15.99940
10515 OM 10515 OM OM1 10515 -0.550000 15.99940
10516 OM 10516 OM OM1 10516 -0.550000 15.99940
10517 OM 10517 OM OM1 10517 -0.550000 15.99940
10518 OM 10518 OM OM1 10518 -0.550000 15.99940
10519 OM 10519 OM OM1 10519 -0.550000 15.99940
10520 OM 10520 OM OM1 10520 -0.550000 15.99940
10521 OM 10521 OM OM1 10521 -0.550000 15.99940
10522 OM 10522 OM OM1 10522 -0.550000 15.99940
10523 OM 10523 OM OM1 10523 -0.550000 15.99940
10524 OM 10524 OM OM1 10524 -0.550000 15.99940
10525 OM 10525 OM OM1 10525 -0.550000 15.99940
10526 OM 10526 OM OM1 10526 -0.550000 15.99940
10527 OM 10527 OM OM1 10527 -0.550000 15.99940
10528 OM 10528 OM OM1 10528 -0.550000 15.99940
10529 OM 10529 OM OM1 10529 -0.550000 15.99940
10530 OM 10530 OM OM1 10530 -0.550000 15.99940
10531 OM 10531 OM OM1 10531 -0.550000 15.99940
10532 OM 10532 OM OM1 10532 -0.550000 15.99940
10533 OM 10533 OM OM1 10533 -0.550000 15.99940
10534 OM 10534 OM OM1 10534 -0.550000 15.99940
10535 OM 10535 OM OM1 10535 -0.550000 15.99940
10536 OM 10536 OM OM1 10536 -0.550000 15.99940
10537 OM 10537 OM OM1 10537 -0.550000 15.99940
10538 OM 10538 OM OM1 10538 -0.550000 15.99940
10539 OM 10539 OM OM1 10539 -0.550000 15.99940
10540 OM 10540 OM OM1 10540 -0.550000 15.99940
10541 OM 10541 OM OM1 10541 -0.550000 15.99940
10542 OM 10542 OM OM1 10542 -0.550000 15.99940
10543 OM 10543 OM OM1 10543 -0.550000 15.99940
10544 OM 10544 OM OM1 10544 -0.550000 15.99940
10545 OM 10545 OM OM1 10545 -0.550000 15.99940
10546 OM 10546 OM OM1 10546 -0.550000 15.99940
10547 OM 10547 OM OM1 10547 -0.550000 15.99940
10548 OM 10548 OM OM1 10548 -0.550000 15.99940
10549 OM 10549 OM OM1 10549 -0.550000 15.99940
10550 OM 10550 OM OM1 10550 -0.550000 15.99940
10551 OM 10551 OM OM1 10551 -0.550000 15.99940
10552 OM 10552 OM OM1 10552 -0.550000 15.99940
10553 OM 10553 OM OM1 10553 -0.550000 15.99940
10554 OM 10554 OM OM1 10554 -0.550000 15.99940
10555 OM 10555 OM OM1 10555 -0.550000 15.99940
10556 OM 10556 OM OM1 10556 -0.550000 15.99940
10557 OM 10557 OM OM1 10557 -0.550000 15.99940
10558 OM 10558 OM OM1 10558 -0.550000 15.99940
10559 OM 10559 OM OM1 10559 -0.550000 15.99940
10560 OM 10560 OM OM1 10560 -0.550000 15.99940
10561 OM 10561 OM OM1 10561 -0.550000 15.99940
10562 OM 10562 OM OM1 10562 -0.550000 15.99940
10563 OM 10563 OM OM1 10563 -0.550000 15.99940
10564 OM 10564 OM OM1 10564 -0.550000 15.99940
10565 OM 10565 OM OM1 10565 -0.550000 15.99940
10566 OM 10566 OM OM1 10566 -0.550000 15.99940
10567 OM 10567 OM OM1 10567 -0.550000 15.99940
10568 OM 10568 OM OM1 10568 -0.550000 15.99940
10569 OM 10569 OM OM1 10569 -0.550000 15.99940
10570 OM 10570 OM OM1 10570 -0.550000 15.99940
10571 OM 10571 OM OM1 10571 -0.550000 15.99940
10572 OM 10572 OM OM1 10572 -0.550000 15.99940
10573 OM 10573 OM OM1 10573 -0.550000 15.99940
10574 OM 10574 OM OM1 10574 -0.550000 15.99940
10575 OM 10575 OM OM1 10575 -0.550000 15.99940
10576 OM 10576 OM OM1 10576 -0.550000 15.99940
10577 OM 10577 OM OM1 10577 -0.550000 15.99940
10578 OM 10578 OM OM1 10578 -0.550000 15.99940
10579 OM 10579 OM OM1 10579 -0.550000 15.99940
10580 OM 10580 OM OM1 10580 -0.550000 15.99940
10581 OM 10581 OM OM1 10581 -0.550000 15.99940
10582 OM 10582 OM OM1 10582 -0.550000 15.99940
10583 OM 10583 OM OM1 10583 -0.550000 15.99940
10584 OM 10584 OM OM1 10584 -0.550000 15.99940
10585 OM 10585 OM OM1 10585 -0.550000 15.99940
10586 OM 10586 OM OM1 10586 -0.550000 15.99940
10587 OM 10587 OM OM1 10587 -0.550000 15.99940
10588 OM 10588 OM OM1 10588 -0.550000 15.99940
10589 OM 10589 OM OM1 10589 -0.550000 15.99940
10590 OM 10590 OM OM1 10590 -0.550000 15.99940
10591 OM 10591 OM OM1 10591 -0.550000 15.99940
10592 OM 10592 OM OM1 10592 -0.550000 15.99940
10593 OM 10593 OM OM1 10593 -0.550000 15.99940
10594 OM 10594 OM OM1 10594 -0.550000 15.99940
10595 OM 10595 OM OM1 10595 -0.550000 15.99940
10596 OM 10596 OM OM1 10596 -0.550000 15.99940
10597 OM 10597 OM OM1 10597 -0.550000 15.99940
10598 OM 10598 OM OM1 10598 -0.550000 15.99940
10599 OM 10599 OM OM1 10599 -0.550000 15.99940
10600 OM 10600 OM OM1 10600 -0.550000 15.99940
10601 OM 10601 OM OM1 10601 -0.550000 15.99940
10602 OM 10602 OM OM1 10602 -0.550000 15.99940
10603 OM 10603 OM OM1 10603 -0.550000 15.99940
10604 OM 10604 OM OM1 10604 -0.550000 15.99940
10605 OM 10605 OM OM1 10605 -0.550000 15.99940
10606 OM 10606 OM OM1 10606 -0.550000 15.99940
10607 OM 10607 OM OM1 10607 -0.550000 15.99940
10608 OM 10608 OM OM1 10608 -0.550000 15.99940
10609 OM 10609 OM OM1 10609 -0.550000 15.99940
10610 OM 10610 OM OM1 10610 -0.550000 15.99940
10611 OM 10611 OM OM1 10611 -0.550000 15.99940
10612 OM 10612 OM OM1 10612 -0.550000 15.99940
10613 OM 10613 OM OM1 10613 -0.550000 15.99940
10614 OM 10614 OM OM1 10614 -0.550000 15.99940
10615 OM 10615 OM OM1 10615 -0.550000 15.99940
10616 OM 10616 OM OM1 10616 -0.550000 15.99940
10617 OM 10617 OM OM1 10617 -0.550000 15.99940
10618 OM 10618 OM OM1 10618 -0.550000 15.99940
10619 OM 10619 OM OM1 10619 -0.550000 15.99940
10620 OM 10620 OM OM1 10620 -0.550000 15.99940
10621 OM 10621 OM OM1 10621 -0.550000 15.99940
10622 OM 10622 OM OM1 10622 -0.550000 15.99940
10623 OM 10623 OM OM1 10623 -0.550000 15.99940
10624 OM 10624 OM OM1 10624 -0.550000 15.99940
10625 OM 10625 OM OM1 10625 -0.550000 15.99940
10626 OM 10626 OM OM1 10626 -0.550000 15.99940
10627 OM 10627 OM OM1 10627 -0.550000 15.99940
10628 OM 10628 OM OM1 10628 -0.550000 15.99940
10629 OM 10629 OM OM1 10629 -0.550000 15.99940
10630 OM 10630 OM OM1 10630 -0.550000 15.99940
10631 OM 10631 OM OM1 10631 -0.550000 15.99940
10632 OM 10632 OM OM1 10632 -0.550000 15.99940
10633 OM 10633 OM OM1 10633 -0.550000 15.99940
10634 OM 10634 OM OM1 10634 -0.550000 15.99940
10635 OM 10635 OM OM1 10635 -0.550000 15.99940
10636 OM 10636 OM OM1 10636 -0.550000 15.99940
10637 OM 10637 OM OM1 10637 -0.550000 15.99940
10638 OM 10638 OM OM1 10638 -0.550000 15.99940
10639 OM 10639 OM OM1 10639 -0.550000 15.99940
10640 OM 10640 OM OM1 10640 -0.550000 15.99940
10641 OM 10641 OM OM1 10641 -0.550000 15.99940
10642 OM 10642 OM OM1 10642 -0.550000 15.99940
10643 OM 10643 OM OM1 10643 -0.550000 15.99940
10644 OM 10644 OM OM1 10644 -0.550000 15.99940
10645 OM 10645 OM OM1 10645 -0.550000 15.99940
10646 OM 10646 OM OM1 10646 -0.550000 15.99940
10647 OM 10647 OM OM1 10647 -0.550000 15.99940
10648 OM 10648 OM OM1 10648 -0.550000 15.99940
10649 OM 10649 OM OM1 10649 -0.550000 15.99940
10650 OM 10650 OM OM1 10650 -0.550000 15.99940
10651 OM 10651 OM OM1 10651 -0.550000 15.99940
10652 OM 10652 OM OM1 10652 -0.550000 15.99940
10653 OM 10653 OM OM1 10653 -0.550000 15.99940
10654 OM 10654 OM OM1 10654 -0.550000 15.99940
10655 OM 10655 OM OM1 10655 -0.550000 15.99940
10656 OM 10656 OM OM1 10656 -0.550000 15.99940
10657 OM 10657 OM OM1 10657 -0.550000 15.99940
10658 OM 10658 OM OM1 10658 -0.550000 15.99940
10659 OM 10659 OM OM1 10659 -0.550000 15.99940
10660 OM 10660 OM OM1 10660 -0.550000 15.99940
10661 OM 10661 OM OM1 10661 -0.550000 15.99940
10662 OM 10662 OM OM1 10662 -0.550000 15.99940
10663 OM 10663 OM OM1 10663 -0.550000 15.99940
10664 OM 10664 OM OM1 10664 -0.550000 15.99940
10665 OM 10665 OM OM1 10665 -0.550000 15.99940
10666 OM 10666 OM OM1 10666 -0.550000 15.99940
10667 OM 10667 OM OM1 10667 -0.550000 15.99940
10668 OM 10668 OM OM1 10668 -0.550000 15.99940
10669 OM 10669 OM OM1 10669 -0.550000 15.99940
10670 OM 10670 OM OM1 10670 -0.550000 15.99940
10671 OM 10671 OM OM1 10671 -0.550000 15.99940
10672 OM 10672 OM OM1 10672 -0.550000 15.99940
10673 OM 10673 OM OM1 10673 -0.550000 15.99940
10674 OM 10674 OM OM1 10674 -0.550000 15.99940
10675 OM 10675 OM OM1 10675 -0.550000 15.99940
10676 OM 10676 OM OM1 10676 -0.550000 15.99940
10677 OM 10677 OM OM1 10677 -0.550000 15.99940
10678 OM 10678 OM OM1 10678 -0.550000 15.99940
10679 OM 10679 OM OM1 10679 -0.550000 15.99940
10680 OM 10680 OM OM1 10680 -0.550000 15.99940
10681 OM 10681 OM OM1 10681 -0.550000 15.99940
10682 OM 10682 OM OM1 10682 -0.550000 15.99940
10683 OM 10683 OM OM1 10683 -0.550000 15.99940
10684 OM 10684 OM OM1 10684 -0.550000 15.99940
10685 OM 10685 OM OM1 10685 -0.550000 15.99940
10686 OM 10686 OM OM1 10686 -0.550000 15.99940
10687 OM 10687 OM OM1 10687 -0.550000 15.99940
10688 OM 10688 OM OM1 10688 -0.550000 15.99940
10689 OM 10689 OM OM1 10689 -0.550000 15.99940
10690 OM 10690 OM OM1 10690 -0.550000 15.99940
10691 OM 10691 OM OM1 10691 -0.550000 15.99940
10692 OM 10692 OM OM1 10692 -0.550000 15.99940
10693 OM 10693 OM OM1 10693 -0.550000 15.99940
10694 OM 10694 OM OM1 10694 -0.550000 15.99940
10695 OM 10695 OM OM1 10695 -0.550000 15.99940
10696 OM 10696 OM OM1 10696 -0.550000 15.99940
10697 OM 10697 OM OM1 10697 -0.550000 15.99940
10698 OM 10698 OM OM1 10698 -0.550000 15.99940
10699 OM 10699 OM OM1 10699 -0.550000 15.99940
10700 OM 10700 OM OM1 10700 -0.550000 15.99940
10701 OM 10701 OM OM1 10701 -0.550000 15.99940
10702 OM 10702 OM OM1 10702 -0.550000 15.99940
10703 OM 10703 OM OM1 10703 -0.550000 15.99940
10704 OM 10704 OM OM1 10704 -0.550000 15.99940
10705 OM 10705 OM OM1 10705 -0.550000 15.99940
10706 OM 10706 OM OM1 10706 -0.550000 15.99940
10707 OM 10707 OM OM1 10707 -0.550000 15.99940
10708 OM 10708 OM OM1 10708 -0.550000 15.99940
10709 OM 10709 OM OM1 10709 -0.550000 15.99940
10710 OM 10710 OM OM1 10710 -0.550000 15.99940
10711 OM 10711 OM OM1 10711 -0.550000 15.99940
10712 OM 10712 OM OM1 10712 -0.550000 15.99940
10713 OM 10713 OM OM1 10713 -0.550000 15.99940
10714 OM 10714 OM OM1 10714 -0.550000 15.99940
10715 OM 10715 OM OM1 10715 -0.550000 15.99940
10716 OM 10716 OM OM1 10716 -0.550000 15.99940
10717 OM 10717 OM OM1 10717 -0.550000 15.99940
10718 OM 10718 OM OM1 10718 -0.550000 15.99940
10719 OM 10719 OM OM1 10719 -0.550000 15.99940
10720 OM 10720 OM OM1 10720 -0.550000 15.99940
10721 OM 10721 OM OM1 10721 -0.550000 15.99940
10722 OM 10722 OM OM1 10722 -0.550000 15.99940
10723 OM 10723 OM OM1 10723 -0.550000 15.99940
10724 OM 10724 OM OM1 10724 -0.550000 15.99940
10725 OM 10725 OM OM1 10725 -0.550000 15.99940
10726 OM 10726 OM OM1 10726 -0.550000 15.99940
10727 OM 10727 OM OM1 10727 -0.550000 15.99940
10728 OM 10728 OM OM1 10728 -0.550000 15.99940
10729 OM 10729 OM OM1 10729 -0.550000 15.99940
10730 OM 10730 OM OM1 10730 -0.550000 15.99940
10731 OM 10731 OM OM1 10731 -0.550000 15.99940
10732 OM 10732 OM OM1 10732 -0.550000 15.99940
10733 OM 10733 OM OM1 10733 -0.550000 15.99940
10734 OM 10734 OM OM1 10734 -0.550000 15.99940
10735 OM 10735 OM OM1 10735 -0.550000 15.99940
10736 OM 10736 OM OM1 10736 -0.550000 15.99940
10737 OM 10737 OM OM1 10737 -0.550000 15.99940
10738 OM 10738 OM OM1 10738 -0.550000 15.99940
10739 OM 10739 OM OM1 10739 -0.550000 15.99940
10740 OM 10740 OM OM1 10740 -0.550000 15.99940
10741 OM 10741 OM OM1 10741 -0.550000 15.99940
10742 OM 10742 OM OM1 10742 -0.550000 15.99940
10743 OM 10743 OM OM1 10743 -0.550000 15.99940
10744 OM 10744 OM OM1 10744 -0.550000 15.99940
10745 OM 10745 OM OM1 10745 -0.550000 15.99940
10746 OM 10746 OM OM1 10746 -0.550000 15.99940
10747 OM 10747 OM OM1 10747 -0.550000 15.99940
10748 OM 10748 OM OM1 10748 -0.550000 15.99940
10749 OM 10749 OM OM1 10749 -0.550000 15.99940
10750 OM 10750 OM OM1 10750 -0.550000 15.99940
10751 OM 10751 OM OM1 10751 -0.550000 15.99940
10752 OM 10752 OM OM1 10752 -0.550000 15.99940
10753 OM 10753 OM OM1 10753 -0.550000 15.99940
10754 OM 10754 OM OM1 10754 -0.550000 15.99940
10755 OM 10755 OM OM1 10755 -0.550000 15.99940
10756 OM 10756 OM OM1 10756 -0.550000 15.99940
10757 OM 10757 OM OM1 10757 -0.550000 15.99940
10758 OM 10758 OM OM1 10758 -0.550000 15.99940
10759 OM 10759 OM OM1 10759 -0.550000 15.99940
10760 OM 10760 OM OM1 10760 -0.550000 15.99940
10761 OM 10761 OM OM1 10761 -0.550000 15.99940
10762 OM 10762 OM OM1 10762 -0.550000 15.99940
10763 OM 10763 OM OM1 10763 -0.550000 15.99940
10764 OM 10764 OM OM1 10764 -0.550000 15.99940
10765 OM 10765 OM OM1 10765 -0.550000 15.99940
10766 OM 10766 OM OM1 10766 -0.550000 15.99940
10767 OM 10767 OM OM1 10767 -0.550000 15.99940
10768 OM 10768 OM OM1 10768 -0.550000 15.99940
10769 OM 10769 OM OM1 10769 -0.550000 15.99940
10770 OM 10770 OM OM1 10770 -0.550000 15.99940
10771 OM 10771 OM OM1 10771 -0.550000 15.99940
10772 OM 10772 OM OM1 10772 -0.550000 15.99940
10773 OM 10773 OM OM1 10773 -0.550000 15.99940
10774 OM 10774 OM OM1 10774 -0.550000 15.99940
10775 OM 10775 OM OM1 10775 -0.550000 15.99940
10776 OM 10776 OM OM1 10776 -0.550000 15.99940
10777 OM 10777 OM OM1 10777 -0.550000 15.99940
10778 OM 10778 OM OM1 10778 -0.550000 15.99940
10779 OM 10779 OM OM1 10779 -0.550000 15.99940
10780 OM 10780 OM OM1 10780 -0.550000 15.99940
10781 OM 10781 OM OM1 10781 -0.550000 15.99940
10782 OM 10782 OM OM1 10782 -0.550000 15.99940
10783 OM 10783 OM OM1 10783 -0.550000 15.99940
10784 OM 10784 OM OM1 10784 -0.550000 15.99940
10785 OM 10785 OM OM1 10785 -0.550000 15.99940
10786 OM 10786 OM OM1 10786 -0.550000 15.99940
10787 OM 10787 OM OM1 10787 -0.550000 15.99940
10788 OM 10788 OM OM1 10788 -0.550000 15.99940
10789 OM 10789 OM OM1 10789 -0.550000 15.99940
10790 OM 10790 OM OM1 10790 -0.550000 15.99940
10791 OM 10791 OM OM1 10791 -0.550000 15.99940
10792 OM 10792 OM OM1 10792 -0.550000 15.99940
10793 OM 10793 OM OM1 10793 -0.550000 15.99940
10794 OM 10794 OM OM1 10794 -0.550000 15.99940
10795 OM 10795 OM OM1 10795 -0.550000 15.99940
10796 OM 10796 OM OM1 10796 -0.550000 15.99940
10797 OM 10797 OM OM1 10797 -0.550000 15.99940
10798 OM 10798 OM OM1 10798 -0.550000 15.99940
10799 OM 10799 OM OM1 10799 -0.550000 15.99940
10800 OM 10800 OM OM1 10800 -0.550000 15.99940
10801 OM 10801 OM OM1 10801 -0.550000 15.99940
10802 OM 10802 OM OM1 10802 -0.550000 15.99940
10803 OM 10803 OM OM1 10803 -0.550000 15.99940
10804 OM 10804 OM OM1 10804 -0.550000 15.99940
10805 OM 10805 OM OM1 10805 -0.550000 15.99940
10806 OM 10806 OM OM1 10806 -0.550000 15.99940
10807 OM 10807 OM OM1 10807 -0.550000 15.99940
10808 OM 10808 OM OM1 10808 -0.550000 15.99940
10809 OM 10809 OM OM1 10809 -0.550000 15.99940
10810 OM 10810 OM OM1 10810 -0.550000 15.99940
10811 OM 10811 OM OM1 10811 -0.550000 15.99940
10812 OM 10812 OM OM1 10812 -0.550000 15.99940
10813 OM 10813 OM OM1 10813 -0.550000 15.99940
10814 OM 10814 OM OM1 10814 -0.550000 15.99940
10815 OM 10815 OM OM1 10815 -0.550000 15.99940
10816 OM 10816 OM OM1 10816 -0.550000 15.99940
10817 OM 10817 OM OM1 10817 -0.550000 15.99940
10818 OM 10818 OM OM1 10818 -0.550000 15.99940
10819 OM 10819 OM OM1 10819 -0.550000 15.99940
10820 OM 10820 OM OM1 10820 -0.550000 15.99940
10821 OM 10821 OM OM1 10821 -0.550000 15.99940
10822 OM 10822 OM OM1 10822 -0.550000 15.99940
10823 OM 10823 OM OM1 10823 -0.550000 15.99940
10824 OM 10824 OM OM1 10824 -0.550000 15.99940
10825 OM 10825 OM OM1 10825 -0.550000 15.99940
10826 OM 10826 OM OM1 10826 -0.550000 15.99940
10827 OM 10827 OM OM1 10827 -0.550000 15.99940
10828 OM 10828 OM OM1 10828 -0.550000 15.99940
10829 OM 10829 OM OM1 10829 -0.550000 15.99940
10830 OM 10830 OM OM1 10830 -0.550000 15.99940
10831 OM 10831 OM OM1 10831 -0.550000 15.99940
10832 OM 10832 OM OM1 10832 -0.550000 15.99940
10833 OM 10833 OM OM1 10833 -0.550000 15.99940
10834 OM 10834 OM OM1 10834 -0.550000 15.99940
10835 OM 10835 OM OM1 10835 -0.550000 15.99940
10836 OM 10836 OM OM1 10836 -0.550000 15.99940
10837 OM 10837 OM OM1 10837 -0.550000 15.99940
10838 OM 10838 OM OM1 10838 -0.550000 15.99940
10839 OM 10839 OM OM1 10839 -0.550000 15.99940
10840 OM 10840 OM OM1 10840 -0.550000 15.99940
10841 OM 10841 OM OM1 10841 -0.550000 15.99940
10842 OM 10842 OM OM1 10842 -0.550000 15.99940
10843 OM 10843 OM OM1 10843 -0.550000 15.99940
10844 OM 10844 OM OM1 10844 -0.550000 15.99940
10845 OM 10845 OM OM1 10845 -0.550000 15.99940
10846 OM 10846 OM OM1 10846 -0.550000 15.99940
10847 OM 10847 OM OM1 10847 -0.550000 15.99940
10848 OM 10848 OM OM1 10848 -0.550000 15.99940
10849 OM 10849 OM OM1 10849 -0.550000 15.99940
10850 OM 10850 OM OM1 10850 -0.550000 15.99940
10851 OM 10851 OM OM1 10851 -0.550000 15.99940
10852 OM 10852 OM OM1 10852 -0.550000 15.99940
10853 OM 10853 OM OM1 10853 -0.550000 15.99940
10854 OM 10854 OM OM1 10854 -0.550000 15.99940
10855 OM 10855 OM OM1 10855 -0.550000 15.99940
10856 OM 10856 OM OM1 10856 -0.550000 15.99940
10857 OM 10857 OM OM1 10857 -0.550000 15.99940
10858 OM 10858 OM OM1 10858 -0.550000 15.99940
10859 OM 10859 OM OM1 10859 -0.550000 15.99940
10860 OM 10860 OM OM1 10860 -0.550000 15.99940
10861 OM 10861 OM OM1 10861 -0.550000 15.99940
10862 OM 10862 OM OM1 10862 -0.550000 15.99940
10863 OM 10863 OM OM1 10863 -0.550000 15.99940
10864 OM 10864 OM OM1 10864 -0.550000 15.99940
10865 OM 10865 OM OM1 10865 -0.550000 15.99940
10866 OM 10866 OM OM1 10866 -0.550000 15.99940
10867 OM 10867 OM OM1 10867 -0.550000 15.99940
10868 OM 10868 OM OM1 10868 -0.550000 15.99940
10869 OM 10869 OM OM1 10869 -0.550000 15.99940
10870 OM 10870 OM OM1 10870 -0.550000 15.99940
10871 OM 10871 OM OM1 10871 -0.550000 15.99940
10872 OM 10872 OM OM1 10872 -0.550000 15.99940
10873 OM 10873 OM OM1 10873 -0.550000 15.99940
10874 OM 10874 OM OM1 10874 -0.550000 15.99940
10875 OM 10875 OM OM1 10875 -0.550000 15.99940
10876 OM 10876 OM OM1 10876 -0.550000 15.99940
10877 OM 10877 OM OM1 10877 -0.550000 15.99940
10878 OM 10878 OM OM1 10878 -0.550000 15.99940
10879 OM 10879 OM OM1 10879 -0.550000 15.99940
10880 OM 10880 OM OM1 10880 -0.550000 15.99940
10881 OM 10881 OM OM1 10881 -0.550000 15.99940
10882 OM 10882 OM OM1 10882 -0.550000 15.99940
10883 OM 10883 OM OM1 10883 -0.550000 15.99940
10884 OM 10884 OM OM1 10884 -0.550000 15.99940
10885 OM 10885 OM OM1 10885 -0.550000 15.99940
10886 OM 10886 OM OM1 10886 -0.550000 15.99940
10887 OM 10887 OM OM1 10887 -0.550000 15.99940
10888 OM 10888 OM OM1 10888 -0.550000 15.99940
10889 OM 10889 OM OM1 10889 -0.550000 15.99940
10890 OM 10890 OM OM1 10890 -0.550000 15.99940
10891 OM 10891 OM OM1 10891 -0.550000 15.99940
10892 OM 10892 OM OM1 10892 -0.550000 15.99940
10893 OM 10893 OM OM1 10893 -0.550000 15.99940
10894 OM 10894 OM OM1 10894 -0.550000 15.99940
10895 OM 10895 OM OM1 10895 -0.550000 15.99940
10896 OM 10896 OM OM1 10896 -0.550000 15.99940
10897 OM 10897 OM OM1 10897 -0.550000 15.99940
10898 OM 10898 OM OM1 10898 -0.550000 15.99940
10899 OM 10899 OM OM1 10899 -0.550000 15.99940
10900 OM 10900 OM OM1 10900 -0.550000 15.99940
10901 OM 10901 OM OM1 10901 -0.550000 15.99940
10902 OM 10902 OM OM1 10902 -0.550000 15.99940
10903 OM 10903 OM OM1 10903 -0.550000 15.99940
10904 OM 10904 OM OM1 10904 -0.550000 15.99940
10905 OM 10905 OM OM1 10905 -0.550000 15.99940
10906 OM 10906 OM OM1 10906 -0.550000 15.99940
10907 OM 10907 OM OM1 10907 -0.550000 15.99940
10908 OM 10908 OM OM1 10908 -0.550000 15.99940
10909 OM 10909 OM OM1 10909 -0.550000 15.99940
10910 OM 10910 OM OM1 10910 -0.550000 15.99940
10911 OM 10911 OM OM1 10911 -0.550000 15.99940
10912 OM 10912 OM OM1 10912 -0.550000 15.99940
10913 OM 10913 OM OM1 10913 -0.550000 15.99940
10914 OM 10914 OM OM1 10914 -0.550000 15.99940
10915 OM 10915 OM OM1 10915 -0.550000 15.99940
10916 OM 10916 OM OM1 10916 -0.550000 15.99940
10917 OM 10917 OM OM1 10917 -0.550000 15.99940
10918 OM 10918 OM OM1 10918 -0.550000 15.99940
10919 OM 10919 OM OM1 10919 -0.550000 15.99940
10920 OM 10920 OM OM1 10920 -0.550000 15.99940
10921 OM 10921 OM OM1 10921 -0.550000 15.99940
10922 OM 10922 OM OM1 10922 -0.550000 15.99940
10923 OM 10923 OM OM1 10923 -0.550000 15.99940
10924 OM 10924 OM OM1 10924 -0.550000 15.99940
10925 OM 10925 OM OM1 10925 -0.550000 15.99940
10926 OM 10926 OM OM1 10926 -0.550000 15.99940
10927 OM 10927 OM OM1 10927 -0.550000 15.99940
10928 OM 10928 OM OM1 10928 -0.550000 15.99940
10929 OM 10929 OM OM1 10929 -0.550000 15.99940
10930 OM 10930 OM OM1 10930 -0.550000 15.99940
10931 OM 10931 OM OM1 10931 -0.550000 15.99940
10932 OM 10932 OM OM1 10932 -0.550000 15.99940
10933 OM 10933 OM OM1 10933 -0.550000 15.99940
10934 OM 10934 OM OM1 10934 -0.550000 15.99940
10935 OM 10935 OM OM1 10935 -0.550000 15.99940
10936 OM 10936 OM OM1 10936 -0.550000 15.99940
10937 OM 10937 OM OM1 10937 -0.550000 15.99940
10938 OM 10938 OM OM1 10938 -0.550000 15.99940
10939 OM 10939 OM OM1 10939 -0.550000 15.99940
10940 OM 10940 OM OM1 10940 -0.550000 15.99940
10941 OM 10941 OM OM1 10941 -0.550000 15.99940
10942 OM 10942 OM OM1 10942 -0.550000 15.99940
10943 OM 10943 OM OM1 10943 -0.550000 15.99940
10944 OM 10944 OM OM1 10944 -0.550000 15.99940
10945 OM 10945 OM OM1 10945 -0.550000 15.99940
10946 OM 10946 OM OM1 10946 -0.550000 15.99940
10947 OM 10947 OM OM1 10947 -0.550000 15.99940
10948 OM 10948 OM OM1 10948 -0.550000 15.99940
10949 OM 10949 OM OM1 10949 -0.550000 15.99940
10950 OM 10950 OM OM1 10950 -0.550000 15.99940
10951 OM 10951 OM OM1 10951 -0.550000 15.99940
10952 OM 10952 OM OM1 10952 -0.550000 15.99940
10953 OM 10953 OM OM1 10953 -0.550000 15.99940
10954 OM 10954 OM OM1 10954 -0.550000 15.99940
10955 OM 10955 OM OM1 10955 -0.550000 15.99940
10956 OM 10956 OM OM1 10956 -0.550000 15.99940
10957 OM 10957 OM OM1 10957 -0.550000 15.99940
10958 OM 10958 OM OM1 10958 -0.550000 15.99940
10959 OM 10959 OM OM1 10959 -0.550000 15.99940
10960 OM 10960 OM OM1 10960 -0.550000 15.99940
10961 OM 10961 OM OM1 10961 -0.550000 15.99940
10962 OM 10962 OM OM1 10962 -0.550000 15.99940
10963 OM 10963 OM OM1 10963 -0.550000 15.99940
10964 OM 10964 OM OM1 10964 -0.550000 15.99940
10965 OM 10965 OM OM1 10965 -0.550000 15.99940
10966 OM 10966 OM OM1 10966 -0.550000 15.99940
10967 OM 10967 OM OM1 10967 -0.550000 15.99940
10968 OM 10968 OM OM1 10968 -0.550000 15.99940
10969 OM 10969 OM OM1 10969 -0.550000 15.99940
10970 OM 10970 OM OM1 10970 -0.550000 15.99940
10971 OM 10971 OM OM1 10971 -0.550000 15.99940
10972 OM 10972 OM OM1 10972 -0.550000 15.99940
10973 OM 10973 OM OM1 10973 -0.550000 15.99940
10974 OM 10974 OM OM1 10974 -0.550000 15.99940
10975 OM 10975 OM OM1 10975 -0.550000 15.99940
10976 OM 10976 OM OM1 10976 -0.550000 15.99940
10977 OM 10977 OM OM1 10977 -0.550000 15.99940
10978 OM 10978 OM OM1 10978 -0.550000 15.99940
10979 OM 10979 OM OM1 10979 -0.550000 15.99940
10980 OM 10980 OM OM1 10980 -0.550000 15.99940
10981 OM 10981 OM OM1 10981 -0.550000 15.99940
10982 OM 10982 OM OM1 10982 -0.550000 15.99940
10983 OM 10983 OM OM1 10983 -0.550000 15.99940
10984 OM 10984 OM OM1 10984 -0.550000 15.99940
10985 OM 10985 OM OM1 10985 -0.550000 15.99940
10986 OM 10986 OM OM1 10986 -0.550000 15.99940
10987 OM 10987 OM OM1 10987 -0.550000 15.99940
10988 OM 10988 OM OM1 10988 -0.550000 15.99940
10989 OM 10989 OM OM1 10989 -0.550000 15.99940
10990 OM 10990 OM OM1 10990 -0.550000 15.99940
10991 OM 10991 OM OM1 10991 -0.550000 15.99940
10992 OM 10992 OM OM1 10992 -0.550000 15.99940
10993 OM 10993 OM OM1 10993 -0.550000 15.99940
10994 OM 10994 OM OM1 10994 -0.550000 15.99940
10995 OM 10995 OM OM1 10995 -0.550000 15.99940
10996 OM 10996 OM OM1 10996 -0.550000 15.99940
10997 OM 10997 OM OM1 10997 -0.550000 15.99940
10998 OM 10998 OM OM1 10998 -0.550000 15.99940
10999 OM 10999 OM OM1 10999 -0.550000 15.99940
11000 OM 11000 OM OM1 11000 -0.550000 15.99940
11001 OM 11001 OM OM1 11001 -0.550000 15.99940
11002 OM 11002 OM OM1 11002 -0.550000 15.99940
11003 OM 11003 OM OM1 11003 -0.550000 15.99940
11004 OM 11004 OM OM1 11004 -0.550000 15.99940
11005 OM 11005 OM OM1 11005 -0.550000 15.99940
11006 OM 11006 OM OM1 11006 -0.550000 15.99940
11007 OM 11007 OM OM1 11007 -0.550000 15.99940
11008 OM 11008 OM OM1 11008 -0.550000 15.99940
11009 OM 11009 OM OM1 11009 -0.550000 15.99940
11010 OM 11010 OM OM1 11010 -0.550000 15.99940
11011 OM 11011 OM OM1 11011 -0.550000 15.99940
11012 OM 11012 OM OM1 11012 -0.550000 15.99940
11013 OM 11013 OM OM1 11013 -0.550000 15.99940
11014 OM 11014 OM OM1 11014 -0.550000 15.99940
11015 OM 11015 OM OM1 11015 -0.550000 15.99940
11016 OM 11016 OM OM1 11016 -0.550000 15.99940
11017 OM 11017 OM OM1 11017 -0.550000 15.99940
11018 OM 11018 OM OM1 11018 -0.550000 15.99940
11019 OM 11019 OM OM1 11019 -0.550000 15.99940
11020 OM 11020 OM OM1 11020 -0.550000 15.99940
11021 OM 11021 OM OM1 11021 -0.550000 15.99940
11022 OM 11022 OM OM1 11022 -0.550000 15.99940
11023 OM 11023 OM OM1 11023 -0.550000 15.99940
11024 OM 11024 OM OM1 11024 -0.550000 15.99940
11025 OM 11025 OM OM1 11025 -0.550000 15.99940
11026 OM 11026 OM OM1 11026 -0.550000 15.99940
11027 OM 11027 OM OM1 11027 -0.550000 15.99940
11028 OM 11028 OM OM1 11028 -0.550000 15.99940
11029 OM 11029 OM OM1 11029 -0.550000 15.99940
11030 OM 11030 OM OM1 11030 -0.550000 15.99940
11031 OM 11031 OM OM1 11031 -0.550000 15.99940
11032 OM 11032 OM OM1 11032 -0.550000 15.99940
11033 OM 11033 OM OM1 11033 -0.550000 15.99940
11034 OM 11034 OM OM1 11034 -0.550000 15.99940
11035 OM 11035 OM OM1 11035 -0.550000 15.99940
11036 OM 11036 OM OM1 11036 -0.550000 15.99940
11037 OM 11037 OM OM1 11037 -0.550000 15.99940
11038 OM 11038 OM OM1 11038 -0.550000 15.99940
11039 OM 11039 OM OM1 11039 -0.550000 15.99940
11040 OM 11040 OM OM1 11040 -0.550000 15.99940
11041 OM 11041 OM OM1 11041 -0.550000 15.99940
11042 OM 11042 OM OM1 11042 -0.550000 15.99940
11043 OM 11043 OM OM1 11043 -0.550000 15.99940
11044 OM 11044 OM OM1 11044 -0.550000 15.99940
11045 OM 11045 OM OM1 11045 -0.550000 15.99940
11046 OM 11046 OM OM1 11046 -0.550000 15.99940
11047 OM 11047 OM OM1 11047 -0.550000 15.99940
11048 OM 11048 OM OM1 11048 -0.550000 15.99940
11049 OM 11049 OM OM1 11049 -0.550000 15.99940
11050 OM 11050 OM OM1 11050 -0.550000 15.99940
11051 OM 11051 OM OM1 11051 -0.550000 15.99940
11052 OM 11052 OM OM1 11052 -0.550000 15.99940
11053 OM 11053 OM OM1 11053 -0.550000 15.99940
11054 OM 11054 OM OM1 11054 -0.550000 15.99940
11055 OM 11055 OM OM1 11055 -0.550000 15.99940
11056 OM 11056 OM OM1 11056 -0.550000 15.99940
11057 OM 11057 OM OM1 11057 -0.550000 15.99940
11058 OM 11058 OM OM1 11058 -0.550000 15.99940
11059 OM 11059 OM OM1 11059 -0.550000 15.99940
11060 OM 11060 OM OM1 11060 -0.550000 15.99940
11061 OM 11061 OM OM1 11061 -0.550000 15.99940
11062 OM 11062 OM OM1 11062 -0.550000 15.99940
11063 OM 11063 OM OM1 11063 -0.550000 15.99940
11064 OM 11064 OM OM1 11064 -0.550000 15.99940
11065 OM 11065 OM OM1 11065 -0.550000 15.99940
11066 OM 11066 OM OM1 11066 -0.550000 15.99940
11067 OM 11067 OM OM1 11067 -0.550000 15.99940
11068 OM 11068 OM OM1 11068 -0.550000 15.99940
11069 OM 11069 OM OM1 11069 -0.550000 15.99940
11070 OM 11070 OM OM1 11070 -0.550000 15.99940
11071 OM 11071 OM OM1 11071 -0.550000 15.99940
11072 OM 11072 OM OM1 11072 -0.550000 15.99940
11073 OM 11073 OM OM1 11073 -0.550000 15.99940
11074 OM 11074 OM OM1 11074 -0.550000 15.99940
11075 OM 11075 OM OM1 11075 -0.550000 15.99940
11076 OM 11076 OM OM1 11076 -0.550000 15.99940
11077 OM 11077 OM OM1 11077 -0.550000 15.99940
11078 OM 11078 OM OM1 11078 -0.550000 15.99940
11079 OM 11079 OM OM1 11079 -0.550000 15.99940
11080 OM 11080 OM OM1 11080 -0.550000 15.99940
11081 OM 11081 OM OM1 11081 -0.550000 15.99940
11082 OM 11082 OM OM1 11082 -0.550000 15.99940
11083 OM 11083 OM OM1 11083 -0.550000 15.99940
11084 OM 11084 OM OM1 11084 -0.550000 15.99940
11085 OM 11085 OM OM1 11085 -0.550000 15.99940
11086 OM 11086 OM OM1 11086 -0.550000 15.99940
11087 OM 11087 OM OM1 11087 -0.550000 15.99940
11088 OM 11088 OM OM1 11088 -0.550000 15.99940
11089 OM 11089 OM OM1 11089 -0.550000 15.99940
11090 OM 11090 OM OM1 11090 -0.550000 15.99940
11091 OM 11091 OM OM1 11091 -0.550000 15.99940
11092 OM 11092 OM OM1 11092 -0.550000 15.99940
11093 OM 11093 OM OM1 11093 -0.550000 15.99940
11094 OM 11094 OM OM1 11094 -0.550000 15.99940
11095 OM 11095 OM OM1 11095 -0.550000 15.99940
11096 OM 11096 OM OM1 11096 -0.550000 15.99940
11097 OM 11097 OM OM1 11097 -0.550000 15.99940
11098 OM 11098 OM OM1 11098 -0.550000 15.99940
11099 OM 11099 OM OM1 11099 -0.550000 15.99940
11100 OM 11100 OM OM1 11100 -0.550000 15.99940
11101 OM 11101 OM OM1 11101 -0.550000 15.99940
11102 OM 11102 OM OM1 11102 -0.550000 15.99940
11103 OM 11103 OM OM1 11103 -0.550000 15.99940
11104 OM 11104 OM OM1 11104 -0.550000 15.99940
11105 OM 11105 OM OM1 11105 -0.550000 15.99940
11106 OM 11106 OM OM1 11106 -0.550000 15.99940
11107 OM 11107 OM OM1 11107 -0.550000 15.99940
11108 OM 11108 OM OM1 11108 -0.550000 15.99940
11109 OM 11109 OM OM1 11109 -0.550000 15.99940
11110 OM 11110 OM OM1 11110 -0.550000 15.99940
11111 OM 11111 OM OM1 11111 -0.550000 15.99940
11112 OM 11112 OM OM1 11112 -0.550000 15.99940
11113 OM 11113 OM OM1 11113 -0.550000 15.99940
11114 OM 11114 OM OM1 11114 -0.550000 15.99940
11115 OM 11115 OM OM1 11115 -0.550000 15.99940
11116 OM 11116 OM OM1 11116 -0.550000 15.99940
11117 OM 11117 OM OM1 11117 -0.550000 15.99940
11118 OM 11118 OM OM1 11118 -0.550000 15.99940
11119 OM 11119 OM OM1 11119 -0.550000 15.99940
11120 OM 11120 OM OM1 11120 -0.550000 15.99940
11121 OM 11121 OM OM1 11121 -0.550000 15.99940
11122 OM 11122 OM OM1 11122 -0.550000 15.99940
11123 OM 11123 OM OM1 11123 -0.550000 15.99940
11124 OM 11124 OM OM1 11124 -0.550000 15.99940
11125 OM 11125 OM OM1 11125 -0.550000 15.99940
11126 OM 11126 OM OM1 11126 -0.550000 15.99940
11127 OM 11127 OM OM1 11127 -0.550000 15.99940
11128 OM 11128 OM OM1 11128 -0.550000 15.99940
11129 OM 11129 OM OM1 11129 -0.550000 15.99940
11130 OM 11130 OM OM1 11130 -0.550000 15.99940
11131 OM 11131 OM OM1 11131 -0.550000 15.99940
11132 OM 11132 OM OM1 11132 -0.550000 15.99940
11133 OM 11133 OM OM1 11133 -0.550000 15.99940
11134 OM 11134 OM OM1 11134 -0.550000 15.99940
11135 OM 11135 OM OM1 11135 -0.550000 15.99940
11136 OM 11136 OM OM1 11136 -0.550000 15.99940
11137 OM 11137 OM OM1 11137 -0.550000 15.99940
11138 OM 11138 OM OM1 11138 -0.550000 15.99940
11139 OM 11139 OM OM1 11139 -0.550000 15.99940
11140 OM 11140 OM OM1 11140 -0.550000 15.99940
11141 OM 11141 OM OM1 11141 -0.550000 15.99940
11142 OM 11142 OM OM1 11142 -0.550000 15.99940
11143 OM 11143 OM OM1 11143 -0.550000 15.99940
11144 OM 11144 OM OM1 11144 -0.550000 15.99940
11145 OM 11145 OM OM1 11145 -0.550000 15.99940
11146 OM 11146 OM OM1 11146 -0.550000 15.99940
11147 OM 11147 OM OM1 11147 -0.550000 15.99940
11148 OM 11148 OM OM1 11148 -0.550000 15.99940
11149 OM 11149 OM OM1 11149 -0.550000 15.99940
11150 OM 11150 OM OM1 11150 -0.550000 15.99940
11151 OM 11151 OM OM1 11151 -0.550000 15.99940
11152 OM 11152 OM OM1 11152 -0.550000 15.99940
11153 OM 11153 OM OM1 11153 -0.550000 15.99940
11154 OM 11154 OM OM1 11154 -0.550000 15.99940
11155 OM 11155 OM OM1 11155 -0.550000 15.99940
11156 OM 11156 OM OM1 11156 -0.550000 15.99940
11157 OM 11157 OM OM1 11157 -0.550000 15.99940
11158 OM 11158 OM OM1 11158 -0.550000 15.99940
11159 OM 11159 OM OM1 11159 -0.550000 15.99940
11160 OM 11160 OM OM1 11160 -0.550000 15.99940
11161 OM 11161 OM OM1 11161 -0.550000 15.99940
11162 OM 11162 OM OM1 11162 -0.550000 15.99940
11163 OM 11163 OM OM1 11163 -0.550000 15.99940
11164 OM 11164 OM OM1 11164 -0.550000 15.99940
11165 OM 11165 OM OM1 11165 -0.550000 15.99940
11166 OM 11166 OM OM1 11166 -0.550000 15.99940
11167 OM 11167 OM OM1 11167 -0.550000 15.99940
11168 OM 11168 OM OM1 11168 -0.550000 15.99940
11169 OM 11169 OM OM1 11169 -0.550000 15.99940
11170 OM 11170 OM OM1 11170 -0.550000 15.99940
11171 OM 11171 OM OM1 11171 -0.550000 15.99940
11172 OM 11172 OM OM1 11172 -0.550000 15.99940
11173 OM 11173 OM OM1 11173 -0.550000 15.99940
11174 OM 11174 OM OM1 11174 -0.550000 15.99940
11175 OM 11175 OM OM1 11175 -0.550000 15.99940
11176 OM 11176 OM OM1 11176 -0.550000 15.99940
11177 OM 11177 OM OM1 11177 -0.550000 15.99940
11178 OM 11178 OM OM1 11178 -0.550000 15.99940
11179 OM 11179 OM OM1 11179 -0.550000 15.99940
11180 OM 11180 OM OM1 11180 -0.550000 15.99940
11181 OM 11181 OM OM1 11181 -0.550000 15.99940
11182 OM 11182 OM OM1 11182 -0.550000 15.99940
11183 OM 11183 OM OM1 11183 -0.550000 15.99940
11184 OM 11184 OM OM1 11184 -0.550000 15.99940
11185 OM 11185 OM OM1 11185 -0.550000 15.99940
11186 OM 11186 OM OM1 11186 -0.550000 15.99940
11187 OM 11187 OM OM1 11187 -0.550000 15.99940
11188 OM 11188 OM OM1 11188 -0.550000 15.99940
11189 OM 11189 OM OM1 11189 -0.550000 15.99940
11190 OM 11190 OM OM1 11190 -0.550000 15.99940
11191 OM 11191 OM OM1 11191 -0.550000 15.99940
11192 OM 11192 OM OM1 11192 -0.550000 15.99940
11193 OM 11193 OM OM1 11193 -0.550000 15.99940
11194 OM 11194 OM OM1 11194 -0.550000 15.99940
11195 OM 11195 OM OM1 11195 -0.550000 15.99940
11196 OM 11196 OM OM1 11196 -0.550000 15.99940
11197 OM 11197 OM OM1 11197 -0.550000 15.99940
11198 OM 11198 OM OM1 11198 -0.550000 15.99940
11199 OM 11199 OM OM1 11199 -0.550000 15.99940
11200 OM 11200 OM OM1 11200 -0.550000 15.99940
11201 OM 11201 OM OM1 11201 -0.550000 15.99940
11202 OM 11202 OM OM1 11202 -0.550000 15.99940
11203 OM 11203 OM OM1 11203 -0.550000 15.99940
11204 OM 11204 OM OM1 11204 -0.550000 15.99940
11205 OM 11205 OM OM1 11205 -0.550000 15.99940
11206 OM 11206 OM OM1 11206 -0.550000 15.99940
11207 OM 11207 OM OM1 11207 -0.550000 15.99940
11208 OM 11208 OM OM1 11208 -0.550000 15.99940
11209 OM 11209 OM OM1 11209 -0.550000 15.99940
11210 OM 11210 OM OM1 11210 -0.550000 15.99940
11211 OM 11211 OM OM1 11211 -0.550000 15.99940
11212 OM 11212 OM OM1 11212 -0.550000 15.99940
11213 OM 11213 OM OM1 11213 -0.550000 15.99940
11214 OM 11214 OM OM1 11214 -0.550000 15.99940
11215 OM 11215 OM OM1 11215 -0.550000 15.99940
11216 OM 11216 OM OM1 11216 -0.550000 15.99940
11217 OM 11217 OM OM1 11217 -0.550000 15.99940
11218 OM 11218 OM OM1 11218 -0.550000 15.99940
11219 OM 11219 OM OM1 11219 -0.550000 15.99940
11220 OM 11220 OM OM1 11220 -0.550000 15.99940
11221 OM 11221 OM OM1 11221 -0.550000 15.99940
11222 OM 11222 OM OM1 11222 -0.550000 15.99940
11223 OM 11223 OM OM1 11223 -0.550000 15.99940
11224 OM 11224 OM OM1 11224 -0.550000 15.99940
11225 OM 11225 OM OM1 11225 -0.550000 15.99940
11226 OM 11226 OM OM1 11226 -0.550000 15.99940
11227 OM 11227 OM OM1 11227 -0.550000 15.99940
11228 OM 11228 OM OM1 11228 -0.550000 15.99940
11229 OM 11229 OM OM1 11229 -0.550000 15.99940
11230 OM 11230 OM OM1 11230 -0.550000 15.99940
11231 OM 11231 OM OM1 11231 -0.550000 15.99940
11232 OM 11232 OM OM1 11232 -0.550000 15.99940
11233 OM 11233 OM OM1 11233 -0.550000 15.99940
11234 OM 11234 OM OM1 11234 -0.550000 15.99940
11235 OM 11235 OM OM1 11235 -0.550000 15.99940
11236 OM 11236 OM OM1 11236 -0.550000 15.99940
11237 OM 11237 OM OM1 11237 -0.550000 15.99940
11238 OM 11238 OM OM1 11238 -0.550000 15.99940
11239 OM 11239 OM OM1 11239 -0.550000 15.99940
11240 OM 11240 OM OM1 11240 -0.550000 15.99940
11241 OM 11241 OM OM1 11241 -0.550000 15.99940
11242 OM 11242 OM OM1 11242 -0.550000 15.99940
11243 OM 11243 OM OM1 11243 -0.550000 15.99940
11244 OM 11244 OM OM1 11244 -0.550000 15.99940
11245 OM 11245 OM OM1 11245 -0.550000 15.99940
11246 OM 11246 OM OM1 11246 -0.550000 15.99940
11247 OM 11247 OM OM1 11247 -0.550000 15.99940
11248 OM 11248 OM OM1 11248 -0.550000 15.99940
11249 OM 11249 OM OM1 11249 -0.550000 15.99940
11250 OM 11250 OM OM1 11250 -0.550000 15.99940
11251 OM 11251 OM OM1 11251 -0.550000 15.99940
11252 OM 11252 OM OM1 11252 -0.550000 15.99940
11253 OM 11253 OM OM1 11253 -0.550000 15.99940
11254 OM 11254 OM OM1 11254 -0.550000 15.99940
11255 OM 11255 OM OM1 11255 -0.550000 15.99940
11256 OM 11256 OM OM1 11256 -0.550000 15.99940
11257 OM 11257 OM OM1 11257 -0.550000 15.99940
11258 OM 11258 OM OM1 11258 -0.550000 15.99940
11259 OM 11259 OM OM1 11259 -0.550000 15.99940
11260 OM 11260 OM OM1 11260 -0.550000 15.99940
11261 OM 11261 OM OM1 11261 -0.550000 15.99940
11262 OM 11262 OM OM1 11262 -0.550000 15.99940
11263 OM 11263 OM OM1 11263 -0.550000 15.99940
11264 OM 11264 OM OM1 11264 -0.550000 15.99940
11265 OM 11265 OM OM1 11265 -0.550000 15.99940
11266 OM 11266 OM OM1 11266 -0.550000 15.99940
11267 OM 11267 OM OM1 11267 -0.550000 15.99940
11268 OM 11268 OM OM1 11268 -0.550000 15.99940
11269 OM 11269 OM OM1 11269 -0.550000 15.99940
11270 OM 11270 OM OM1 11270 -0.550000 15.99940
11271 OM 11271 OM OM1 11271 -0.550000 15.99940
11272 OM 11272 OM OM1 11272 -0.550000 15.99940
11273 OM 11273 OM OM1 11273 -0.550000 15.99940
11274 OM 11274 OM OM1 11274 -0.550000 15.99940
11275 OM 11275 OM OM1 11275 -0.550000 15.99940
11276 OM 11276 OM OM1 11276 -0.550000 15.99940
11277 OM 11277 OM OM1 11277 -0.550000 15.99940
11278 OM 11278 OM OM1 11278 -0.550000 15.99940
11279 OM 11279 OM OM1 11279 -0.550000 15.99940
11280 OM 11280 OM OM1 11280 -0.550000 15.99940
11281 OM 11281 OM OM1 11281 -0.550000 15.99940
11282 OM 11282 OM OM1 11282 -0.550000 15.99940
11283 OM 11283 OM OM1 11283 -0.550000 15.99940
11284 OM 11284 OM OM1 11284 -0.550000 15.99940
11285 OM 11285 OM OM1 11285 -0.550000 15.99940
11286 OM 11286 OM OM1 11286 -0.550000 15.99940
11287 OM 11287 OM OM1 11287 -0.550000 15.99940
11288 OM 11288 OM OM1 11288 -0.550000 15.99940
11289 OM 11289 OM OM1 11289 -0.550000 15.99940
11290 OM 11290 OM OM1 11290 -0.550000 15.99940
11291 OM 11291 OM OM1 11291 -0.550000 15.99940
11292 OM 11292 OM OM1 11292 -0.550000 15.99940
11293 OM 11293 OM OM1 11293 -0.550000 15.99940
11294 OM 11294 OM OM1 11294 -0.550000 15.99940
11295 OM 11295 OM OM1 11295 -0.550000 15.99940
11296 OM 11296 OM OM1 11296 -0.550000 15.99940
11297 OM 11297 OM OM1 11297 -0.550000 15.99940
11298 OM 11298 OM OM1 11298 -0.550000 15.99940
11299 OM 11299 OM OM1 11299 -0.550000 15.99940
11300 OM 11300 OM OM1 11300 -0.550000 15.99940
11301 OM 11301 OM OM1 11301 -0.550000 15.99940
11302 OM 11302 OM OM1 11302 -0.550000 15.99940
11303 OM 11303 OM OM1 11303 -0.550000 15.99940
11304 OM 11304 OM OM1 11304 -0.550000 15.99940
11305 OM 11305 OM OM1 11305 -0.550000 15.99940
11306 OM 11306 OM OM1 11306 -0.550000 15.99940
11307 OM 11307 OM OM1 11307 -0.550000 15.99940
11308 OM 11308 OM OM1 11308 -0.550000 15.99940
11309 OM 11309 OM OM1 11309 -0.550000 15.99940
11310 OM 11310 OM OM1 11310 -0.550000 15.99940
11311 OM 11311 OM OM1 11311 -0.550000 15.99940
11312 OM 11312 OM OM1 11312 -0.550000 15.99940
11313 OM 11313 OM OM1 11313 -0.550000 15.99940
11314 OM 11314 OM OM1 11314 -0.550000 15.99940
11315 OM 11315 OM OM1 11315 -0.550000 15.99940
11316 OM 11316 OM OM1 11316 -0.550000 15.99940
11317 OM 11317 OM OM1 11317 -0.550000 15.99940
11318 OM 11318 OM OM1 11318 -0.550000 15.99940
11319 OM 11319 OM OM1 11319 -0.550000 15.99940
11320 OM 11320 OM OM1 11320 -0.550000 15.99940
11321 OM 11321 OM OM1 11321 -0.550000 15.99940
11322 OM 11322 OM OM1 11322 -0.550000 15.99940
11323 OM 11323 OM OM1 11323 -0.550000 15.99940
11324 OM 11324 OM OM1 11324 -0.550000 15.99940
11325 OM 11325 OM OM1 11325 -0.550000 15.99940
11326 OM 11326 OM OM1 11326 -0.550000 15.99940
11327 OM 11327 OM OM1 11327 -0.550000 15.99940
11328 OM 11328 OM OM1 11328 -0.550000 15.99940
11329 OM 11329 OM OM1 11329 -0.550000 15.99940
11330 OM 11330 OM OM1 11330 -0.550000 15.99940
11331 OM 11331 OM OM1 11331 -0.550000 15.99940
11332 OM 11332 OM OM1 11332 -0.550000 15.99940
11333 OM 11333 OM OM1 11333 -0.550000 15.99940
11334 OM 11334 OM OM1 11334 -0.550000 15.99940
11335 OM 11335 OM OM1 11335 -0.550000 15.99940
11336 OM 11336 OM OM1 11336 -0.550000 15.99940
11337 OM 11337 OM OM1 11337 -0.550000 15.99940
11338 OM 11338 OM OM1 11338 -0.550000 15.99940
11339 OM 11339 OM OM1 11339 -0.550000 15.99940
11340 OM 11340 OM OM1 11340 -0.550000 15.99940
11341 OM 11341 OM OM1 11341 -0.550000 15.99940
11342 OM 11342 OM OM1 11342 -0.550000 15.99940
11343 OM 11343 OM OM1 11343 -0.550000 15.99940
11344 OM 11344 OM OM1 11344 -0.550000 15.99940
11345 OM 11345 OM OM1 11345 -0.550000 15.99940
11346 OM 11346 OM OM1 11346 -0.550000 15.99940
11347 OM 11347 OM OM1 11347 -0.550000 15.99940
11348 OM 11348 OM OM1 11348 -0.550000 15.99940
11349 OM 11349 OM OM1 11349 -0.550000 15.99940
11350 OM 11350 OM OM1 11350 -0.550000 15.99940
11351 OM 11351 OM OM1 11351 -0.550000 15.99940
11352 OM 11352 OM OM1 11352 -0.550000 15.99940
11353 OM 11353 OM OM1 11353 -0.550000 15.99940
11354 OM 11354 OM OM1 11354 -0.550000 15.99940
11355 OM 11355 OM OM1 11355 -0.550000 15.99940
11356 OM 11356 OM OM1 11356 -0.550000 15.99940
11357 OM 11357 OM OM1 11357 -0.550000 15.99940
11358 OM 11358 OM OM1 11358 -0.550000 15.99940
11359 OM 11359 OM OM1 11359 -0.550000 15.99940
11360 OM 11360 OM OM1 11360 -0.550000 15.99940
11361 OM 11361 OM OM1 11361 -0.550000 15.99940
11362 OM 11362 OM OM1 11362 -0.550000 15.99940
11363 OM 11363 OM OM1 11363 -0.550000 15.99940
11364 OM 11364 OM OM1 11364 -0.550000 15.99940
11365 OM 11365 OM OM1 11365 -0.550000 15.99940
11366 OM 11366 OM OM1 11366 -0.550000 15.99940
11367 OM 11367 OM OM1 11367 -0.550000 15.99940
11368 OM 11368 OM OM1 11368 -0.550000 15.99940
11369 OM 11369 OM OM1 11369 -0.550000 15.99940
11370 OM 11370 OM OM1 11370 -0.550000 15.99940
11371 OM 11371 OM OM1 11371 -0.550000 15.99940
11372 OM 11372 OM OM1 11372 -0.550000 15.99940
11373 OM 11373 OM OM1 11373 -0.550000 15.99940
11374 OM 11374 OM OM1 11374 -0.550000 15.99940
11375 OM 11375 OM OM1 11375 -0.550000 15.99940
11376 OM 11376 OM OM1 11376 -0.550000 15.99940
11377 OM 11377 OM OM1 11377 -0.550000 15.99940
11378 OM 11378 OM OM1 11378 -0.550000 15.99940
11379 OM 11379 OM OM1 11379 -0.550000 15.99940
11380 OM 11380 OM OM1 11380 -0.550000 15.99940
11381 OM 11381 OM OM1 11381 -0.550000 15.99940
11382 OM 11382 OM OM1 11382 -0.550000 15.99940
11383 OM 11383 OM OM1 11383 -0.550000 15.99940
11384 OM 11384 OM OM1 11384 -0.550000 15.99940
11385 OM 11385 OM OM1 11385 -0.550000 15.99940
11386 OM 11386 OM OM1 11386 -0.550000 15.99940
11387 OM 11387 OM OM1 11387 -0.550000 15.99940
11388 OM 11388 OM OM1 11388 -0.550000 15.99940
11389 OM 11389 OM OM1 11389 -0.550000 15.99940
11390 OM 11390 OM OM1 11390 -0.550000 15.99940
11391 OM 11391 OM OM1 11391 -0.550000 15.99940
11392 OM 11392 OM OM1 11392 -0.550000 15.99940
11393 OM 11393 OM OM1 11393 -0.550000 15.99940
11394 OM 11394 OM OM1 11394 -0.550000 15.99940
11395 OM 11395 OM OM1 11395 -0.550000 15.99940
11396 OM 11396 OM OM1 11396 -0.550000 15.99940
11397 OM 11397 OM OM1 11397 -0.550000 15.99940
11398 OM 11398 OM OM1 11398 -0.550000 15.99940
11399 OM 11399 OM OM1 11399 -0.550000 15.99940
11400 OM 11400 OM OM1 11400 -0.550000 15.99940
11401 OM 11401 OM OM1 11401 -0.550000 15.99940
11402 OM 11402 OM OM1 11402 -0.550000 15.99940
11403 OM 11403 OM OM1 11403 -0.550000 15.99940
11404 OM 11404 OM OM1 11404 -0.550000 15.99940
11405 OM 11405 OM OM1 11405 -0.550000 15.99940
11406 OM 11406 OM OM1 11406 -0.550000 15.99940
11407 OM 11407 OM OM1 11407 -0.550000 15.99940
11408 OM 11408 OM OM1 11408 -0.550000 15.99940
11409 OM 11409 OM OM1 11409 -0.550000 15.99940
11410 OM 11410 OM OM1 11410 -0.550000 15.99940
11411 OM 11411 OM OM1 11411 -0.550000 15.99940
11412 OM 11412 OM OM1 11412 -0.550000 15.99940
11413 OM 11413 OM OM1 11413 -0.550000 15.99940
11414 OM 11414 OM OM1 11414 -0.550000 15.99940
11415 OM 11415 OM OM1 11415 -0.550000 15.99940
11416 OM 11416 OM OM1 11416 -0.550000 15.99940
11417 OM 11417 OM OM1 11417 -0.550000 15.99940
11418 OM 11418 OM OM1 11418 -0.550000 15.99940
11419 OM 11419 OM OM1 11419 -0.550000 15.99940
11420 OM 11420 OM OM1 11420 -0.550000 15.99940
11421 OM 11421 OM OM1 11421 -0.550000 15.99940
11422 OM 11422 OM OM1 11422 -0.550000 15.99940
11423 OM 11423 OM OM1 11423 -0.550000 15.99940
11424 OM 11424 OM OM1 11424 -0.550000 15.99940
11425 OM 11425 OM OM1 11425 -0.550000 15.99940
11426 OM 11426 OM OM1 11426 -0.550000 15.99940
11427 OM 11427 OM OM1 11427 -0.550000 15.99940
11428 OM 11428 OM OM1 11428 -0.550000 15.99940
11429 OM 11429 OM OM1 11429 -0.550000 15.99940
11430 OM 11430 OM OM1 11430 -0.550000 15.99940
11431 OM 11431 OM OM1 11431 -0.550000 15.99940
11432 OM 11432 OM OM1 11432 -0.550000 15.99940
11433 OM 11433 OM OM1 11433 -0.550000 15.99940
11434 OM 11434 OM OM1 11434 -0.550000 15.99940
11435 OM 11435 OM OM1 11435 -0.550000 15.99940
11436 OM 11436 OM OM1 11436 -0.550000 15.99940
11437 OM 11437 OM OM1 11437 -0.550000 15.99940
11438 OM 11438 OM OM1 11438 -0.550000 15.99940
11439 OM 11439 OM OM1 11439 -0.550000 15.99940
11440 OM 11440 OM OM1 11440 -0.550000 15.99940
11441 OM 11441 OM OM1 11441 -0.550000 15.99940
11442 OM 11442 OM OM1 11442 -0.550000 15.99940
11443 OM 11443 OM OM1 11443 -0.550000 15.99940
11444 OM 11444 OM OM1 11444 -0.550000 15.99940
11445 OM 11445 OM OM1 11445 -0.550000 15.99940
11446 OM 11446 OM OM1 11446 -0.550000 15.99940
11447 OM 11447 OM OM1 11447 -0.550000 15.99940
11448 OM 11448 OM OM1 11448 -0.550000 15.99940
11449 OM 11449 OM OM1 11449 -0.550000 15.99940
11450 OM 11450 OM OM1 11450 -0.550000 15.99940
11451 OM 11451 OM OM1 11451 -0.550000 15.99940
11452 OM 11452 OM OM1 11452 -0.550000 15.99940
11453 OM 11453 OM OM1 11453 -0.550000 15.99940
11454 OM 11454 OM OM1 11454 -0.550000 15.99940
11455 OM 11455 OM OM1 11455 -0.550000 15.99940
11456 OM 11456 OM OM1 11456 -0.550000 15.99940
11457 OM 11457 OM OM1 11457 -0.550000 15.99940
11458 OM 11458 OM OM1 11458 -0.550000 15.99940
11459 OM 11459 OM OM1 11459 -0.550000 15.99940
11460 OM 11460 OM OM1 11460 -0.550000 15.99940
11461 OM 11461 OM OM1 11461 -0.550000 15.99940
11462 OM 11462 OM OM1 11462 -0.550000 15.99940
11463 OM 11463 OM OM1 11463 -0.550000 15.99940
11464 OM 11464 OM OM1 11464 -0.550000 15.99940
11465 OM 11465 OM OM1 11465 -0.550000 15.99940
11466 OM 11466 OM OM1 11466 -0.550000 15.99940
11467 OM 11467 OM OM1 11467 -0.550000 15.99940
11468 OM 11468 OM OM1 11468 -0.550000 15.99940
11469 OM 11469 OM OM1 11469 -0.550000 15.99940
11470 OM 11470 OM OM1 11470 -0.550000 15.99940
11471 OM 11471 OM OM1 11471 -0.550000 15.99940
11472 OM 11472 OM OM1 11472 -0.550000 15.99940
11473 OM 11473 OM OM1 11473 -0.550000 15.99940
11474 OM 11474 OM OM1 11474 -0.550000 15.99940
11475 OM 11475 OM OM1 11475 -0.550000 15.99940
11476 OM 11476 OM OM1 11476 -0.550000 15.99940
11477 OM 11477 OM OM1 11477 -0.550000 15.99940
11478 OM 11478 OM OM1 11478 -0.550000 15.99940
11479 OM 11479 OM OM1 11479 -0.550000 15.99940
11480 OM 11480 OM OM1 11480 -0.550000 15.99940
11481 OM 11481 OM OM1 11481 -0.550000 15.99940
11482 OM 11482 OM OM1 11482 -0.550000 15.99940
11483 OM 11483 OM OM1 11483 -0.550000 15.99940
11484 OM 11484 OM OM1 11484 -0.550000 15.99940
11485 OM 11485 OM OM1 11485 -0.550000 15.99940
11486 OM 11486 OM OM1 11486 -0.550000 15.99940
11487 OM 11487 OM OM1 11487 -0.550000 15.99940
11488 OM 11488 OM OM1 11488 -0.550000 15.99940
11489 OM 11489 OM OM1 11489 -0.550000 15.99940
11490 OM 11490 OM OM1 11490 -0.550000 15.99940
11491 OM 11491 OM OM1 11491 -0.550000 15.99940
11492 OM 11492 OM OM1 11492 -0.550000 15.99940
11493 OM 11493 OM OM1 11493 -0.550000 15.99940
11494 OM 11494 OM OM1 11494 -0.550000 15.99940
11495 OM 11495 OM OM1 11495 -0.550000 15.99940
11496 OM 11496 OM OM1 11496 -0.550000 15.99940
11497 OM 11497 OM OM1 11497 -0.550000 15.99940
11498 OM 11498 OM OM1 11498 -0.550000 15.99940
11499 OM 11499 OM OM1 11499 -0.550000 15.99940
11500 OM 11500 OM OM1 11500 -0.550000 15.99940
11501 OM 11501 OM OM1 11501 -0.550000 15.99940
11502 OM 11502 OM OM1 11502 -0.550000 15.99940
11503 OM 11503 OM OM1 11503 -0.550000 15.99940
11504 OM 11504 OM OM1 11504 -0.550000 15.99940
11505 OM 11505 OM OM1 11505 -0.550000 15.99940
11506 OM 11506 OM OM1 11506 -0.550000 15.99940
11507 OM 11507 OM OM1 11507 -0.550000 15.99940
11508 OM 11508 OM OM1 11508 -0.550000 15.99940
11509 OM 11509 OM OM1 11509 -0.550000 15.99940
11510 OM 11510 OM OM1 11510 -0.550000 15.99940
11511 OM 11511 OM OM1 11511 -0.550000 15.99940
11512 OM 11512 OM OM1 11512 -0.550000 15.99940
11513 OM 11513 OM OM1 11513 -0.550000 15.99940
11514 OM 11514 OM OM1 11514 -0.550000 15.99940
11515 OM 11515 OM OM1 11515 -0.550000 15.99940
11516 OM 11516 OM OM1 11516 -0.550000 15.99940
11517 OM 11517 OM OM1 11517 -0.550000 15.99940
11518 OM 11518 OM OM1 11518 -0.550000 15.99940
11519 OM 11519 OM OM1 11519 -0.550000 15.99940
11520 OM 11520 OM OM1 11520 -0.550000 15.99940
11521 OM 11521 OM OM1 11521 -0.550000 15.99940
11522 OM 11522 OM OM1 11522 -0.550000 15.99940
11523 OM 11523 OM OM1 11523 -0.550000 15.99940
11524 OM 11524 OM OM1 11524 -0.550000 15.99940
11525 OM 11525 OM OM1 11525 -0.550000 15.99940
11526 OM 11526 OM OM1 11526 -0.550000 15.99940
11527 OM 11527 OM OM1 11527 -0.550000 15.99940
11528 OM 11528 OM OM1 11528 -0.550000 15.99940
11529 OM 11529 OM OM1 11529 -0.550000 15.99940
11530 OM 11530 OM OM1 11530 -0.550000 15.99940
11531 OM 11531 OM OM1 11531 -0.550000 15.99940
11532 OM 11532 OM OM1 11532 -0.550000 15.99940
11533 OM 11533 OM OM1 11533 -0.550000 15.99940
11534 OM 11534 OM OM1 11534 -0.550000 15.99940
11535 OM 11535 OM OM1 11535 -0.550000 15.99940
11536 OM 11536 OM OM1 11536 -0.550000 15.99940
11537 OM 11537 OM OM1 11537 -0.550000 15.99940
11538 OM 11538 OM OM1 11538 -0.550000 15.99940
11539 OM 11539 OM OM1 11539 -0.550000 15.99940
11540 OM 11540 OM OM1 11540 -0.550000 15.99940
11541 OM 11541 OM OM1 11541 -0.550000 15.99940
11542 OM 11542 OM OM1 11542 -0.550000 15.99940
11543 OM 11543 OM OM1 11543 -0.550000 15.99940
11544 OM 11544 OM OM1 11544 -0.550000 15.99940
11545 OM 11545 OM OM1 11545 -0.550000 15.99940
11546 OM 11546 OM OM1 11546 -0.550000 15.99940
11547 OM 11547 OM OM1 11547 -0.550000 15.99940
11548 OM 11548 OM OM1 11548 -0.550000 15.99940
11549 OM 11549 OM OM1 11549 -0.550000 15.99940
11550 OM 11550 OM OM1 11550 -0.550000 15.99940
11551 OM 11551 OM OM1 11551 -0.550000 15.99940
11552 OM 11552 OM OM1 11552 -0.550000 15.99940
11553 OM 11553 OM OM1 11553 -0.550000 15.99940
11554 OM 11554 OM OM1 11554 -0.550000 15.99940
11555 OM 11555 OM OM1 11555 -0.550000 15.99940
11556 OM 11556 OM OM1 11556 -0.550000 15.99940
11557 OM 11557 OM OM1 11557 -0.550000 15.99940
11558 OM 11558 OM OM1 11558 -0.550000 15.99940
11559 OM 11559 OM OM1 11559 -0.550000 15.99940
11560 OM 11560 OM OM1 11560 -0.550000 15.99940
11561 OM 11561 OM OM1 11561 -0.550000 15.99940
11562 OM 11562 OM OM1 11562 -0.550000 15.99940
11563 OM 11563 OM OM1 11563 -0.550000 15.99940
11564 OM 11564 OM OM1 11564 -0.550000 15.99940
11565 OM 11565 OM OM1 11565 -0.550000 15.99940
11566 OM 11566 OM OM1 11566 -0.550000 15.99940
11567 OM 11567 OM OM1 11567 -0.550000 15.99940
11568 OM 11568 OM OM1 11568 -0.550000 15.99940
11569 OM 11569 OM OM1 11569 -0.550000 15.99940
11570 OM 11570 OM OM1 11570 -0.550000 15.99940
11571 OM 11571 OM OM1 11571 -0.550000 15.99940
11572 OM 11572 OM OM1 11572 -0.550000 15.99940
11573 OM 11573 OM OM1 11573 -0.550000 15.99940
11574 OM 11574 OM OM1 11574 -0.550000 15.99940
11575 OM 11575 OM OM1 11575 -0.550000 15.99940
11576 OM 11576 OM OM1 11576 -0.550000 15.99940
11577 OM 11577 OM OM1 11577 -0.550000 15.99940
11578 OM 11578 OM OM1 11578 -0.550000 15.99940
11579 OM 11579 OM OM1 11579 -0.550000 15.99940
11580 OM 11580 OM OM1 11580 -0.550000 15.99940
11581 OM 11581 OM OM1 11581 -0.550000 15.99940
11582 OM 11582 OM OM1 11582 -0.550000 15.99940
11583 OM 11583 OM OM1 11583 -0.550000 15.99940
11584 OM 11584 OM OM1 11584 -0.550000 15.99940
11585 OM 11585 OM OM1 11585 -0.550000 15.99940
11586 OM 11586 OM OM1 11586 -0.550000 15.99940
11587 OM 11587 OM OM1 11587 -0.550000 15.99940
11588 OM 11588 OM OM1 11588 -0.550000 15.99940
11589 OM 11589 OM OM1 11589 -0.550000 15.99940
11590 OM 11590 OM OM1 11590 -0.550000 15.99940
11591 OM 11591 OM OM1 11591 -0.550000 15.99940
11592 OM 11592 OM OM1 11592 -0.550000 15.99940
11593 OM 11593 OM OM1 11593 -0.550000 15.99940
11594 OM 11594 OM OM1 11594 -0.550000 15.99940
11595 OM 11595 OM OM1 11595 -0.550000 15.99940
11596 OM 11596 OM OM1 11596 -0.550000 15.99940
11597 OM 11597 OM OM1 11597 -0.550000 15.99940
11598 OM 11598 OM OM1 11598 -0.550000 15.99940
11599 OM 11599 OM OM1 11599 -0.550000 15.99940
11600 OM 11600 OM OM1 11600 -0.550000 15.99940
11601 OM 11601 OM OM1 11601 -0.550000 15.99940
11602 OM 11602 OM OM1 11602 -0.550000 15.99940
11603 OM 11603 OM OM1 11603 -0.550000 15.99940
11604 OM 11604 OM OM1 11604 -0.550000 15.99940
11605 OM 11605 OM OM1 11605 -0.550000 15.99940
11606 OM 11606 OM OM1 11606 -0.550000 15.99940
11607 OM 11607 OM OM1 11607 -0.550000 15.99940
11608 OM 11608 OM OM1 11608 -0.550000 15.99940
11609 OM 11609 OM OM1 11609 -0.550000 15.99940
11610 SI 11610 SI SI1 11610 1.100000 28.08600
11611 SI 11611 SI SI1 11611 1.100000 28.08600
11612 SI 11612 SI SI1 11612 1.100000 28.08600
11613 SI 11613 SI SI1 11613 1.100000 28.08600
11614 SI 11614 SI SI1 11614 1.100000 28.08600
11615 SI 11615 SI SI1 11615 1.100000 28.08600
11616 SI 11616 SI SI1 11616 1.100000 28.08600
11617 SI 11617 SI SI1 11617 1.100000 28.08600
11618 SI 11618 SI SI1 11618 1.100000 28.08600
11619 SI 11619 SI SI1 11619 1.100000 28.08600
11620 SI 11620 SI SI1 11620 1.100000 28.08600
11621 SI 11621 SI SI1 11621 1.100000 28.08600
11622 SI 11622 SI SI1 11622 1.100000 28.08600
11623 SI 11623 SI SI1 11623 1.100000 28.08600
11624 SI 11624 SI SI1 11624 1.100000 28.08600
11625 SI 11625 SI SI1 11625 1.100000 28.08600
11626 SI 11626 SI SI1 11626 1.100000 28.08600
11627 SI 11627 SI SI1 11627 1.100000 28.08600
11628 SI 11628 SI SI1 11628 1.100000 28.08600
11629 SI 11629 SI SI1 11629 1.100000 28.08600
11630 SI 11630 SI SI1 11630 1.100000 28.08600
11631 SI 11631 SI SI1 11631 1.100000 28.08600
11632 SI 11632 SI SI1 11632 1.100000 28.08600
11633 SI 11633 SI SI1 11633 1.100000 28.08600
11634 SI 11634 SI SI1 11634 1.100000 28.08600
11635 SI 11635 SI SI1 11635 1.100000 28.08600
11636 SI 11636 SI SI1 11636 1.100000 28.08600
11637 SI 11637 SI SI1 11637 1.100000 28.08600
11638 SI 11638 SI SI1 11638 1.100000 28.08600
11639 SI 11639 SI SI1 11639 1.100000 28.08600
11640 SI 11640 SI SI1 11640 1.100000 28.08600
11641 SI 11641 SI SI1 11641 1.100000 28.08600
11642 SI 11642 SI SI1 11642 1.100000 28.08600
11643 SI 11643 SI SI1 11643 1.100000 28.08600
11644 SI 11644 SI SI1 11644 1.100000 28.08600
11645 SI 11645 SI SI1 11645 1.100000 28.08600
11646 SI 11646 SI SI1 11646 1.100000 28.08600
11647 SI 11647 SI SI1 11647 1.100000 28.08600
11648 SI 11648 SI SI1 11648 1.100000 28.08600
11649 SI 11649 SI SI1 11649 1.100000 28.08600
11650 SI 11650 SI SI1 11650 1.100000 28.08600
11651 SI 11651 SI SI1 11651 1.100000 28.08600
11652 SI 11652 SI SI1 11652 1.100000 28.08600
11653 SI 11653 SI SI1 11653 1.100000 28.08600
11654 SI 11654 SI SI1 11654 1.100000 28.08600
11655 SI 11655 SI SI1 11655 1.100000 28.08600
11656 SI 11656 SI SI1 11656 1.100000 28.08600
11657 SI 11657 SI SI1 11657 1.100000 28.08600
11658 SI 11658 SI SI1 11658 1.100000 28.08600
11659 SI 11659 SI SI1 11659 1.100000 28.08600
11660 SI 11660 SI SI1 11660 1.100000 28.08600
11661 SI 11661 SI SI1 11661 1.100000 28.08600
11662 SI 11662 SI SI1 11662 1.100000 28.08600
11663 SI 11663 SI SI1 11663 1.100000 28.08600
11664 SI 11664 SI SI1 11664 1.100000 28.08600
11665 SI 11665 SI SI1 11665 1.100000 28.08600
11666 SI 11666 SI SI1 11666 1.100000 28.08600
11667 SI 11667 SI SI1 11667 1.100000 28.08600
11668 SI 11668 SI SI1 11668 1.100000 28.08600
11669 SI 11669 SI SI1 11669 1.100000 28.08600
11670 SI 11670 SI SI1 11670 1.100000 28.08600
11671 SI 11671 SI SI1 11671 1.100000 28.08600
11672 SI 11672 SI SI1 11672 1.100000 28.08600
11673 SI 11673 SI SI1 11673 1.100000 28.08600
11674 SI 11674 SI SI1 11674 1.100000 28.08600
11675 SI 11675 SI SI1 11675 1.100000 28.08600
11676 SI 11676 SI SI1 11676 1.100000 28.08600
11677 SI 11677 SI SI1 11677 1.100000 28.08600
11678 SI 11678 SI SI1 11678 1.100000 28.08600
11679 SI 11679 SI SI1 11679 1.100000 28.08600
11680 SI 11680 SI SI1 11680 1.100000 28.08600
11681 SI 11681 SI SI1 11681 1.100000 28.08600
11682 SI 11682 SI SI1 11682 1.100000 28.08600
11683 SI 11683 SI SI1 11683 1.100000 28.08600
11684 SI 11684 SI SI1 11684 1.100000 28.08600
11685 SI 11685 SI SI1 11685 1.100000 28.08600
11686 SI 11686 SI SI1 11686 1.100000 28.08600
11687 SI 11687 SI SI1 11687 1.100000 28.08600
11688 SI 11688 SI SI1 11688 1.100000 28.08600
11689 SI 11689 SI SI1 11689 1.100000 28.08600
11690 SI 11690 SI SI1 11690 1.100000 28.08600
11691 SI 11691 SI SI1 11691 1.100000 28.08600
11692 SI 11692 SI SI1 11692 1.100000 28.08600
11693 SI 11693 SI SI1 11693 1.100000 28.08600
11694 SI 11694 SI SI1 11694 1.100000 28.08600
11695 SI 11695 SI SI1 11695 1.100000 28.08600
11696 SI 11696 SI SI1 11696 1.100000 28.08600
11697 SI 11697 SI SI1 11697 1.100000 28.08600
11698 SI 11698 SI SI1 11698 1.100000 28.08600
11699 SI 11699 SI SI1 11699 1.100000 28.08600
11700 SI 11700 SI SI1 11700 1.100000 28.08600
11701 SI 11701 SI SI1 11701 1.100000 28.08600
11702 SI 11702 SI SI1 11702 1.100000 28.08600
11703 SI 11703 SI SI1 11703 1.100000 28.08600
11704 SI 11704 SI SI1 11704 1.100000 28.08600
11705 SI 11705 SI SI1 11705 1.100000 28.08600
11706 SI 11706 SI SI1 11706 1.100000 28.08600
11707 SI 11707 SI SI1 11707 1.100000 28.08600
11708 SI 11708 SI SI1 11708 1.100000 28.08600
11709 SI 11709 SI SI1 11709 1.100000 28.08600
11710 SI 11710 SI SI1 11710 1.100000 28.08600
11711 SI 11711 SI SI1 11711 1.100000 28.08600
11712 SI 11712 SI SI1 11712 1.100000 28.08600
11713 SI 11713 SI SI1 11713 1.100000 28.08600
11714 SI 11714 SI SI1 11714 1.100000 28.08600
11715 SI 11715 SI SI1 11715 1.100000 28.08600
11716 SI 11716 SI SI1 11716 1.100000 28.08600
11717 SI 11717 SI SI1 11717 1.100000 28.08600
11718 SI 11718 SI SI1 11718 1.100000 28.08600
11719 SI 11719 SI SI1 11719 1.100000 28.08600
11720 SI 11720 SI SI1 11720 1.100000 28.08600
11721 SI 11721 SI SI1 11721 1.100000 28.08600
11722 SI 11722 SI SI1 11722 1.100000 28.08600
11723 SI 11723 SI SI1 11723 1.100000 28.08600
11724 SI 11724 SI SI1 11724 1.100000 28.08600
11725 SI 11725 SI SI1 11725 1.100000 28.08600
11726 SI 11726 SI SI1 11726 1.100000 28.08600
11727 SI 11727 SI SI1 11727 1.100000 28.08600
11728 SI 11728 SI SI1 11728 1.100000 28.08600
11729 SI 11729 SI SI1 11729 1.100000 28.08600
11730 SI 11730 SI SI1 11730 1.100000 28.08600
11731 SI 11731 SI SI1 11731 1.100000 28.08600
11732 SI 11732 SI SI1 11732 1.100000 28.08600
11733 SI 11733 SI SI1 11733 1.100000 28.08600
11734 SI 11734 SI SI1 11734 1.100000 28.08600
11735 SI 11735 SI SI1 11735 1.100000 28.08600
11736 SI 11736 SI SI1 11736 1.100000 28.08600
11737 SI 11737 SI SI1 11737 1.100000 28.08600
11738 SI 11738 SI SI1 11738 1.100000 28.08600
11739 SI 11739 SI SI1 11739 1.100000 28.08600
11740 SI 11740 SI SI1 11740 1.100000 28.08600
11741 SI 11741 SI SI1 11741 1.100000 28.08600
11742 SI 11742 SI SI1 11742 1.100000 28.08600
11743 SI 11743 SI SI1 11743 1.100000 28.08600
11744 SI 11744 SI SI1 11744 1.100000 28.08600
11745 SI 11745 SI SI1 11745 1.100000 28.08600
11746 SI 11746 SI SI1 11746 1.100000 28.08600
11747 SI 11747 SI SI1 11747 1.100000 28.08600
11748 SI 11748 SI SI1 11748 1.100000 28.08600
11749 SI 11749 SI SI1 11749 1.100000 28.08600
11750 SI 11750 SI SI1 11750 1.100000 28.08600
11751 SI 11751 SI SI1 11751 1.100000 28.08600
11752 SI 11752 SI SI1 11752 1.100000 28.08600
11753 SI 11753 SI SI1 11753 1.100000 28.08600
11754 SI 11754 SI SI1 11754 1.100000 28.08600
11755 SI 11755 SI SI1 11755 1.100000 28.08600
11756 SI 11756 SI SI1 11756 1.100000 28.08600
11757 SI 11757 SI SI1 11757 1.100000 28.08600
11758 SI 11758 SI SI1 11758 1.100000 28.08600
11759 SI 11759 SI SI1 11759 1.100000 28.08600
11760 SI 11760 SI SI1 11760 1.100000 28.08600
11761 SI 11761 SI SI1 11761 1.100000 28.08600
11762 SI 11762 SI SI1 11762 1.100000 28.08600
11763 SI 11763 SI SI1 11763 1.100000 28.08600
11764 SI 11764 SI SI1 11764 1.100000 28.08600
11765 SI 11765 SI SI1 11765 1.100000 28.08600
11766 SI 11766 SI SI1 11766 1.100000 28.08600
11767 SI 11767 SI SI1 11767 1.100000 28.08600
11768 SI 11768 SI SI1 11768 1.100000 28.08600
11769 SI 11769 SI SI1 11769 1.100000 28.08600
11770 SI 11770 SI SI1 11770 1.100000 28.08600
11771 SI 11771 SI SI1 11771 1.100000 28.08600
11772 SI 11772 SI SI1 11772 1.100000 28.08600
11773 SI 11773 SI SI1 11773 1.100000 28.08600
11774 SI 11774 SI SI1 11774 1.100000 28.08600
11775 SI 11775 SI SI1 11775 1.100000 28.08600
11776 SI 11776 SI SI1 11776 1.100000 28.08600
11777 SI 11777 SI SI1 11777 1.100000 28.08600
11778 SI 11778 SI SI1 11778 1.100000 28.08600
11779 SI 11779 SI SI1 11779 1.100000 28.08600
11780 SI 11780 SI SI1 11780 1.100000 28.08600
11781 SI 11781 SI SI1 11781 1.100000 28.08600
11782 SI 11782 SI SI1 11782 1.100000 28.08600
11783 SI 11783 SI SI1 11783 1.100000 28.08600
11784 SI 11784 SI SI1 11784 1.100000 28.08600
11785 SI 11785 SI SI1 11785 1.100000 28.08600
11786 SI 11786 SI SI1 11786 1.100000 28.08600
11787 SI 11787 SI SI1 11787 1.100000 28.08600
11788 SI 11788 SI SI1 11788 1.100000 28.08600
11789 SI 11789 SI SI1 11789 1.100000 28.08600
11790 SI 11790 SI SI1 11790 1.100000 28.08600
11791 SI 11791 SI SI1 11791 1.100000 28.08600
11792 SI 11792 SI SI1 11792 1.100000 28.08600
11793 SI 11793 SI SI1 11793 1.100000 28.08600
11794 SI 11794 SI SI1 11794 1.100000 28.08600
11795 SI 11795 SI SI1 11795 1.100000 28.08600
11796 SI 11796 SI SI1 11796 1.100000 28.08600
11797 SI 11797 SI SI1 11797 1.100000 28.08600
11798 SI 11798 SI SI1 11798 1.100000 28.08600
11799 SI 11799 SI SI1 11799 1.100000 28.08600
11800 SI 11800 SI SI1 11800 1.100000 28.08600
11801 SI 11801 SI SI1 11801 1.100000 28.08600
11802 SI 11802 SI SI1 11802 1.100000 28.08600
11803 SI 11803 SI SI1 11803 1.100000 28.08600
11804 SI 11804 SI SI1 11804 1.100000 28.08600
11805 SI 11805 SI SI1 11805 1.100000 28.08600
11806 SI 11806 SI SI1 11806 1.100000 28.08600
11807 SI 11807 SI SI1 11807 1.100000 28.08600
11808 SI 11808 SI SI1 11808 1.100000 28.08600
11809 SI 11809 SI SI1 11809 1.100000 28.08600
11810 SI 11810 SI SI1 11810 1.100000 28.08600
11811 SI 11811 SI SI1 11811 1.100000 28.08600
11812 SI 11812 SI SI1 11812 1.100000 28.08600
11813 SI 11813 SI SI1 11813 1.100000 28.08600
11814 SI 11814 SI SI1 11814 1.100000 28.08600
11815 SI 11815 SI SI1 11815 1.100000 28.08600
11816 SI 11816 SI SI1 11816 1.100000 28.08600
11817 SI 11817 SI SI1 11817 1.100000 28.08600
11818 SI 11818 SI SI1 11818 1.100000 28.08600
11819 SI 11819 SI SI1 11819 1.100000 28.08600
11820 SI 11820 SI SI1 11820 1.100000 28.08600
11821 SI 11821 SI SI1 11821 1.100000 28.08600
11822 SI 11822 SI SI1 11822 1.100000 28.08600
11823 SI 11823 SI SI1 11823 1.100000 28.08600
11824 SI 11824 SI SI1 11824 1.100000 28.08600
11825 SI 11825 SI SI1 11825 1.100000 28.08600
11826 SI 11826 SI SI1 11826 1.100000 28.08600
11827 SI 11827 SI SI1 11827 1.100000 28.08600
11828 SI 11828 SI SI1 11828 1.100000 28.08600
11829 SI 11829 SI SI1 11829 1.100000 28.08600
11830 SI 11830 SI SI1 11830 1.100000 28.08600
11831 SI 11831 SI SI1 11831 1.100000 28.08600
11832 SI 11832 SI SI1 11832 1.100000 28.08600
11833 SI 11833 SI SI1 11833 1.100000 28.08600
11834 SI 11834 SI SI1 11834 1.100000 28.08600
11835 SI 11835 SI SI1 11835 1.100000 28.08600
11836 SI 11836 SI SI1 11836 1.100000 28.08600
11837 SI 11837 SI SI1 11837 1.100000 28.08600
11838 SI 11838 SI SI1 11838 1.100000 28.08600
11839 SI 11839 SI SI1 11839 1.100000 28.08600
11840 SI 11840 SI SI1 11840 1.100000 28.08600
11841 SI 11841 SI SI1 11841 1.100000 28.08600
11842 SI 11842 SI SI1 11842 1.100000 28.08600
11843 SI 11843 SI SI1 11843 1.100000 28.08600
11844 SI 11844 SI SI1 11844 1.100000 28.08600
11845 SI 11845 SI SI1 11845 1.100000 28.08600
11846 SI 11846 SI SI1 11846 1.100000 28.08600
11847 SI 11847 SI SI1 11847 1.100000 28.08600
11848 SI 11848 SI SI1 11848 1.100000 28.08600
11849 SI 11849 SI SI1 11849 1.100000 28.08600
11850 SI 11850 SI SI1 11850 1.100000 28.08600
11851 SI 11851 SI SI1 11851 1.100000 28.08600
11852 SI 11852 SI SI1 11852 1.100000 28.08600
11853 SI 11853 SI SI1 11853 1.100000 28.08600
11854 SI 11854 SI SI1 11854 1.100000 28.08600
11855 SI 11855 SI SI1 11855 1.100000 28.08600
11856 SI 11856 SI SI1 11856 1.100000 28.08600
11857 SI 11857 SI SI1 11857 1.100000 28.08600
11858 SI 11858 SI SI1 11858 1.100000 28.08600
11859 SI 11859 SI SI1 11859 1.100000 28.08600
11860 SI 11860 SI SI1 11860 1.100000 28.08600
11861 SI 11861 SI SI1 11861 1.100000 28.08600
11862 SI 11862 SI SI1 11862 1.100000 28.08600
11863 SI 11863 SI SI1 11863 1.100000 28.08600
11864 SI 11864 SI SI1 11864 1.100000 28.08600
11865 SI 11865 SI SI1 11865 1.100000 28.08600
11866 SI 11866 SI SI1 11866 1.100000 28.08600
11867 SI 11867 SI SI1 11867 1.100000 28.08600
11868 SI 11868 SI SI1 11868 1.100000 28.08600
11869 SI 11869 SI SI1 11869 1.100000 28.08600
11870 SI 11870 SI SI1 11870 1.100000 28.08600
11871 SI 11871 SI SI1 11871 1.100000 28.08600
11872 SI 11872 SI SI1 11872 1.100000 28.08600
11873 SI 11873 SI SI1 11873 1.100000 28.08600
11874 SI 11874 SI SI1 11874 1.100000 28.08600
11875 SI 11875 SI SI1 11875 1.100000 28.08600
11876 SI 11876 SI SI1 11876 1.100000 28.08600
11877 SI 11877 SI SI1 11877 1.100000 28.08600
11878 SI 11878 SI SI1 11878 1.100000 28.08600
11879 SI 11879 SI SI1 11879 1.100000 28.08600
11880 SI 11880 SI SI1 11880 1.100000 28.08600
11881 SI 11881 SI SI1 11881 1.100000 28.08600
11882 SI 11882 SI SI1 11882 1.100000 28.08600
11883 SI 11883 SI SI1 11883 1.100000 28.08600
11884 SI 11884 SI SI1 11884 1.100000 28.08600
11885 SI 11885 SI SI1 11885 1.100000 28.08600
11886 SI 11886 SI SI1 11886 1.100000 28.08600
11887 SI 11887 SI SI1 11887 1.100000 28.08600
11888 SI 11888 SI SI1 11888 1.100000 28.08600
11889 SI 11889 SI SI1 11889 1.100000 28.08600
11890 SI 11890 SI SI1 11890 1.100000 28.08600
11891 SI 11891 SI SI1 11891 1.100000 28.08600
11892 SI 11892 SI SI1 11892 1.100000 28.08600
11893 SI 11893 SI SI1 11893 1.100000 28.08600
11894 SI 11894 SI SI1 11894 1.100000 28.08600
11895 SI 11895 SI SI1 11895 1.100000 28.08600
11896 SI 11896 SI SI1 11896 1.100000 28.08600
11897 SI 11897 SI SI1 11897 1.100000 28.08600
11898 SI 11898 SI SI1 11898 1.100000 28.08600
11899 SI 11899 SI SI1 11899 1.100000 28.08600
11900 SI 11900 SI SI1 11900 1.100000 28.08600
11901 SI 11901 SI SI1 11901 1.100000 28.08600
11902 SI 11902 SI SI1 11902 1.100000 28.08600
11903 SI 11903 SI SI1 11903 1.100000 28.08600
11904 SI 11904 SI SI1 11904 1.100000 28.08600
11905 SI 11905 SI SI1 11905 1.100000 28.08600
11906 SI 11906 SI SI1 11906 1.100000 28.08600
11907 SI 11907 SI SI1 11907 1.100000 28.08600
11908 SI 11908 SI SI1 11908 1.100000 28.08600
11909 SI 11909 SI SI1 11909 1.100000 28.08600
11910 SI 11910 SI SI1 11910 1.100000 28.08600
11911 SI 11911 SI SI1 11911 1.100000 28.08600
11912 SI 11912 SI SI1 11912 1.100000 28.08600
11913 SI 11913 SI SI1 11913 1.100000 28.08600
11914 SI 11914 SI SI1 11914 1.100000 28.08600
11915 SI 11915 SI SI1 11915 1.100000 28.08600
11916 SI 11916 SI SI1 11916 1.100000 28.08600
11917 SI 11917 SI SI1 11917 1.100000 28.08600
11918 SI 11918 SI SI1 11918 1.100000 28.08600
11919 SI 11919 SI SI1 11919 1.100000 28.08600
11920 SI 11920 SI SI1 11920 1.100000 28.08600
11921 SI 11921 SI SI1 11921 1.100000 28.08600
11922 SI 11922 SI SI1 11922 1.100000 28.08600
11923 SI 11923 SI SI1 11923 1.100000 28.08600
11924 SI 11924 SI SI1 11924 1.100000 28.08600
11925 SI 11925 SI SI1 11925 1.100000 28.08600
11926 SI 11926 SI SI1 11926 1.100000 28.08600
11927 SI 11927 SI SI1 11927 1.100000 28.08600
11928 SI 11928 SI SI1 11928 1.100000 28.08600
11929 SI 11929 SI SI1 11929 1.100000 28.08600
11930 SI 11930 SI SI1 11930 1.100000 28.08600
11931 SI 11931 SI SI1 11931 1.100000 28.08600
11932 SI 11932 SI SI1 11932 1.100000 28.08600
11933 SI 11933 SI SI1 11933 1.100000 28.08600
11934 SI 11934 SI SI1 11934 1.100000 28.08600
11935 SI 11935 SI SI1 11935 1.100000 28.08600
11936 SI 11936 SI SI1 11936 1.100000 28.08600
11937 SI 11937 SI SI1 11937 1.100000 28.08600
11938 SI 11938 SI SI1 11938 1.100000 28.08600
11939 SI 11939 SI SI1 11939 1.100000 28.08600
11940 SI 11940 SI SI1 11940 1.100000 28.08600
11941 SI 11941 SI SI1 11941 1.100000 28.08600
11942 SI 11942 SI SI1 11942 1.100000 28.08600
11943 SI 11943 SI SI1 11943 1.100000 28.08600
11944 SI 11944 SI SI1 11944 1.100000 28.08600
11945 SI 11945 SI SI1 11945 1.100000 28.08600
11946 SI 11946 SI SI1 11946 1.100000 28.08600
11947 SI 11947 SI SI1 11947 1.100000 28.08600
11948 SI 11948 SI SI1 11948 1.100000 28.08600
11949 SI 11949 SI SI1 11949 1.100000 28.08600
11950 SI 11950 SI SI1 11950 1.100000 28.08600
11951 SI 11951 SI SI1 11951 1.100000 28.08600
11952 SI 11952 SI SI1 11952 1.100000 28.08600
11953 SI 11953 SI SI1 11953 1.100000 28.08600
11954 SI 11954 SI SI1 11954 1.100000 28.08600
11955 SI 11955 SI SI1 11955 1.100000 28.08600
11956 SI 11956 SI SI1 11956 1.100000 28.08600
11957 SI 11957 SI SI1 11957 1.100000 28.08600
11958 SI 11958 SI SI1 11958 1.100000 28.08600
11959 SI 11959 SI SI1 11959 1.100000 28.08600
11960 SI 11960 SI SI1 11960 1.100000 28.08600
11961 SI 11961 SI SI1 11961 1.100000 28.08600
11962 SI 11962 SI SI1 11962 1.100000 28.08600
11963 SI 11963 SI SI1 11963 1.100000 28.08600
11964 SI 11964 SI SI1 11964 1.100000 28.08600
11965 SI 11965 SI SI1 11965 1.100000 28.08600
11966 SI 11966 SI SI1 11966 1.100000 28.08600
11967 SI 11967 SI SI1 11967 1.100000 28.08600
11968 SI 11968 SI SI1 11968 1.100000 28.08600
11969 SI 11969 SI SI1 11969 1.100000 28.08600
11970 SI 11970 SI SI1 11970 1.100000 28.08600
11971 SI 11971 SI SI1 11971 1.100000 28.08600
11972 SI 11972 SI SI1 11972 1.100000 28.08600
11973 SI 11973 SI SI1 11973 1.100000 28.08600
11974 SI 11974 SI SI1 11974 1.100000 28.08600
11975 SI 11975 SI SI1 11975 1.100000 28.08600
11976 SI 11976 SI SI1 11976 1.100000 28.08600
11977 SI 11977 SI SI1 11977 1.100000 28.08600
11978 SI 11978 SI SI1 11978 1.100000 28.08600
11979 SI 11979 SI SI1 11979 1.100000 28.08600
11980 SI 11980 SI SI1 11980 1.100000 28.08600
11981 SI 11981 SI SI1 11981 1.100000 28.08600
11982 SI 11982 SI SI1 11982 1.100000 28.08600
11983 SI 11983 SI SI1 11983 1.100000 28.08600
11984 SI 11984 SI SI1 11984 1.100000 28.08600
11985 SI 11985 SI SI1 11985 1.100000 28.08600
11986 SI 11986 SI SI1 11986 1.100000 28.08600
11987 SI 11987 SI SI1 11987 1.100000 28.08600
11988 SI 11988 SI SI1 11988 1.100000 28.08600
11989 SI 11989 SI SI1 11989 1.100000 28.08600
11990 SI 11990 SI SI1 11990 1.100000 28.08600
11991 SI 11991 SI SI1 11991 1.100000 28.08600
11992 SI 11992 SI SI1 11992 1.100000 28.08600
11993 SI 11993 SI SI1 11993 1.100000 28.08600
11994 SI 11994 SI SI1 11994 1.100000 28.08600
11995 SI 11995 SI SI1 11995 1.100000 28.08600
11996 SI 11996 SI SI1 11996 1.100000 28.08600
11997 SI 11997 SI SI1 11997 1.100000 28.08600
11998 SI 11998 SI SI1 11998 1.100000 28.08600
11999 SI 11999 SI SI1 11999 1.100000 28.08600
12000 SI 12000 SI SI1 12000 1.100000 28.08600
12001 SI 12001 SI SI1 12001 1.100000 28.08600
12002 SI 12002 SI SI1 12002 1.100000 28.08600
12003 SI 12003 SI SI1 12003 1.100000 28.08600
12004 SI 12004 SI SI1 12004 1.100000 28.08600
12005 SI 12005 SI SI1 12005 1.100000 28.08600
12006 SI 12006 SI SI1 12006 1.100000 28.08600
12007 SI 12007 SI SI1 12007 1.100000 28.08600
12008 SI 12008 SI SI1 12008 1.100000 28.08600
12009 SI 12009 SI SI1 12009 1.100000 28.08600
12010 SI 12010 SI SI1 12010 1.100000 28.08600
12011 SI 12011 SI SI1 12011 1.100000 28.08600
12012 SI 12012 SI SI1 12012 1.100000 28.08600
12013 SI 12013 SI SI1 12013 1.100000 28.08600
12014 SI 12014 SI SI1 12014 1.100000 28.08600
12015 SI 12015 SI SI1 12015 1.100000 28.08600
12016 SI 12016 SI SI1 12016 1.100000 28.08600
12017 SI 12017 SI SI1 12017 1.100000 28.08600
12018 SI 12018 SI SI1 12018 1.100000 28.08600
12019 SI 12019 SI SI1 12019 1.100000 28.08600
12020 SI 12020 SI SI1 12020 1.100000 28.08600
12021 SI 12021 SI SI1 12021 1.100000 28.08600
12022 SI 12022 SI SI1 12022 1.100000 28.08600
12023 SI 12023 SI SI1 12023 1.100000 28.08600
12024 SI 12024 SI SI1 12024 1.100000 28.08600
12025 SI 12025 SI SI1 12025 1.100000 28.08600
12026 SI 12026 SI SI1 12026 1.100000 28.08600
12027 SI 12027 SI SI1 12027 1.100000 28.08600
12028 SI 12028 SI SI1 12028 1.100000 28.08600
12029 SI 12029 SI SI1 12029 1.100000 28.08600
12030 SI 12030 SI SI1 12030 1.100000 28.08600
12031 SI 12031 SI SI1 12031 1.100000 28.08600
12032 SI 12032 SI SI1 12032 1.100000 28.08600
12033 SI 12033 SI SI1 12033 1.100000 28.08600
12034 SI 12034 SI SI1 12034 1.100000 28.08600
12035 SI 12035 SI SI1 12035 1.100000 28.08600
12036 SI 12036 SI SI1 12036 1.100000 28.08600
12037 SI 12037 SI SI1 12037 1.100000 28.08600
12038 SI 12038 SI SI1 12038 1.100000 28.08600
12039 SI 12039 SI SI1 12039 1.100000 28.08600
12040 SI 12040 SI SI1 12040 1.100000 28.08600
12041 SI 12041 SI SI1 12041 1.100000 28.08600
12042 SI 12042 SI SI1 12042 1.100000 28.08600
12043 SI 12043 SI SI1 12043 1.100000 28.08600
12044 SI 12044 SI SI1 12044 1.100000 28.08600
12045 SI 12045 SI SI1 12045 1.100000 28.08600
12046 SI 12046 SI SI1 12046 1.100000 28.08600
12047 SI 12047 SI SI1 12047 1.100000 28.08600
12048 SI 12048 SI SI1 12048 1.100000 28.08600
12049 SI 12049 SI SI1 12049 1.100000 28.08600
12050 SI 12050 SI SI1 12050 1.100000 28.08600
12051 SI 12051 SI SI1 12051 1.100000 28.08600
12052 SI 12052 SI SI1 12052 1.100000 28.08600
12053 SI 12053 SI SI1 12053 1.100000 28.08600
12054 SI 12054 SI SI1 12054 1.100000 28.08600
12055 SI 12055 SI SI1 12055 1.100000 28.08600
12056 SI 12056 SI SI1 12056 1.100000 28.08600
12057 SI 12057 SI SI1 12057 1.100000 28.08600
12058 SI 12058 SI SI1 12058 1.100000 28.08600
12059 SI 12059 SI SI1 12059 1.100000 28.08600
12060 SI 12060 SI SI1 12060 1.100000 28.08600
12061 SI 12061 SI SI1 12061 1.100000 28.08600
12062 SI 12062 SI SI1 12062 1.100000 28.08600
12063 SI 12063 SI SI1 12063 1.100000 28.08600
12064 SI 12064 SI SI1 12064 1.100000 28.08600
12065 SI 12065 SI SI1 12065 1.100000 28.08600
12066 SI 12066 SI SI1 12066 1.100000 28.08600
12067 SI 12067 SI SI1 12067 1.100000 28.08600
12068 SI 12068 SI SI1 12068 1.100000 28.08600
12069 SI 12069 SI SI1 12069 1.100000 28.08600
12070 SI 12070 SI SI1 12070 1.100000 28.08600
12071 SI 12071 SI SI1 12071 1.100000 28.08600
12072 SI 12072 SI SI1 12072 1.100000 28.08600
12073 SI 12073 SI SI1 12073 1.100000 28.08600
12074 SI 12074 SI SI1 12074 1.100000 28.08600
12075 SI 12075 SI SI1 12075 1.100000 28.08600
12076 SI 12076 SI SI1 12076 1.100000 28.08600
12077 SI 12077 SI SI1 12077 1.100000 28.08600
12078 SI 12078 SI SI1 12078 1.100000 28.08600
12079 SI 12079 SI SI1 12079 1.100000 28.08600
12080 SI 12080 SI SI1 12080 1.100000 28.08600
12081 SI 12081 SI SI1 12081 1.100000 28.08600
12082 SI 12082 SI SI1 12082 1.100000 28.08600
12083 SI 12083 SI SI1 12083 1.100000 28.08600
12084 SI 12084 SI SI1 12084 1.100000 28.08600
12085 SI 12085 SI SI1 12085 1.100000 28.08600
12086 SI 12086 SI SI1 12086 1.100000 28.08600
12087 SI 12087 SI SI1 12087 1.100000 28.08600
12088 SI 12088 SI SI1 12088 1.100000 28.08600
12089 SI 12089 SI SI1 12089 1.100000 28.08600
12090 SI 12090 SI SI1 12090 1.100000 28.08600
12091 SI 12091 SI SI1 12091 1.100000 28.08600
12092 SI 12092 SI SI1 12092 1.100000 28.08600
12093 SI 12093 SI SI1 12093 1.100000 28.08600
12094 SI 12094 SI SI1 12094 1.100000 28.08600
12095 SI 12095 SI SI1 12095 1.100000 28.08600
12096 SI 12096 SI SI1 12096 1.100000 28.08600
12097 SI 12097 SI SI1 12097 1.100000 28.08600
12098 SI 12098 SI SI1 12098 1.100000 28.08600
12099 SI 12099 SI SI1 12099 1.100000 28.08600
12100 SI 12100 SI SI1 12100 1.100000 28.08600
12101 SI 12101 SI SI1 12101 1.100000 28.08600
12102 SI 12102 SI SI1 12102 1.100000 28.08600
12103 SI 12103 SI SI1 12103 1.100000 28.08600
12104 SI 12104 SI SI1 12104 1.100000 28.08600
12105 SI 12105 SI SI1 12105 1.100000 28.08600
12106 SI 12106 SI SI1 12106 1.100000 28.08600
12107 SI 12107 SI SI1 12107 1.100000 28.08600
12108 SI 12108 SI SI1 12108 1.100000 28.08600
12109 SI 12109 SI SI1 12109 1.100000 28.08600
12110 SI 12110 SI SI1 12110 1.100000 28.08600
12111 SI 12111 SI SI1 12111 1.100000 28.08600
12112 SI 12112 SI SI1 12112 1.100000 28.08600
12113 SI 12113 SI SI1 12113 1.100000 28.08600
12114 SI 12114 SI SI1 12114 1.100000 28.08600
12115 SI 12115 SI SI1 12115 1.100000 28.08600
12116 SI 12116 SI SI1 12116 1.100000 28.08600
12117 SI 12117 SI SI1 12117 1.100000 28.08600
12118 SI 12118 SI SI1 12118 1.100000 28.08600
12119 SI 12119 SI SI1 12119 1.100000 28.08600
12120 SI 12120 SI SI1 12120 1.100000 28.08600
12121 SI 12121 SI SI1 12121 1.100000 28.08600
12122 SI 12122 SI SI1 12122 1.100000 28.08600
12123 SI 12123 SI SI1 12123 1.100000 28.08600
12124 SI 12124 SI SI1 12124 1.100000 28.08600
12125 SI 12125 SI SI1 12125 1.100000 28.08600
12126 SI 12126 SI SI1 12126 1.100000 28.08600
12127 SI 12127 SI SI1 12127 1.100000 28.08600
12128 SI 12128 SI SI1 12128 1.100000 28.08600
12129 SI 12129 SI SI1 12129 1.100000 28.08600
12130 SI 12130 SI SI1 12130 1.100000 28.08600
12131 SI 12131 SI SI1 12131 1.100000 28.08600
12132 SI 12132 SI SI1 12132 1.100000 28.08600
12133 SI 12133 SI SI1 12133 1.100000 28.08600
12134 SI 12134 SI SI1 12134 1.100000 28.08600
12135 SI 12135 SI SI1 12135 1.100000 28.08600
12136 SI 12136 SI SI1 12136 1.100000 28.08600
12137 SI 12137 SI SI1 12137 1.100000 28.08600
12138 SI 12138 SI SI1 12138 1.100000 28.08600
12139 SI 12139 SI SI1 12139 1.100000 28.08600
12140 SI 12140 SI SI1 12140 1.100000 28.08600
12141 SI 12141 SI SI1 12141 1.100000 28.08600
12142 SI 12142 SI SI1 12142 1.100000 28.08600
12143 SI 12143 SI SI1 12143 1.100000 28.08600
12144 SI 12144 SI SI1 12144 1.100000 28.08600
12145 SI 12145 SI SI1 12145 1.100000 28.08600
12146 SI 12146 SI SI1 12146 1.100000 28.08600
12147 SI 12147 SI SI1 12147 1.100000 28.08600
12148 SI 12148 SI SI1 12148 1.100000 28.08600
12149 SI 12149 SI SI1 12149 1.100000 28.08600
12150 SI 12150 SI SI1 12150 1.100000 28.08600
12151 SI 12151 SI SI1 12151 1.100000 28.08600
12152 SI 12152 SI SI1 12152 1.100000 28.08600
12153 SI 12153 SI SI1 12153 1.100000 28.08600
12154 SI 12154 SI SI1 12154 1.100000 28.08600
12155 SI 12155 SI SI1 12155 1.100000 28.08600
12156 SI 12156 SI SI1 12156 1.100000 28.08600
12157 SI 12157 SI SI1 12157 1.100000 28.08600
12158 SI 12158 SI SI1 12158 1.100000 28.08600
12159 SI 12159 SI SI1 12159 1.100000 28.08600
12160 SI 12160 SI SI1 12160 1.100000 28.08600
12161 SI 12161 SI SI1 12161 1.100000 28.08600
12162 SI 12162 SI SI1 12162 1.100000 28.08600
12163 SI 12163 SI SI1 12163 1.100000 28.08600
12164 SI 12164 SI SI1 12164 1.100000 28.08600
12165 SI 12165 SI SI1 12165 1.100000 28.08600
12166 SI 12166 SI SI1 12166 1.100000 28.08600
12167 SI 12167 SI SI1 12167 1.100000 28.08600
12168 SI 12168 SI SI1 12168 1.100000 28.08600
12169 SI 12169 SI SI1 12169 1.100000 28.08600
12170 SI 12170 SI SI1 12170 1.100000 28.08600
12171 SI 12171 SI SI1 12171 1.100000 28.08600
12172 SI 12172 SI SI1 12172 1.100000 28.08600
12173 SI 12173 SI SI1 12173 1.100000 28.08600
12174 SI 12174 SI SI1 12174 1.100000 28.08600
12175 SI 12175 SI SI1 12175 1.100000 28.08600
12176 SI 12176 SI SI1 12176 1.100000 28.08600
12177 SI 12177 SI SI1 12177 1.100000 28.08600
12178 SI 12178 SI SI1 12178 1.100000 28.08600
12179 SI 12179 SI SI1 12179 1.100000 28.08600
12180 SI 12180 SI SI1 12180 1.100000 28.08600
12181 SI 12181 SI SI1 12181 1.100000 28.08600
12182 SI 12182 SI SI1 12182 1.100000 28.08600
12183 SI 12183 SI SI1 12183 1.100000 28.08600
12184 SI 12184 SI SI1 12184 1.100000 28.08600
12185 SI 12185 SI SI1 12185 1.100000 28.08600
12186 SI 12186 SI SI1 12186 1.100000 28.08600
12187 SI 12187 SI SI1 12187 1.100000 28.08600
12188 SI 12188 SI SI1 12188 1.100000 28.08600
12189 SI 12189 SI SI1 12189 1.100000 28.08600
12190 SI 12190 SI SI1 12190 1.100000 28.08600
12191 SI 12191 SI SI1 12191 1.100000 28.08600
12192 SI 12192 SI SI1 12192 1.100000 28.08600
12193 SI 12193 SI SI1 12193 1.100000 28.08600
12194 SI 12194 SI SI1 12194 1.100000 28.08600
12195 SI 12195 SI SI1 12195 1.100000 28.08600
12196 SI 12196 SI SI1 12196 1.100000 28.08600
12197 SI 12197 SI SI1 12197 1.100000 28.08600
12198 SI 12198 SI SI1 12198 1.100000 28.08600
12199 SI 12199 SI SI1 12199 1.100000 28.08600
12200 SI 12200 SI SI1 12200 1.100000 28.08600
12201 SI 12201 SI SI1 12201 1.100000 28.08600
12202 SI 12202 SI SI1 12202 1.100000 28.08600
12203 SI 12203 SI SI1 12203 1.100000 28.08600
12204 SI 12204 SI SI1 12204 1.100000 28.08600
12205 SI 12205 SI SI1 12205 1.100000 28.08600
12206 SI 12206 SI SI1 12206 1.100000 28.08600
12207 SI 12207 SI SI1 12207 1.100000 28.08600
12208 SI 12208 SI SI1 12208 1.100000 28.08600
12209 SI 12209 SI SI1 12209 1.100000 28.08600
12210 SI 12210 SI SI1 12210 1.100000 28.08600
12211 SI 12211 SI SI1 12211 1.100000 28.08600
12212 SI 12212 SI SI1 12212 1.100000 28.08600
12213 SI 12213 SI SI1 12213 1.100000 28.08600
12214 SI 12214 SI SI1 12214 1.100000 28.08600
12215 SI 12215 SI SI1 12215 1.100000 28.08600
12216 SI 12216 SI SI1 12216 1.100000 28.08600
12217 SI 12217 SI SI1 12217 1.100000 28.08600
12218 SI 12218 SI SI1 12218 1.100000 28.08600
12219 SI 12219 SI SI1 12219 1.100000 28.08600
12220 SI 12220 SI SI1 12220 1.100000 28.08600
12221 SI 12221 SI SI1 12221 1.100000 28.08600
12222 SI 12222 SI SI1 12222 1.100000 28.08600
12223 SI 12223 SI SI1 12223 1.100000 28.08600
12224 SI 12224 SI SI1 12224 1.100000 28.08600
12225 SI 12225 SI SI1 12225 1.100000 28.08600
12226 SI 12226 SI SI1 12226 1.100000 28.08600
12227 SI 12227 SI SI1 12227 1.100000 28.08600
12228 SI 12228 SI SI1 12228 1.100000 28.08600
12229 SI 12229 SI SI1 12229 1.100000 28.08600
12230 SI 12230 SI SI1 12230 1.100000 28.08600
12231 SI 12231 SI SI1 12231 1.100000 28.08600
12232 SI 12232 SI SI1 12232 1.100000 28.08600
12233 SI 12233 SI SI1 12233 1.100000 28.08600
12234 SI 12234 SI SI1 12234 1.100000 28.08600
12235 SI 12235 SI SI1 12235 1.100000 28.08600
12236 SI 12236 SI SI1 12236 1.100000 28.08600
12237 SI 12237 SI SI1 12237 1.100000 28.08600
12238 SI 12238 SI SI1 12238 1.100000 28.08600
12239 SI 12239 SI SI1 12239 1.100000 28.08600
12240 SI 12240 SI SI1 12240 1.100000 28.08600
12241 SI 12241 SI SI1 12241 1.100000 28.08600
12242 SI 12242 SI SI1 12242 1.100000 28.08600
12243 SI 12243 SI SI1 12243 1.100000 28.08600
12244 SI 12244 SI SI1 12244 1.100000 28.08600
12245 SI 12245 SI SI1 12245 1.100000 28.08600
12246 SI 12246 SI SI1 12246 1.100000 28.08600
12247 SI 12247 SI SI1 12247 1.100000 28.08600
12248 SI 12248 SI SI1 12248 1.100000 28.08600
12249 SI 12249 SI SI1 12249 1.100000 28.08600
12250 SI 12250 SI SI1 12250 1.100000 28.08600
12251 SI 12251 SI SI1 12251 1.100000 28.08600
12252 SI 12252 SI SI1 12252 1.100000 28.08600
12253 SI 12253 SI SI1 12253 1.100000 28.08600
12254 SI 12254 SI SI1 12254 1.100000 28.08600
12255 SI 12255 SI SI1 12255 1.100000 28.08600
12256 SI 12256 SI SI1 12256 1.100000 28.08600
12257 SI 12257 SI SI1 12257 1.100000 28.08600
12258 SI 12258 SI SI1 12258 1.100000 28.08600
12259 SI 12259 SI SI1 12259 1.100000 28.08600
12260 SI 12260 SI SI1 12260 1.100000 28.08600
12261 SI 12261 SI SI1 12261 1.100000 28.08600
12262 SI 12262 SI SI1 12262 1.100000 28.08600
12263 SI 12263 SI SI1 12263 1.100000 28.08600
12264 SI 12264 SI SI1 12264 1.100000 28.08600
12265 SI 12265 SI SI1 12265 1.100000 28.08600
12266 SI 12266 SI SI1 12266 1.100000 28.08600
12267 SI 12267 SI SI1 12267 1.100000 28.08600
12268 SI 12268 SI SI1 12268 1.100000 28.08600
12269 SI 12269 SI SI1 12269 1.100000 28.08600
12270 SI 12270 SI SI1 12270 1.100000 28.08600
12271 SI 12271 SI SI1 12271 1.100000 28.08600
12272 SI 12272 SI SI1 12272 1.100000 28.08600
12273 SI 12273 SI SI1 12273 1.100000 28.08600
12274 SI 12274 SI SI1 12274 1.100000 28.08600
12275 SI 12275 SI SI1 12275 1.100000 28.08600
12276 SI 12276 SI SI1 12276 1.100000 28.08600
12277 SI 12277 SI SI1 12277 1.100000 28.08600
12278 SI 12278 SI SI1 12278 1.100000 28.08600
12279 SI 12279 SI SI1 12279 1.100000 28.08600
12280 SI 12280 SI SI1 12280 1.100000 28.08600
12281 SI 12281 SI SI1 12281 1.100000 28.08600
12282 SI 12282 SI SI1 12282 1.100000 28.08600
12283 SI 12283 SI SI1 12283 1.100000 28.08600
12284 SI 12284 SI SI1 12284 1.100000 28.08600
12285 SI 12285 SI SI1 12285 1.100000 28.08600
12286 SI 12286 SI SI1 12286 1.100000 28.08600
12287 SI 12287 SI SI1 12287 1.100000 28.08600
12288 SI 12288 SI SI1 12288 1.100000 28.08600
12289 SI 12289 SI SI1 12289 1.100000 28.08600
12290 SI 12290 SI SI1 12290 1.100000 28.08600
12291 SI 12291 SI SI1 12291 1.100000 28.08600
12292 SI 12292 SI SI1 12292 1.100000 28.08600
12293 SI 12293 SI SI1 12293 1.100000 28.08600
12294 SI 12294 SI SI1 12294 1.100000 28.08600
12295 SI 12295 SI SI1 12295 1.100000 28.08600
12296 SI 12296 SI SI1 12296 1.100000 28.08600
12297 SI 12297 SI SI1 12297 1.100000 28.08600
12298 SI 12298 SI SI1 12298 1.100000 28.08600
12299 SI 12299 SI SI1 12299 1.100000 28.08600
12300 SI 12300 SI SI1 12300 1.100000 28.08600
12301 SI 12301 SI SI1 12301 1.100000 28.08600
12302 SI 12302 SI SI1 12302 1.100000 28.08600
12303 SI 12303 SI SI1 12303 1.100000 28.08600
12304 SI 12304 SI SI1 12304 1.100000 28.08600
12305 SI 12305 SI SI1 12305 1.100000 28.08600
12306 SI 12306 SI SI1 12306 1.100000 28.08600
12307 SI 12307 SI SI1 12307 1.100000 28.08600
12308 SI 12308 SI SI1 12308 1.100000 28.08600
12309 SI 12309 SI SI1 12309 1.100000 28.08600
12310 SI 12310 SI SI1 12310 1.100000 28.08600
12311 SI 12311 SI SI1 12311 1.100000 28.08600
12312 SI 12312 SI SI1 12312 1.100000 28.08600
12313 SI 12313 SI SI1 12313 1.100000 28.08600
12314 SI 12314 SI SI1 12314 1.100000 28.08600
12315 SI 12315 SI SI1 12315 1.100000 28.08600
12316 SI 12316 SI SI1 12316 1.100000 28.08600
12317 SI 12317 SI SI1 12317 1.100000 28.08600
12318 SI 12318 SI SI1 12318 1.100000 28.08600
12319 SI 12319 SI SI1 12319 1.100000 28.08600
12320 SI 12320 SI SI1 12320 1.100000 28.08600
12321 SI 12321 SI SI1 12321 1.100000 28.08600
12322 SI 12322 SI SI1 12322 1.100000 28.08600
12323 SI 12323 SI SI1 12323 1.100000 28.08600
12324 SI 12324 SI SI1 12324 1.100000 28.08600
12325 SI 12325 SI SI1 12325 1.100000 28.08600
12326 SI 12326 SI SI1 12326 1.100000 28.08600
12327 SI 12327 SI SI1 12327 1.100000 28.08600
12328 SI 12328 SI SI1 12328 1.100000 28.08600
12329 SI 12329 SI SI1 12329 1.100000 28.08600
12330 SI 12330 SI SI1 12330 1.100000 28.08600
12331 SI 12331 SI SI1 12331 1.100000 28.08600
12332 SI 12332 SI SI1 12332 1.100000 28.08600
12333 SI 12333 SI SI1 12333 1.100000 28.08600
12334 SI 12334 SI SI1 12334 1.100000 28.08600
12335 SI 12335 SI SI1 12335 1.100000 28.08600
12336 SI 12336 SI SI1 12336 1.100000 28.08600
12337 SI 12337 SI SI1 12337 1.100000 28.08600
12338 SI 12338 SI SI1 12338 1.100000 28.08600
12339 SI 12339 SI SI1 12339 1.100000 28.08600
12340 SI 12340 SI SI1 12340 1.100000 28.08600
12341 SI 12341 SI SI1 12341 1.100000 28.08600
12342 SI 12342 SI SI1 12342 1.100000 28.08600
12343 SI 12343 SI SI1 12343 1.100000 28.08600
12344 SI 12344 SI SI1 12344 1.100000 28.08600
12345 SI 12345 SI SI1 12345 1.100000 28.08600
12346 SI 12346 SI SI1 12346 1.100000 28.08600
12347 SI 12347 SI SI1 12347 1.100000 28.08600
12348 SI 12348 SI SI1 12348 1.100000 28.08600
12349 SI 12349 SI SI1 12349 1.100000 28.08600
12350 SI 12350 SI SI1 12350 1.100000 28.08600
12351 SI 12351 SI SI1 12351 1.100000 28.08600
12352 SI 12352 SI SI1 12352 1.100000 28.08600
12353 SI 12353 SI SI1 12353 1.100000 28.08600
12354 SI 12354 SI SI1 12354 1.100000 28.08600
12355 SI 12355 SI SI1 12355 1.100000 28.08600
12356 SI 12356 SI SI1 12356 1.100000 28.08600
12357 SI 12357 SI SI1 12357 1.100000 28.08600
12358 SI 12358 SI SI1 12358 1.100000 28.08600
12359 SI 12359 SI SI1 12359 1.100000 28.08600
12360 SI 12360 SI SI1 12360 1.100000 28.08600
12361 SI 12361 SI SI1 12361 1.100000 28.08600
12362 SI 12362 SI SI1 12362 1.100000 28.08600
12363 SI 12363 SI SI1 12363 1.100000 28.08600
12364 SI 12364 SI SI1 12364 1.100000 28.08600
12365 SI 12365 SI SI1 12365 1.100000 28.08600
12366 SI 12366 SI SI1 12366 1.100000 28.08600
12367 SI 12367 SI SI1 12367 1.100000 28.08600
12368 SI 12368 SI SI1 12368 1.100000 28.08600
12369 SI 12369 SI SI1 12369 1.100000 28.08600
12370 SI 12370 SI SI1 12370 1.100000 28.08600
12371 SI 12371 SI SI1 12371 1.100000 28.08600
12372 SI 12372 SI SI1 12372 1.100000 28.08600
12373 SI 12373 SI SI1 12373 1.100000 28.08600
12374 SI 12374 SI SI1 12374 1.100000 28.08600
12375 SI 12375 SI SI1 12375 1.100000 28.08600
12376 SI 12376 SI SI1 12376 1.100000 28.08600
12377 SI 12377 SI SI1 12377 1.100000 28.08600
12378 SI 12378 SI SI1 12378 1.100000 28.08600
12379 SI 12379 SI SI1 12379 1.100000 28.08600
12380 SI 12380 SI SI1 12380 1.100000 28.08600
12381 SI 12381 SI SI1 12381 1.100000 28.08600
12382 SI 12382 SI SI1 12382 1.100000 28.08600
12383 SI 12383 SI SI1 12383 1.100000 28.08600
12384 SI 12384 SI SI1 12384 1.100000 28.08600
12385 SI 12385 SI SI1 12385 1.100000 28.08600
12386 SI 12386 SI SI1 12386 1.100000 28.08600
12387 SI 12387 SI SI1 12387 1.100000 28.08600
12388 SI 12388 SI SI1 12388 1.100000 28.08600
12389 SI 12389 SI SI1 12389 1.100000 28.08600
12390 SI 12390 SI SI1 12390 1.100000 28.08600
12391 SI 12391 SI SI1 12391 1.100000 28.08600
12392 SI 12392 SI SI1 12392 1.100000 28.08600
12393 SI 12393 SI SI1 12393 1.100000 28.08600
12394 SI 12394 SI SI1 12394 1.100000 28.08600
12395 SI 12395 SI SI1 12395 1.100000 28.08600
12396 SI 12396 SI SI1 12396 1.100000 28.08600
12397 SI 12397 SI SI1 12397 1.100000 28.08600
12398 SI 12398 SI SI1 12398 1.100000 28.08600
12399 SI 12399 SI SI1 12399 1.100000 28.08600
12400 SI 12400 SI SI1 12400 1.100000 28.08600
12401 SI 12401 SI SI1 12401 1.100000 28.08600
12402 SI 12402 SI SI1 12402 1.100000 28.08600
12403 SI 12403 SI SI1 12403 1.100000 28.08600
12404 SI 12404 SI SI1 12404 1.100000 28.08600
12405 SI 12405 SI SI1 12405 1.100000 28.08600
12406 SI 12406 SI SI1 12406 1.100000 28.08600
12407 SI 12407 SI SI1 12407 1.100000 28.08600
12408 SI 12408 SI SI1 12408 1.100000 28.08600
12409 SI 12409 SI SI1 12409 1.100000 28.08600
12410 SI 12410 SI SI1 12410 1.100000 28.08600
12411 SI 12411 SI SI1 12411 1.100000 28.08600
12412 SI 12412 SI SI1 12412 1.100000 28.08600
12413 SI 12413 SI SI1 12413 1.100000 28.08600
12414 SI 12414 SI SI1 12414 1.100000 28.08600
12415 SI 12415 SI SI1 12415 1.100000 28.08600
12416 SI 12416 SI SI1 12416 1.100000 28.08600
12417 SI 12417 SI SI1 12417 1.100000 28.08600
12418 SI 12418 SI SI1 12418 1.100000 28.08600
12419 SI 12419 SI SI1 12419 1.100000 28.08600
12420 SI 12420 SI SI1 12420 1.100000 28.08600
12421 SI 12421 SI SI1 12421 1.100000 28.08600
12422 SI 12422 SI SI1 12422 1.100000 28.08600
12423 SI 12423 SI SI1 12423 1.100000 28.08600
12424 SI 12424 SI SI1 12424 1.100000 28.08600
12425 SI 12425 SI SI1 12425 1.100000 28.08600
12426 SI 12426 SI SI1 12426 1.100000 28.08600
12427 SI 12427 SI SI1 12427 1.100000 28.08600
12428 SI 12428 SI SI1 12428 1.100000 28.08600
12429 SI 12429 SI SI1 12429 1.100000 28.08600
12430 SI 12430 SI SI1 12430 1.100000 28.08600
12431 SI 12431 SI SI1 12431 1.100000 28.08600
12432 SI 12432 SI SI1 12432 1.100000 28.08600
12433 SI 12433 SI SI1 12433 1.100000 28.08600
12434 SI 12434 SI SI1 12434 1.100000 28.08600
12435 SI 12435 SI SI1 12435 1.100000 28.08600
12436 SI 12436 SI SI1 12436 1.100000 28.08600
12437 SI 12437 SI SI1 12437 1.100000 28.08600
12438 SI 12438 SI SI1 12438 1.100000 28.08600
12439 SI 12439 SI SI1 12439 1.100000 28.08600
12440 SI 12440 SI SI1 12440 1.100000 28.08600
12441 SI 12441 SI SI1 12441 1.100000 28.08600
12442 SI 12442 SI SI1 12442 1.100000 28.08600
12443 SI 12443 SI SI1 12443 1.100000 28.08600
12444 SI 12444 SI SI1 12444 1.100000 28.08600
12445 SI 12445 SI SI1 12445 1.100000 28.08600
12446 SI 12446 SI SI1 12446 1.100000 28.08600
12447 SI 12447 SI SI1 12447 1.100000 28.08600
12448 SI 12448 SI SI1 12448 1.100000 28.08600
12449 SI 12449 SI SI1 12449 1.100000 28.08600
12450 SI 12450 SI SI1 12450 1.100000 28.08600
12451 SI 12451 SI SI1 12451 1.100000 28.08600
12452 SI 12452 SI SI1 12452 1.100000 28.08600
12453 SI 12453 SI SI1 12453 1.100000 28.08600
12454 SI 12454 SI SI1 12454 1.100000 28.08600
12455 SI 12455 SI SI1 12455 1.100000 28.08600
12456 SI 12456 SI SI1 12456 1.100000 28.08600
12457 SI 12457 SI SI1 12457 1.100000 28.08600
12458 SI 12458 SI SI1 12458 1.100000 28.08600
12459 SI 12459 SI SI1 12459 1.100000 28.08600
12460 SI 12460 SI SI1 12460 1.100000 28.08600
12461 SI 12461 SI SI1 12461 1.100000 28.08600
12462 SI 12462 SI SI1 12462 1.100000 28.08600
12463 SI 12463 SI SI1 12463 1.100000 28.08600
12464 SI 12464 SI SI1 12464 1.100000 28.08600
12465 SI 12465 SI SI1 12465 1.100000 28.08600
12466 SI 12466 SI SI1 12466 1.100000 28.08600
12467 SI 12467 SI SI1 12467 1.100000 28.08600
12468 SI 12468 SI SI1 12468 1.100000 28.08600
12469 SI 12469 SI SI1 12469 1.100000 28.08600
12470 SI 12470 SI SI1 12470 1.100000 28.08600
12471 SI 12471 SI SI1 12471 1.100000 28.08600
12472 SI 12472 SI SI1 12472 1.100000 28.08600
12473 SI 12473 SI SI1 12473 1.100000 28.08600
12474 SI 12474 SI SI1 12474 1.100000 28.08600
12475 SI 12475 SI SI1 12475 1.100000 28.08600
12476 SI 12476 SI SI1 12476 1.100000 28.08600
12477 SI 12477 SI SI1 12477 1.100000 28.08600
12478 SI 12478 SI SI1 12478 1.100000 28.08600
12479 SI 12479 SI SI1 12479 1.100000 28.08600
12480 SI 12480 SI SI1 12480 1.100000 28.08600
12481 SI 12481 SI SI1 12481 1.100000 28.08600
12482 SI 12482 SI SI1 12482 1.100000 28.08600
12483 SI 12483 SI SI1 12483 1.100000 28.08600
12484 SI 12484 SI SI1 12484 1.100000 28.08600
12485 SI 12485 SI SI1 12485 1.100000 28.08600
12486 SI 12486 SI SI1 12486 1.100000 28.08600
12487 SI 12487 SI SI1 12487 1.100000 28.08600
12488 SI 12488 SI SI1 12488 1.100000 28.08600
12489 SI 12489 SI SI1 12489 1.100000 28.08600
12490 SI 12490 SI SI1 12490 1.100000 28.08600
12491 SI 12491 SI SI1 12491 1.100000 28.08600
12492 SI 12492 SI SI1 12492 1.100000 28.08600
12493 SI 12493 SI SI1 12493 1.100000 28.08600
12494 SI 12494 SI SI1 12494 1.100000 28.08600
12495 SI 12495 SI SI1 12495 1.100000 28.08600
12496 SI 12496 SI SI1 12496 1.100000 28.08600
12497 SI 12497 SI SI1 12497 1.100000 28.08600
12498 SI 12498 SI SI1 12498 1.100000 28.08600
12499 SI 12499 SI SI1 12499 1.100000 28.08600
12500 SI 12500 SI SI1 12500 1.100000 28.08600
12501 SI 12501 SI SI1 12501 1.100000 28.08600
12502 SI 12502 SI SI1 12502 1.100000 28.08600
12503 SI 12503 SI SI1 12503 1.100000 28.08600
12504 SI 12504 SI SI1 12504 1.100000 28.08600
12505 SI 12505 SI SI1 12505 1.100000 28.08600
12506 SI 12506 SI SI1 12506 1.100000 28.08600
12507 SI 12507 SI SI1 12507 1.100000 28.08600
12508 SI 12508 SI SI1 12508 1.100000 28.08600
12509 SI 12509 SI SI1 12509 1.100000 28.08600
12510 SI 12510 SI SI1 12510 1.100000 28.08600
12511 SI 12511 SI SI1 12511 1.100000 28.08600
12512 SI 12512 SI SI1 12512 1.100000 28.08600
12513 SI 12513 SI SI1 12513 1.100000 28.08600
12514 SI 12514 SI SI1 12514 1.100000 28.08600
12515 SI 12515 SI SI1 12515 1.100000 28.08600
12516 SI 12516 SI SI1 12516 1.100000 28.08600
12517 SI 12517 SI SI1 12517 1.100000 28.08600
12518 SI 12518 SI SI1 12518 1.100000 28.08600
12519 SI 12519 SI SI1 12519 1.100000 28.08600
12520 SI 12520 SI SI1 12520 1.100000 28.08600
12521 SI 12521 SI SI1 12521 1.100000 28.08600
12522 SI 12522 SI SI1 12522 1.100000 28.08600
12523 SI 12523 SI SI1 12523 1.100000 28.08600
12524 SI 12524 SI SI1 12524 1.100000 28.08600
12525 SI 12525 SI SI1 12525 1.100000 28.08600
12526 SI 12526 SI SI1 12526 1.100000 28.08600
12527 SI 12527 SI SI1 12527 1.100000 28.08600
12528 SI 12528 SI SI1 12528 1.100000 28.08600
12529 SI 12529 SI SI1 12529 1.100000 28.08600
12530 SI 12530 SI SI1 12530 1.100000 28.08600
12531 SI 12531 SI SI1 12531 1.100000 28.08600
12532 SI 12532 SI SI1 12532 1.100000 28.08600
12533 SI 12533 SI SI1 12533 1.100000 28.08600
12534 SI 12534 SI SI1 12534 1.100000 28.08600
12535 SI 12535 SI SI1 12535 1.100000 28.08600
12536 SI 12536 SI SI1 12536 1.100000 28.08600
12537 SI 12537 SI SI1 12537 1.100000 28.08600
12538 SI 12538 SI SI1 12538 1.100000 28.08600
12539 SI 12539 SI SI1 12539 1.100000 28.08600
12540 SI 12540 SI SI1 12540 1.100000 28.08600
12541 SI 12541 SI SI1 12541 1.100000 28.08600
12542 SI 12542 SI SI1 12542 1.100000 28.08600
12543 SI 12543 SI SI1 12543 1.100000 28.08600
12544 SI 12544 SI SI1 12544 1.100000 28.08600
12545 SI 12545 SI SI1 12545 1.100000 28.08600
12546 SI 12546 SI SI1 12546 1.100000 28.08600
12547 SI 12547 SI SI1 12547 1.100000 28.08600
12548 SI 12548 SI SI1 12548 1.100000 28.08600
12549 SI 12549 SI SI1 12549 1.100000 28.08600
12550 SI 12550 SI SI1 12550 1.100000 28.08600
12551 SI 12551 SI SI1 12551 1.100000 28.08600
12552 SI 12552 SI SI1 12552 1.100000 28.08600
12553 SI 12553 SI SI1 12553 1.100000 28.08600
12554 SI 12554 SI SI1 12554 1.100000 28.08600
12555 SI 12555 SI SI1 12555 1.100000 28.08600
12556 SI 12556 SI SI1 12556 1.100000 28.08600
12557 SI 12557 SI SI1 12557 1.100000 28.08600
12558 SI 12558 SI SI1 12558 1.100000 28.08600
12559 SI 12559 SI SI1 12559 1.100000 28.08600
12560 SI 12560 SI SI1 12560 1.100000 28.08600
12561 SI 12561 SI SI1 12561 1.100000 28.08600
12562 SI 12562 SI SI1 12562 1.100000 28.08600
12563 SI 12563 SI SI1 12563 1.100000 28.08600
12564 SI 12564 SI SI1 12564 1.100000 28.08600
12565 SI 12565 SI SI1 12565 1.100000 28.08600
12566 SI 12566 SI SI1 12566 1.100000 28.08600
12567 SI 12567 SI SI1 12567 1.100000 28.08600
12568 SI 12568 SI SI1 12568 1.100000 28.08600
12569 SI 12569 SI SI1 12569 1.100000 28.08600
12570 SI 12570 SI SI1 12570 1.100000 28.08600
12571 SI 12571 SI SI1 12571 1.100000 28.08600
12572 SI 12572 SI SI1 12572 1.100000 28.08600
12573 SI 12573 SI SI1 12573 1.100000 28.08600
12574 SI 12574 SI SI1 12574 1.100000 28.08600
12575 SI 12575 SI SI1 12575 1.100000 28.08600
12576 SI 12576 SI SI1 12576 1.100000 28.08600
12577 SI 12577 SI SI1 12577 1.100000 28.08600
12578 SI 12578 SI SI1 12578 1.100000 28.08600
12579 SI 12579 SI SI1 12579 1.100000 28.08600
12580 SI 12580 SI SI1 12580 1.100000 28.08600
12581 SI 12581 SI SI1 12581 1.100000 28.08600
12582 SI 12582 SI SI1 12582 1.100000 28.08600
12583 SI 12583 SI SI1 12583 1.100000 28.08600
12584 SI 12584 SI SI1 12584 1.100000 28.08600
12585 SI 12585 SI SI1 12585 1.100000 28.08600
12586 SI 12586 SI SI1 12586 1.100000 28.08600
12587 SI 12587 SI SI1 12587 1.100000 28.08600
12588 SI 12588 SI SI1 12588 1.100000 28.08600
12589 SI 12589 SI SI1 12589 1.100000 28.08600
12590 SI 12590 SI SI1 12590 1.100000 28.08600
12591 SI 12591 SI SI1 12591 1.100000 28.08600
12592 SI 12592 SI SI1 12592 1.100000 28.08600
12593 SI 12593 SI SI1 12593 1.100000 28.08600
12594 SI 12594 SI SI1 12594 1.100000 28.08600
12595 SI 12595 SI SI1 12595 1.100000 28.08600
12596 SI 12596 SI SI1 12596 1.100000 28.08600
12597 SI 12597 SI SI1 12597 1.100000 28.08600
12598 SI 12598 SI SI1 12598 1.100000 28.08600
12599 SI 12599 SI SI1 12599 1.100000 28.08600
12600 SI 12600 SI SI1 12600 1.100000 28.08600
12601 SI 12601 SI SI1 12601 1.100000 28.08600
12602 SI 12602 SI SI1 12602 1.100000 28.08600
12603 SI 12603 SI SI1 12603 1.100000 28.08600
12604 SI 12604 SI SI1 12604 1.100000 28.08600
12605 SI 12605 SI SI1 12605 1.100000 28.08600
12606 SI 12606 SI SI1 12606 1.100000 28.08600
12607 SI 12607 SI SI1 12607 1.100000 28.08600
12608 SI 12608 SI SI1 12608 1.100000 28.08600
12609 SI 12609 SI SI1 12609 1.100000 28.08600
12610 SI 12610 SI SI1 12610 1.100000 28.08600
12611 SI 12611 SI SI1 12611 1.100000 28.08600
12612 SI 12612 SI SI1 12612 1.100000 28.08600
12613 SI 12613 SI SI1 12613 1.100000 28.08600
12614 SI 12614 SI SI1 12614 1.100000 28.08600
12615 SI 12615 SI SI1 12615 1.100000 28.08600
12616 SI 12616 SI SI1 12616 1.100000 28.08600
12617 SI 12617 SI SI1 12617 1.100000 28.08600
12618 SI 12618 SI SI1 12618 1.100000 28.08600
12619 SI 12619 SI SI1 12619 1.100000 28.08600
12620 SI 12620 SI SI1 12620 1.100000 28.08600
12621 SI 12621 SI SI1 12621 1.100000 28.08600
12622 SI 12622 SI SI1 12622 1.100000 28.08600
12623 SI 12623 SI SI1 12623 1.100000 28.08600
12624 SI 12624 SI SI1 12624 1.100000 28.08600
12625 SI 12625 SI SI1 12625 1.100000 28.08600
12626 SI 12626 SI SI1 12626 1.100000 28.08600
12627 SI 12627 SI SI1 12627 1.100000 28.08600
12628 SI 12628 SI SI1 12628 1.100000 28.08600
12629 SI 12629 SI SI1 12629 1.100000 28.08600
12630 SI 12630 SI SI1 12630 1.100000 28.08600
12631 SI 12631 SI SI1 12631 1.100000 28.08600
12632 SI 12632 SI SI1 12632 1.100000 28.08600
12633 SI 12633 SI SI1 12633 1.100000 28.08600
12634 SI 12634 SI SI1 12634 1.100000 28.08600
12635 SI 12635 SI SI1 12635 1.100000 28.08600
12636 SI 12636 SI SI1 12636 1.100000 28.08600
12637 SI 12637 SI SI1 12637 1.100000 28.08600
12638 SI 12638 SI SI1 12638 1.100000 28.08600
12639 SI 12639 SI SI1 12639 1.100000 28.08600
12640 SI 12640 SI SI1 12640 1.100000 28.08600
12641 SI 12641 SI SI1 12641 1.100000 28.08600
12642 SI 12642 SI SI1 12642 1.100000 28.08600
12643 SI 12643 SI SI1 12643 1.100000 28.08600
12644 SI 12644 SI SI1 12644 1.100000 28.08600
12645 SI 12645 SI SI1 12645 1.100000 28.08600
12646 SI 12646 SI SI1 12646 1.100000 28.08600
12647 SI 12647 SI SI1 12647 1.100000 28.08600
12648 SI 12648 SI SI1 12648 1.100000 28.08600
12649 SI 12649 SI SI1 12649 1.100000 28.08600
12650 SI 12650 SI SI1 12650 1.100000 28.08600
12651 SI 12651 SI SI1 12651 1.100000 28.08600
12652 SI 12652 SI SI1 12652 1.100000 28.08600
12653 SI 12653 SI SI1 12653 1.100000 28.08600
12654 SI 12654 SI SI1 12654 1.100000 28.08600
12655 SI 12655 SI SI1 12655 1.100000 28.08600
12656 SI 12656 SI SI1 12656 1.100000 28.08600
12657 SI 12657 SI SI1 12657 1.100000 28.08600
12658 SI 12658 SI SI1 12658 1.100000 28.08600
12659 SI 12659 SI SI1 12659 1.100000 28.08600
12660 SI 12660 SI SI1 12660 1.100000 28.08600
12661 SI 12661 SI SI1 12661 1.100000 28.08600
12662 SI 12662 SI SI1 12662 1.100000 28.08600
12663 SI 12663 SI SI1 12663 1.100000 28.08600
12664 SI 12664 SI SI1 12664 1.100000 28.08600
12665 SI 12665 SI SI1 12665 1.100000 28.08600
12666 SI 12666 SI SI1 12666 1.100000 28.08600
12667 SI 12667 SI SI1 12667 1.100000 28.08600
12668 SI 12668 SI SI1 12668 1.100000 28.08600
12669 SI 12669 SI SI1 12669 1.100000 28.08600
12670 SI 12670 SI SI1 12670 1.100000 28.08600
12671 SI 12671 SI SI1 12671 1.100000 28.08600
12672 SI 12672 SI SI1 12672 1.100000 28.08600
12673 SI 12673 SI SI1 12673 1.100000 28.08600
12674 SI 12674 SI SI1 12674 1.100000 28.08600
12675 SI 12675 SI SI1 12675 1.100000 28.08600
12676 SI 12676 SI SI1 12676 1.100000 28.08600
12677 SI 12677 SI SI1 12677 1.100000 28.08600
12678 SI 12678 SI SI1 12678 1.100000 28.08600
12679 SI 12679 SI SI1 12679 1.100000 28.08600
12680 SI 12680 SI SI1 12680 1.100000 28.08600
12681 SI 12681 SI SI1 12681 1.100000 28.08600
12682 SI 12682 SI SI1 12682 1.100000 28.08600
12683 SI 12683 SI SI1 12683 1.100000 28.08600
12684 SI 12684 SI SI1 12684 1.100000 28.08600
12685 SI 12685 SI SI1 12685 1.100000 28.08600
12686 SI 12686 SI SI1 12686 1.100000 28.08600
12687 SI 12687 SI SI1 12687 1.100000 28.08600
12688 SI 12688 SI SI1 12688 1.100000 28.08600
12689 SI 12689 SI SI1 12689 1.100000 28.08600
12690 SI 12690 SI SI1 12690 1.100000 28.08600
12691 SI 12691 SI SI1 12691 1.100000 28.08600
12692 SI 12692 SI SI1 12692 1.100000 28.08600
12693 SI 12693 SI SI1 12693 1.100000 28.08600
12694 SI 12694 SI SI1 12694 1.100000 28.08600
12695 SI 12695 SI SI1 12695 1.100000 28.08600
12696 SI 12696 SI SI1 12696 1.100000 28.08600
12697 SI 12697 SI SI1 12697 1.100000 28.08600
12698 SI 12698 SI SI1 12698 1.100000 28.08600
12699 SI 12699 SI SI1 12699 1.100000 28.08600
12700 SI 12700 SI SI1 12700 1.100000 28.08600
12701 SI 12701 SI SI1 12701 1.100000 28.08600
12702 SI 12702 SI SI1 12702 1.100000 28.08600
12703 SI 12703 SI SI1 12703 1.100000 28.08600
12704 SI 12704 SI SI1 12704 1.100000 28.08600
12705 SI 12705 SI SI1 12705 1.100000 28.08600
12706 SI 12706 SI SI1 12706 1.100000 28.08600
12707 SI 12707 SI SI1 12707 1.100000 28.08600
12708 SI 12708 SI SI1 12708 1.100000 28.08600
12709 SI 12709 SI SI1 12709 1.100000 28.08600
12710 SI 12710 SI SI1 12710 1.100000 28.08600
12711 SI 12711 SI SI1 12711 1.100000 28.08600
12712 SI 12712 SI SI1 12712 1.100000 28.08600
12713 SI 12713 SI SI1 12713 1.100000 28.08600
12714 SI 12714 SI SI1 12714 1.100000 28.08600
12715 SI 12715 SI SI1 12715 1.100000 28.08600
12716 SI 12716 SI SI1 12716 1.100000 28.08600
12717 SI 12717 SI SI1 12717 1.100000 28.08600
12718 SI 12718 SI SI1 12718 1.100000 28.08600
12719 SI 12719 SI SI1 12719 1.100000 28.08600
12720 SI 12720 SI SI1 12720 1.100000 28.08600
12721 SI 12721 SI SI1 12721 1.100000 28.08600
12722 SI 12722 SI SI1 12722 1.100000 28.08600
12723 SI 12723 SI SI1 12723 1.100000 28.08600
12724 SI 12724 SI SI1 12724 1.100000 28.08600
12725 SI 12725 SI SI1 12725 1.100000 28.08600
12726 SI 12726 SI SI1 12726 1.100000 28.08600
12727 SI 12727 SI SI1 12727 1.100000 28.08600
12728 SI 12728 SI SI1 12728 1.100000 28.08600
12729 SI 12729 SI SI1 12729 1.100000 28.08600
12730 SI 12730 SI SI1 12730 1.100000 28.08600
12731 SI 12731 SI SI1 12731 1.100000 28.08600
12732 SI 12732 SI SI1 12732 1.100000 28.08600
12733 SI 12733 SI SI1 12733 1.100000 28.08600
12734 SI 12734 SI SI1 12734 1.100000 28.08600
12735 SI 12735 SI SI1 12735 1.100000 28.08600
12736 SI 12736 SI SI1 12736 1.100000 28.08600
12737 SI 12737 SI SI1 12737 1.100000 28.08600
12738 SI 12738 SI SI1 12738 1.100000 28.08600
12739 SI 12739 SI SI1 12739 1.100000 28.08600
12740 SI 12740 SI SI1 12740 1.100000 28.08600
12741 SI 12741 SI SI1 12741 1.100000 28.08600
12742 SI 12742 SI SI1 12742 1.100000 28.08600
12743 SI 12743 SI SI1 12743 1.100000 28.08600
12744 SI 12744 SI SI1 12744 1.100000 28.08600
12745 SI 12745 SI SI1 12745 1.100000 28.08600
12746 SI 12746 SI SI1 12746 1.100000 28.08600
12747 SI 12747 SI SI1 12747 1.100000 28.08600
12748 SI 12748 SI SI1 12748 1.100000 28.08600
12749 SI 12749 SI SI1 12749 1.100000 28.08600
12750 SI 12750 SI SI1 12750 1.100000 28.08600
12751 SI 12751 SI SI1 12751 1.100000 28.08600
12752 SI 12752 SI SI1 12752 1.100000 28.08600
12753 SI 12753 SI SI1 12753 1.100000 28.08600
12754 SI 12754 SI SI1 12754 1.100000 28.08600
12755 SI 12755 SI SI1 12755 1.100000 28.08600
12756 SI 12756 SI SI1 12756 1.100000 28.08600
12757 SI 12757 SI SI1 12757 1.100000 28.08600
12758 SI 12758 SI SI1 12758 1.100000 28.08600
12759 SI 12759 SI SI1 12759 1.100000 28.08600
12760 SI 12760 SI SI1 12760 1.100000 28.08600
12761 SI 12761 SI SI1 12761 1.100000 28.08600
12762 SI 12762 SI SI1 12762 1.100000 28.08600
12763 SI 12763 SI SI1 12763 1.100000 28.08600
12764 SI 12764 SI SI1 12764 1.100000 28.08600
12765 SI 12765 SI SI1 12765 1.100000 28.08600
12766 SI 12766 SI SI1 12766 1.100000 28.08600
12767 SI 12767 SI SI1 12767 1.100000 28.08600
12768 SI 12768 SI SI1 12768 1.100000 28.08600
12769 SI 12769 SI SI1 12769 1.100000 28.08600
12770 SI 12770 SI SI1 12770 1.100000 28.08600
12771 SI 12771 SI SI1 12771 1.100000 28.08600
12772 SI 12772 SI SI1 12772 1.100000 28.08600
12773 SI 12773 SI SI1 12773 1.100000 28.08600
12774 SI 12774 SI SI1 12774 1.100000 28.08600
12775 SI 12775 SI SI1 12775 1.100000 28.08600
12776 SI 12776 SI SI1 12776 1.100000 28.08600
12777 SI 12777 SI SI1 12777 1.100000 28.08600
12778 SI 12778 SI SI1 12778 1.100000 28.08600
12779 SI 12779 SI SI1 12779 1.100000 28.08600
12780 SI 12780 SI SI1 12780 1.100000 28.08600
12781 SI 12781 SI SI1 12781 1.100000 28.08600
12782 SI 12782 SI SI1 12782 1.100000 28.08600
12783 SI 12783 SI SI1 12783 1.100000 28.08600
12784 SI 12784 SI SI1 12784 1.100000 28.08600
12785 SI 12785 SI SI1 12785 1.100000 28.08600
12786 SI 12786 SI SI1 12786 1.100000 28.08600
12787 SI 12787 SI SI1 12787 1.100000 28.08600
12788 SI 12788 SI SI1 12788 1.100000 28.08600
12789 SI 12789 SI SI1 12789 1.100000 28.08600
12790 SI 12790 SI SI1 12790 1.100000 28.08600
12791 SI 12791 SI SI1 12791 1.100000 28.08600
12792 SI 12792 SI SI1 12792 1.100000 28.08600
12793 SI 12793 SI SI1 12793 1.100000 28.08600
12794 SI 12794 SI SI1 12794 1.100000 28.08600
12795 SI 12795 SI SI1 12795 1.100000 28.08600
12796 SI 12796 SI SI1 12796 1.100000 28.08600
12797 SI 12797 SI SI1 12797 1.100000 28.08600
12798 SI 12798 SI SI1 12798 1.100000 28.08600
12799 SI 12799 SI SI1 12799 1.100000 28.08600
12800 SI 12800 SI SI1 12800 1.100000 28.08600
12801 SI 12801 SI SI1 12801 1.100000 28.08600
12802 SI 12802 SI SI1 12802 1.100000 28.08600
12803 SI 12803 SI SI1 12803 1.100000 28.08600
12804 SI 12804 SI SI1 12804 1.100000 28.08600
12805 SI 12805 SI SI1 12805 1.100000 28.08600
12806 SI 12806 SI SI1 12806 1.100000 28.08600
12807 SI 12807 SI SI1 12807 1.100000 28.08600
12808 SI 12808 SI SI1 12808 1.100000 28.08600
12809 SI 12809 SI SI1 12809 1.100000 28.08600
12810 SI 12810 SI SI1 12810 1.100000 28.08600
12811 SI 12811 SI SI1 12811 1.100000 28.08600
12812 SI 12812 SI SI1 12812 1.100000 28.08600
12813 SI 12813 SI SI1 12813 1.100000 28.08600
12814 SI 12814 SI SI1 12814 1.100000 28.08600
12815 SI 12815 SI SI1 12815 1.100000 28.08600
12816 SI 12816 SI SI1 12816 1.100000 28.08600
12817 SI 12817 SI SI1 12817 1.100000 28.08600
12818 SI 12818 SI SI1 12818 1.100000 28.08600
12819 SI 12819 SI SI1 12819 1.100000 28.08600
12820 SI 12820 SI SI1 12820 1.100000 28.08600
12821 SI 12821 SI SI1 12821 1.100000 28.08600
12822 SI 12822 SI SI1 12822 1.100000 28.08600
12823 SI 12823 SI SI1 12823 1.100000 28.08600
12824 SI 12824 SI SI1 12824 1.100000 28.08600
12825 SI 12825 SI SI1 12825 1.100000 28.08600
12826 SI 12826 SI SI1 12826 1.100000 28.08600
12827 SI 12827 SI SI1 12827 1.100000 28.08600
12828 SI 12828 SI SI1 12828 1.100000 28.08600
12829 SI 12829 SI SI1 12829 1.100000 28.08600
12830 SI 12830 SI SI1 12830 1.100000 28.08600
12831 SI 12831 SI SI1 12831 1.100000 28.08600
12832 SI 12832 SI SI1 12832 1.100000 28.08600
12833 SI 12833 SI SI1 12833 1.100000 28.08600
12834 SI 12834 SI SI1 12834 1.100000 28.08600
12835 SI 12835 SI SI1 12835 1.100000 28.08600
12836 SI 12836 SI SI1 12836 1.100000 28.08600
12837 SI 12837 SI SI1 12837 1.100000 28.08600
12838 SI 12838 SI SI1 12838 1.100000 28.08600
12839 SI 12839 SI SI1 12839 1.100000 28.08600
12840 SI 12840 SI SI1 12840 1.100000 28.08600
12841 SI 12841 SI SI1 12841 1.100000 28.08600
12842 SI 12842 SI SI1 12842 1.100000 28.08600
12843 SI 12843 SI SI1 12843 1.100000 28.08600
12844 SI 12844 SI SI1 12844 1.100000 28.08600
12845 SI 12845 SI SI1 12845 1.100000 28.08600
12846 SI 12846 SI SI1 12846 1.100000 28.08600
12847 SI 12847 SI SI1 12847 1.100000 28.08600
12848 SI 12848 SI SI1 12848 1.100000 28.08600
12849 SI 12849 SI SI1 12849 1.100000 28.08600
12850 SI 12850 SI SI1 12850 1.100000 28.08600
12851 SI 12851 SI SI1 12851 1.100000 28.08600
12852 SI 12852 SI SI1 12852 1.100000 28.08600
12853 SI 12853 SI SI1 12853 1.100000 28.08600
12854 SI 12854 SI SI1 12854 1.100000 28.08600
12855 SI 12855 SI SI1 12855 1.100000 28.08600
12856 SI 12856 SI SI1 12856 1.100000 28.08600
12857 SI 12857 SI SI1 12857 1.100000 28.08600
12858 SI 12858 SI SI1 12858 1.100000 28.08600
12859 SI 12859 SI SI1 12859 1.100000 28.08600
12860 SI 12860 SI SI1 12860 1.100000 28.08600
12861 SI 12861 SI SI1 12861 1.100000 28.08600
12862 SI 12862 SI SI1 12862 1.100000 28.08600
12863 SI 12863 SI SI1 12863 1.100000 28.08600
12864 SI 12864 SI SI1 12864 1.100000 28.08600
12865 SI 12865 SI SI1 12865 1.100000 28.08600
12866 SI 12866 SI SI1 12866 1.100000 28.08600
12867 SI 12867 SI SI1 12867 1.100000 28.08600
12868 SI 12868 SI SI1 12868 1.100000 28.08600
12869 SI 12869 SI SI1 12869 1.100000 28.08600
12870 SI 12870 SI SI1 12870 1.100000 28.08600
12871 SI 12871 SI SI1 12871 1.100000 28.08600
12872 SI 12872 SI SI1 12872 1.100000 28.08600
12873 SI 12873 SI SI1 12873 1.100000 28.08600
12874 SI 12874 SI SI1 12874 1.100000 28.08600
12875 SI 12875 SI SI1 12875 1.100000 28.08600
12876 SI 12876 SI SI1 12876 1.100000 28.08600
12877 SI 12877 SI SI1 12877 1.100000 28.08600
12878 SI 12878 SI SI1 12878 1.100000 28.08600
12879 SI 12879 SI SI1 12879 1.100000 28.08600
12880 SI 12880 SI SI1 12880 1.100000 28.08600
12881 SI 12881 SI SI1 12881 1.100000 28.08600
12882 SI 12882 SI SI1 12882 1.100000 28.08600
12883 SI 12883 SI SI1 12883 1.100000 28.08600
12884 SI 12884 SI SI1 12884 1.100000 28.08600
12885 SI 12885 SI SI1 12885 1.100000 28.08600
12886 SI 12886 SI SI1 12886 1.100000 28.08600
12887 SI 12887 SI SI1 12887 1.100000 28.08600
12888 SI 12888 SI SI1 12888 1.100000 28.08600
12889 SI 12889 SI SI1 12889 1.100000 28.08600
12890 SI 12890 SI SI1 12890 1.100000 28.08600
12891 SI 12891 SI SI1 12891 1.100000 28.08600
12892 SI 12892 SI SI1 12892 1.100000 28.08600
12893 SI 12893 SI SI1 12893 1.100000 28.08600
12894 SI 12894 SI SI1 12894 1.100000 28.08600
12895 SI 12895 SI SI1 12895 1.100000 28.08600
12896 SI 12896 SI SI1 12896 1.100000 28.08600
12897 SI 12897 SI SI1 12897 1.100000 28.08600
12898 SI 12898 SI SI1 12898 1.100000 28.08600
12899 SI 12899 SI SI1 12899 1.100000 28.08600
12900 SI 12900 SI SI1 12900 1.100000 28.08600
12901 SI 12901 SI SI1 12901 1.100000 28.08600
12902 SI 12902 SI SI1 12902 1.100000 28.08600
12903 SI 12903 SI SI1 12903 1.100000 28.08600
12904 SI 12904 SI SI1 12904 1.100000 28.08600
12905 SI 12905 SI SI1 12905 1.100000 28.08600
12906 SI 12906 SI SI1 12906 1.100000 28.08600
12907 SI 12907 SI SI1 12907 1.100000 28.08600
12908 SI 12908 SI SI1 12908 1.100000 28.08600
12909 SI 12909 SI SI1 12909 1.100000 28.08600
12910 SI 12910 SI SI1 12910 1.100000 28.08600
12911 SI 12911 SI SI1 12911 1.100000 28.08600
12912 SI 12912 SI SI1 12912 1.100000 28.08600
12913 SI 12913 SI SI1 12913 1.100000 28.08600
12914 SI 12914 SI SI1 12914 1.100000 28.08600
12915 SI 12915 SI SI1 12915 1.100000 28.08600
12916 SI 12916 SI SI1 12916 1.100000 28.08600
12917 SI 12917 SI SI1 12917 1.100000 28.08600
12918 SI 12918 SI SI1 12918 1.100000 28.08600
12919 SI 12919 SI SI1 12919 1.100000 28.08600
12920 SI 12920 SI SI1 12920 1.100000 28.08600
12921 SI 12921 SI SI1 12921 1.100000 28.08600
12922 SI 12922 SI SI1 12922 1.100000 28.08600
12923 SI 12923 SI SI1 12923 1.100000 28.08600
12924 SI 12924 SI SI1 12924 1.100000 28.08600
12925 SI 12925 SI SI1 12925 1.100000 28.08600
12926 SI 12926 SI SI1 12926 1.100000 28.08600
12927 SI 12927 SI SI1 12927 1.100000 28.08600
12928 SI 12928 SI SI1 12928 1.100000 28.08600
12929 SI 12929 SI SI1 12929 1.100000 28.08600
12930 SI 12930 SI SI1 12930 1.100000 28.08600
12931 SI 12931 SI SI1 12931 1.100000 28.08600
12932 SI 12932 SI SI1 12932 1.100000 28.08600
12933 SI 12933 SI SI1 12933 1.100000 28.08600
12934 SI 12934 SI SI1 12934 1.100000 28.08600
12935 SI 12935 SI SI1 12935 1.100000 28.08600
12936 SI 12936 SI SI1 12936 1.100000 28.08600
12937 SI 12937 SI SI1 12937 1.100000 28.08600
12938 SI 12938 SI SI1 12938 1.100000 28.08600
12939 SI 12939 SI SI1 12939 1.100000 28.08600
12940 SI 12940 SI SI1 12940 1.100000 28.08600
12941 SI 12941 SI SI1 12941 1.100000 28.08600
12942 SI 12942 SI SI1 12942 1.100000 28.08600
12943 SI 12943 SI SI1 12943 1.100000 28.08600
12944 SI 12944 SI SI1 12944 1.100000 28.08600
12945 SI 12945 SI SI1 12945 1.100000 28.08600
12946 SI 12946 SI SI1 12946 1.100000 28.08600
12947 SI 12947 SI SI1 12947 1.100000 28.08600
12948 SI 12948 SI SI1 12948 1.100000 28.08600
12949 SI 12949 SI SI1 12949 1.100000 28.08600
12950 SI 12950 SI SI1 12950 1.100000 28.08600
12951 SI 12951 SI SI1 12951 1.100000 28.08600
12952 SI 12952 SI SI1 12952 1.100000 28.08600
12953 SI 12953 SI SI1 12953 1.100000 28.08600
12954 SI 12954 SI SI1 12954 1.100000 28.08600
12955 SI 12955 SI SI1 12955 1.100000 28.08600
12956 SI 12956 SI SI1 12956 1.100000 28.08600
12957 SI 12957 SI SI1 12957 1.100000 28.08600
12958 SI 12958 SI SI1 12958 1.100000 28.08600
12959 SI 12959 SI SI1 12959 1.100000 28.08600
12960 SI 12960 SI SI1 12960 1.100000 28.08600
12961 SI 12961 SI SI1 12961 1.100000 28.08600
12962 SI 12962 SI SI1 12962 1.100000 28.08600
12963 SI 12963 SI SI1 12963 1.100000 28.08600
12964 SI 12964 SI SI1 12964 1.100000 28.08600
12965 SI 12965 SI SI1 12965 1.100000 28.08600
12966 SI 12966 SI SI1 12966 1.100000 28.08600
12967 SI 12967 SI SI1 12967 1.100000 28.08600
12968 SI 12968 SI SI1 12968 1.100000 28.08600
12969 SI 12969 SI SI1 12969 1.100000 28.08600
12970 SI 12970 SI SI1 12970 1.100000 28.08600
12971 SI 12971 SI SI1 12971 1.100000 28.08600
12972 SI 12972 SI SI1 12972 1.100000 28.08600
12973 SI 12973 SI SI1 12973 1.100000 28.08600
12974 SI 12974 SI SI1 12974 1.100000 28.08600
12975 SI 12975 SI SI1 12975 1.100000 28.08600
12976 SI 12976 SI SI1 12976 1.100000 28.08600
12977 SI 12977 SI SI1 12977 1.100000 28.08600
12978 SI 12978 SI SI1 12978 1.100000 28.08600
12979 SI 12979 SI SI1 12979 1.100000 28.08600
12980 SI 12980 SI SI1 12980 1.100000 28.08600
12981 SI 12981 SI SI1 12981 1.100000 28.08600
12982 SI 12982 SI SI1 12982 1.100000 28.08600
12983 SI 12983 SI SI1 12983 1.100000 28.08600
12984 SI 12984 SI SI1 12984 1.100000 28.08600
12985 SI 12985 SI SI1 12985 1.100000 28.08600
12986 SI 12986 SI SI1 12986 1.100000 28.08600
12987 SI 12987 SI SI1 12987 1.100000 28.08600
12988 SI 12988 SI SI1 12988 1.100000 28.08600
12989 SI 12989 SI SI1 12989 1.100000 28.08600
12990 SI 12990 SI SI1 12990 1.100000 28.08600
12991 SI 12991 SI SI1 12991 1.100000 28.08600
12992 SI 12992 SI SI1 12992 1.100000 28.08600
12993 SI 12993 SI SI1 12993 1.100000 28.08600
12994 SI 12994 SI SI1 12994 1.100000 28.08600
12995 SI 12995 SI SI1 12995 1.100000 28.08600
12996 SI 12996 SI SI1 12996 1.100000 28.08600
12997 SI 12997 SI SI1 12997 1.100000 28.08600
12998 SI 12998 SI SI1 12998 1.100000 28.08600
12999 SI 12999 SI SI1 12999 1.100000 28.08600
13000 SI 13000 SI SI1 13000 1.100000 28.08600
13001 SI 13001 SI SI1 13001 1.100000 28.08600
13002 SI 13002 SI SI1 13002 1.100000 28.08600
13003 SI 13003 SI SI1 13003 1.100000 28.08600
13004 SI 13004 SI SI1 13004 1.100000 28.08600
13005 SI 13005 SI SI1 13005 1.100000 28.08600
13006 SI 13006 SI SI1 13006 1.100000 28.08600
13007 SI 13007 SI SI1 13007 1.100000 28.08600
13008 SI 13008 SI SI1 13008 1.100000 28.08600
13009 SI 13009 SI SI1 13009 1.100000 28.08600
13010 SI 13010 SI SI1 13010 1.100000 28.08600
13011 SI 13011 SI SI1 13011 1.100000 28.08600
13012 SI 13012 SI SI1 13012 1.100000 28.08600
13013 SI 13013 SI SI1 13013 1.100000 28.08600
13014 SI 13014 SI SI1 13014 1.100000 28.08600
13015 SI 13015 SI SI1 13015 1.100000 28.08600
13016 SI 13016 SI SI1 13016 1.100000 28.08600
13017 SI 13017 SI SI1 13017 1.100000 28.08600
13018 SI 13018 SI SI1 13018 1.100000 28.08600
13019 SI 13019 SI SI1 13019 1.100000 28.08600
13020 SI 13020 SI SI1 13020 1.100000 28.08600
13021 SI 13021 SI SI1 13021 1.100000 28.08600
13022 SI 13022 SI SI1 13022 1.100000 28.08600
13023 SI 13023 SI SI1 13023 1.100000 28.08600
13024 SI 13024 SI SI1 13024 1.100000 28.08600
13025 SI 13025 SI SI1 13025 1.100000 28.08600
13026 SI 13026 SI SI1 13026 1.100000 28.08600
13027 SI 13027 SI SI1 13027 1.100000 28.08600
13028 SI 13028 SI SI1 13028 1.100000 28.08600
13029 SI 13029 SI SI1 13029 1.100000 28.08600
13030 SI 13030 SI SI1 13030 1.100000 28.08600
13031 SI 13031 SI SI1 13031 1.100000 28.08600
13032 SI 13032 SI SI1 13032 1.100000 28.08600
13033 SI 13033 SI SI1 13033 1.100000 28.08600
13034 SI 13034 SI SI1 13034 1.100000 28.08600
13035 SI 13035 SI SI1 13035 1.100000 28.08600
13036 SI 13036 SI SI1 13036 1.100000 28.08600
13037 SI 13037 SI SI1 13037 1.100000 28.08600
13038 SI 13038 SI SI1 13038 1.100000 28.08600
13039 SI 13039 SI SI1 13039 1.100000 28.08600
13040 SI 13040 SI SI1 13040 1.100000 28.08600
13041 SI 13041 SI SI1 13041 1.100000 28.08600
13042 SI 13042 SI SI1 13042 1.100000 28.08600
13043 SI 13043 SI SI1 13043 1.100000 28.08600
13044 SI 13044 SI SI1 13044 1.100000 28.08600
13045 SI 13045 SI SI1 13045 1.100000 28.08600
13046 SI 13046 SI SI1 13046 1.100000 28.08600
13047 SI 13047 SI SI1 13047 1.100000 28.08600
13048 SI 13048 SI SI1 13048 1.100000 28.08600
13049 SI 13049 SI SI1 13049 1.100000 28.08600
13050 SI 13050 SI SI1 13050 1.100000 28.08600
13051 SI 13051 SI SI1 13051 1.100000 28.08600
13052 SI 13052 SI SI1 13052 1.100000 28.08600
13053 SI 13053 SI SI1 13053 1.100000 28.08600
13054 SI 13054 SI SI1 13054 1.100000 28.08600
13055 SI 13055 SI SI1 13055 1.100000 28.08600
13056 SI 13056 SI SI1 13056 1.100000 28.08600
13057 SI 13057 SI SI1 13057 1.100000 28.08600
13058 SI 13058 SI SI1 13058 1.100000 28.08600
13059 SI 13059 SI SI1 13059 1.100000 28.08600
13060 SI 13060 SI SI1 13060 1.100000 28.08600
13061 SI 13061 SI SI1 13061 1.100000 28.08600
13062 SI 13062 SI SI1 13062 1.100000 28.08600
13063 SI 13063 SI SI1 13063 1.100000 28.08600
13064 SI 13064 SI SI1 13064 1.100000 28.08600
13065 SI 13065 SI SI1 13065 1.100000 28.08600
13066 SI 13066 SI SI1 13066 1.100000 28.08600
13067 SI 13067 SI SI1 13067 1.100000 28.08600
13068 SI 13068 SI SI1 13068 1.100000 28.08600
13069 SI 13069 SI SI1 13069 1.100000 28.08600
13070 SI 13070 SI SI1 13070 1.100000 28.08600
13071 SI 13071 SI SI1 13071 1.100000 28.08600
13072 SI 13072 SI SI1 13072 1.100000 28.08600
13073 SI 13073 SI SI1 13073 1.100000 28.08600
13074 SI 13074 SI SI1 13074 1.100000 28.08600
13075 SI 13075 SI SI1 13075 1.100000 28.08600
13076 SI 13076 SI SI1 13076 1.100000 28.08600
13077 SI 13077 SI SI1 13077 1.100000 28.08600
13078 SI 13078 SI SI1 13078 1.100000 28.08600
13079 SI 13079 SI SI1 13079 1.100000 28.08600
13080 SI 13080 SI SI1 13080 1.100000 28.08600
13081 SI 13081 SI SI1 13081 1.100000 28.08600
13082 SI 13082 SI SI1 13082 1.100000 28.08600
13083 SI 13083 SI SI1 13083 1.100000 28.08600
13084 SI 13084 SI SI1 13084 1.100000 28.08600
13085 SI 13085 SI SI1 13085 1.100000 28.08600
13086 SI 13086 SI SI1 13086 1.100000 28.08600
13087 SI 13087 SI SI1 13087 1.100000 28.08600
13088 SI 13088 SI SI1 13088 1.100000 28.08600
13089 SI 13089 SI SI1 13089 1.100000 28.08600
13090 SI 13090 SI SI1 13090 1.100000 28.08600
13091 SI 13091 SI SI1 13091 1.100000 28.08600
13092 SI 13092 SI SI1 13092 1.100000 28.08600
13093 SI 13093 SI SI1 13093 1.100000 28.08600
13094 SI 13094 SI SI1 13094 1.100000 28.08600
13095 SI 13095 SI SI1 13095 1.100000 28.08600
13096 SI 13096 SI SI1 13096 1.100000 28.08600
13097 SI 13097 SI SI1 13097 1.100000 28.08600
13098 SI 13098 SI SI1 13098 1.100000 28.08600
13099 SI 13099 SI SI1 13099 1.100000 28.08600
13100 SI 13100 SI SI1 13100 1.100000 28.08600
13101 SI 13101 SI SI1 13101 1.100000 28.08600
13102 SI 13102 SI SI1 13102 1.100000 28.08600
13103 SI 13103 SI SI1 13103 1.100000 28.08600
13104 SI 13104 SI SI1 13104 1.100000 28.08600
13105 SI 13105 SI SI1 13105 1.100000 28.08600
13106 SI 13106 SI SI1 13106 1.100000 28.08600
13107 SI 13107 SI SI1 13107 1.100000 28.08600
13108 SI 13108 SI SI1 13108 1.100000 28.08600
13109 SI 13109 SI SI1 13109 1.100000 28.08600
13110 SI 13110 SI SI1 13110 1.100000 28.08600
13111 SI 13111 SI SI1 13111 1.100000 28.08600
13112 SI 13112 SI SI1 13112 1.100000 28.08600
13113 SI 13113 SI SI1 13113 1.100000 28.08600
13114 SI 13114 SI SI1 13114 1.100000 28.08600
13115 SI 13115 SI SI1 13115 1.100000 28.08600
13116 SI 13116 SI SI1 13116 1.100000 28.08600
13117 SI 13117 SI SI1 13117 1.100000 28.08600
13118 SI 13118 SI SI1 13118 1.100000 28.08600
13119 SI 13119 SI SI1 13119 1.100000 28.08600
13120 SI 13120 SI SI1 13120 1.100000 28.08600
13121 SI 13121 SI SI1 13121 1.100000 28.08600
13122 SI 13122 SI SI1 13122 1.100000 28.08600
13123 SI 13123 SI SI1 13123 1.100000 28.08600
13124 SI 13124 SI SI1 13124 1.100000 28.08600
13125 SI 13125 SI SI1 13125 1.100000 28.08600
13126 SI 13126 SI SI1 13126 1.100000 28.08600
13127 SI 13127 SI SI1 13127 1.100000 28.08600
13128 SI 13128 SI SI1 13128 1.100000 28.08600
13129 SI 13129 SI SI1 13129 1.100000 28.08600
13130 SI 13130 SI SI1 13130 1.100000 28.08600
13131 SI 13131 SI SI1 13131 1.100000 28.08600
13132 SI 13132 SI SI1 13132 1.100000 28.08600
13133 SI 13133 SI SI1 13133 1.100000 28.08600
13134 SI 13134 SI SI1 13134 1.100000 28.08600
13135 SI 13135 SI SI1 13135 1.100000 28.08600
13136 SI 13136 SI SI1 13136 1.100000 28.08600
13137 SI 13137 SI SI1 13137 1.100000 28.08600
13138 SI 13138 SI SI1 13138 1.100000 28.08600
13139 SI 13139 SI SI1 13139 1.100000 28.08600
13140 SI 13140 SI SI1 13140 1.100000 28.08600
13141 SI 13141 SI SI1 13141 1.100000 28.08600
13142 SI 13142 SI SI1 13142 1.100000 28.08600
13143 SI 13143 SI SI1 13143 1.100000 28.08600
13144 SI 13144 SI SI1 13144 1.100000 28.08600
13145 SI 13145 SI SI1 13145 1.100000 28.08600
13146 SI 13146 SI SI1 13146 1.100000 28.08600
13147 SI 13147 SI SI1 13147 1.100000 28.08600
13148 SI 13148 SI SI1 13148 1.100000 28.08600
13149 SI 13149 SI SI1 13149 1.100000 28.08600
13150 SI 13150 SI SI1 13150 1.100000 28.08600
13151 SI 13151 SI SI1 13151 1.100000 28.08600
13152 SI 13152 SI SI1 13152 1.100000 28.08600
13153 SI 13153 SI SI1 13153 1.100000 28.08600
13154 SI 13154 SI SI1 13154 1.100000 28.08600
13155 SI 13155 SI SI1 13155 1.100000 28.08600
13156 SI 13156 SI SI1 13156 1.100000 28.08600
13157 SI 13157 SI SI1 13157 1.100000 28.08600
13158 SI 13158 SI SI1 13158 1.100000 28.08600
13159 SI 13159 SI SI1 13159 1.100000 28.08600
13160 SI 13160 SI SI1 13160 1.100000 28.08600
13161 SI 13161 SI SI1 13161 1.100000 28.08600
13162 SI 13162 SI SI1 13162 1.100000 28.08600
13163 SI 13163 SI SI1 13163 1.100000 28.08600
13164 SI 13164 SI SI1 13164 1.100000 28.08600
13165 SI 13165 SI SI1 13165 1.100000 28.08600
13166 SI 13166 SI SI1 13166 1.100000 28.08600
13167 SI 13167 SI SI1 13167 1.100000 28.08600
13168 SI 13168 SI SI1 13168 1.100000 28.08600
13169 SI 13169 SI SI1 13169 1.100000 28.08600
13170 SI 13170 SI SI1 13170 1.100000 28.08600
13171 SI 13171 SI SI1 13171 1.100000 28.08600
13172 SI 13172 SI SI1 13172 1.100000 28.08600
13173 SI 13173 SI SI1 13173 1.100000 28.08600
13174 SI 13174 SI SI1 13174 1.100000 28.08600
13175 SI 13175 SI SI1 13175 1.100000 28.08600
13176 SI 13176 SI SI1 13176 1.100000 28.08600
13177 SI 13177 SI SI1 13177 1.100000 28.08600
13178 SI 13178 SI SI1 13178 1.100000 28.08600
13179 SI 13179 SI SI1 13179 1.100000 28.08600
13180 SI 13180 SI SI1 13180 1.100000 28.08600
13181 SI 13181 SI SI1 13181 1.100000 28.08600
13182 SI 13182 SI SI1 13182 1.100000 28.08600
13183 SI 13183 SI SI1 13183 1.100000 28.08600
13184 SI 13184 SI SI1 13184 1.100000 28.08600
13185 SI 13185 SI SI1 13185 1.100000 28.08600
13186 SI 13186 SI SI1 13186 1.100000 28.08600
13187 SI 13187 SI SI1 13187 1.100000 28.08600
13188 SI 13188 SI SI1 13188 1.100000 28.08600
13189 SI 13189 SI SI1 13189 1.100000 28.08600
13190 SI 13190 SI SI1 13190 1.100000 28.08600
13191 SI 13191 SI SI1 13191 1.100000 28.08600
13192 SI 13192 SI SI1 13192 1.100000 28.08600
13193 SI 13193 SI SI1 13193 1.100000 28.08600
13194 SI 13194 SI SI1 13194 1.100000 28.08600
13195 SI 13195 SI SI1 13195 1.100000 28.08600
13196 SI 13196 SI SI1 13196 1.100000 28.08600
13197 SI 13197 SI SI1 13197 1.100000 28.08600
13198 SI 13198 SI SI1 13198 1.100000 28.08600
13199 SI 13199 SI SI1 13199 1.100000 28.08600
13200 SI 13200 SI SI1 13200 1.100000 28.08600
13201 SI 13201 SI SI1 13201 1.100000 28.08600
13202 SI 13202 SI SI1 13202 1.100000 28.08600
13203 SI 13203 SI SI1 13203 1.100000 28.08600
13204 SI 13204 SI SI1 13204 1.100000 28.08600
13205 SI 13205 SI SI1 13205 1.100000 28.08600
13206 SI 13206 SI SI1 13206 1.100000 28.08600
13207 SI 13207 SI SI1 13207 1.100000 28.08600
13208 SI 13208 SI SI1 13208 1.100000 28.08600
13209 SI 13209 SI SI1 13209 1.100000 28.08600
13210 SI 13210 SI SI1 13210 1.100000 28.08600
13211 SI 13211 SI SI1 13211 1.100000 28.08600
13212 SI 13212 SI SI1 13212 1.100000 28.08600
13213 SI 13213 SI SI1 13213 1.100000 28.08600
13214 SI 13214 SI SI1 13214 1.100000 28.08600
13215 SI 13215 SI SI1 13215 1.100000 28.08600
13216 SI 13216 SI SI1 13216 1.100000 28.08600
13217 SI 13217 SI SI1 13217 1.100000 28.08600
13218 SI 13218 SI SI1 13218 1.100000 28.08600
13219 SI 13219 SI SI1 13219 1.100000 28.08600
13220 SI 13220 SI SI1 13220 1.100000 28.08600
13221 SI 13221 SI SI1 13221 1.100000 28.08600
13222 SI 13222 SI SI1 13222 1.100000 28.08600
13223 SI 13223 SI SI1 13223 1.100000 28.08600
13224 SI 13224 SI SI1 13224 1.100000 28.08600
13225 SI 13225 SI SI1 13225 1.100000 28.08600
13226 SI 13226 SI SI1 13226 1.100000 28.08600
13227 SI 13227 SI SI1 13227 1.100000 28.08600
13228 SI 13228 SI SI1 13228 1.100000 28.08600
13229 SI 13229 SI SI1 13229 1.100000 28.08600
13230 SI 13230 SI SI1 13230 1.100000 28.08600
13231 SI 13231 SI SI1 13231 1.100000 28.08600
13232 SI 13232 SI SI1 13232 1.100000 28.08600
13233 SI 13233 SI SI1 13233 1.100000 28.08600
13234 SI 13234 SI SI1 13234 1.100000 28.08600
13235 SI 13235 SI SI1 13235 1.100000 28.08600
13236 SI 13236 SI SI1 13236 1.100000 28.08600
13237 SI 13237 SI SI1 13237 1.100000 28.08600
13238 SI 13238 SI SI1 13238 1.100000 28.08600
13239 SI 13239 SI SI1 13239 1.100000 28.08600
13240 SI 13240 SI SI1 13240 1.100000 28.08600
13241 SI 13241 SI SI1 13241 1.100000 28.08600
13242 SI 13242 SI SI1 13242 1.100000 28.08600
13243 SI 13243 SI SI1 13243 1.100000 28.08600
13244 SI 13244 SI SI1 13244 1.100000 28.08600
13245 SI 13245 SI SI1 13245 1.100000 28.08600
13246 SI 13246 SI SI1 13246 1.100000 28.08600
13247 SI 13247 SI SI1 13247 1.100000 28.08600
13248 SI 13248 SI SI1 13248 1.100000 28.08600
13249 SI 13249 SI SI1 13249 1.100000 28.08600
13250 SI 13250 SI SI1 13250 1.100000 28.08600
13251 SI 13251 SI SI1 13251 1.100000 28.08600
13252 SI 13252 SI SI1 13252 1.100000 28.08600
13253 SI 13253 SI SI1 13253 1.100000 28.08600
13254 SI 13254 SI SI1 13254 1.100000 28.08600
13255 SI 13255 SI SI1 13255 1.100000 28.08600
13256 SI 13256 SI SI1 13256 1.100000 28.08600
13257 SI 13257 SI SI1 13257 1.100000 28.08600
13258 SI 13258 SI SI1 13258 1.100000 28.08600
13259 SI 13259 SI SI1 13259 1.100000 28.08600
13260 SI 13260 SI SI1 13260 1.100000 28.08600
13261 SI 13261 SI SI1 13261 1.100000 28.08600
13262 SI 13262 SI SI1 13262 1.100000 28.08600
13263 SI 13263 SI SI1 13263 1.100000 28.08600
13264 SI 13264 SI SI1 13264 1.100000 28.08600
13265 SI 13265 SI SI1 13265 1.100000 28.08600
13266 SI 13266 SI SI1 13266 1.100000 28.08600
13267 SI 13267 SI SI1 13267 1.100000 28.08600
13268 SI 13268 SI SI1 13268 1.100000 28.08600
13269 SI 13269 SI SI1 13269 1.100000 28.08600
13270 SI 13270 SI SI1 13270 1.100000 28.08600
13271 SI 13271 SI SI1 13271 1.100000 28.08600
13272 SI 13272 SI SI1 13272 1.100000 28.08600
13273 SI 13273 SI SI1 13273 1.100000 28.08600
13274 SI 13274 SI SI1 13274 1.100000 28.08600
13275 SI 13275 SI SI1 13275 1.100000 28.08600
13276 SI 13276 SI SI1 13276 1.100000 28.08600
13277 SI 13277 SI SI1 13277 1.100000 28.08600
13278 SI 13278 SI SI1 13278 1.100000 28.08600
13279 SI 13279 SI SI1 13279 1.100000 28.08600
13280 SI 13280 SI SI1 13280 1.100000 28.08600
13281 SI 13281 SI SI1 13281 1.100000 28.08600
13282 SI 13282 SI SI1 13282 1.100000 28.08600
13283 SI 13283 SI SI1 13283 1.100000 28.08600
13284 SI 13284 SI SI1 13284 1.100000 28.08600
13285 SI 13285 SI SI1 13285 1.100000 28.08600
13286 SI 13286 SI SI1 13286 1.100000 28.08600
13287 SI 13287 SI SI1 13287 1.100000 28.08600
13288 SI 13288 SI SI1 13288 1.100000 28.08600
13289 SI 13289 SI SI1 13289 1.100000 28.08600
13290 SI 13290 SI SI1 13290 1.100000 28.08600
13291 SI 13291 SI SI1 13291 1.100000 28.08600
13292 SI 13292 SI SI1 13292 1.100000 28.08600
13293 SI 13293 SI SI1 13293 1.100000 28.08600
13294 SI 13294 SI SI1 13294 1.100000 28.08600
13295 SI 13295 SI SI1 13295 1.100000 28.08600
13296 SI 13296 SI SI1 13296 1.100000 28.08600
13297 SI 13297 SI SI1 13297 1.100000 28.08600
13298 SI 13298 SI SI1 13298 1.100000 28.08600
13299 SI 13299 SI SI1 13299 1.100000 28.08600
13300 SI 13300 SI SI1 13300 1.100000 28.08600
13301 SI 13301 SI SI1 13301 1.100000 28.08600
13302 SI 13302 SI SI1 13302 1.100000 28.08600
13303 SI 13303 SI SI1 13303 1.100000 28.08600
13304 SI 13304 SI SI1 13304 1.100000 28.08600
13305 SI 13305 SI SI1 13305 1.100000 28.08600
13306 SI 13306 SI SI1 13306 1.100000 28.08600
13307 SI 13307 SI SI1 13307 1.100000 28.08600
13308 SI 13308 SI SI1 13308 1.100000 28.08600
13309 SI 13309 SI SI1 13309 1.100000 28.08600
13310 SI 13310 SI SI1 13310 1.100000 28.08600
13311 SI 13311 SI SI1 13311 1.100000 28.08600
13312 SI 13312 SI SI1 13312 1.100000 28.08600
13313 SI 13313 SI SI1 13313 1.100000 28.08600
13314 SI 13314 SI SI1 13314 1.100000 28.08600
13315 SI 13315 SI SI1 13315 1.100000 28.08600
13316 SI 13316 SI SI1 13316 1.100000 28.08600
13317 SI 13317 SI SI1 13317 1.100000 28.08600
13318 SI 13318 SI SI1 13318 1.100000 28.08600
13319 SI 13319 SI SI1 13319 1.100000 28.08600
13320 SI 13320 SI SI1 13320 1.100000 28.08600
13321 SI 13321 SI SI1 13321 1.100000 28.08600
13322 SI 13322 SI SI1 13322 1.100000 28.08600
13323 SI 13323 SI SI1 13323 1.100000 28.08600
13324 SI 13324 SI SI1 13324 1.100000 28.08600
13325 SI 13325 SI SI1 13325 1.100000 28.08600
13326 SI 13326 SI SI1 13326 1.100000 28.08600
13327 SI 13327 SI SI1 13327 1.100000 28.08600
13328 SI 13328 SI SI1 13328 1.100000 28.08600
13329 SI 13329 SI SI1 13329 1.100000 28.08600
13330 SI 13330 SI SI1 13330 1.100000 28.08600
13331 SI 13331 SI SI1 13331 1.100000 28.08600
13332 SI 13332 SI SI1 13332 1.100000 28.08600
13333 SI 13333 SI SI1 13333 1.100000 28.08600
13334 SI 13334 SI SI1 13334 1.100000 28.08600
13335 SI 13335 SI SI1 13335 1.100000 28.08600
13336 SI 13336 SI SI1 13336 1.100000 28.08600
13337 SI 13337 SI SI1 13337 1.100000 28.08600
13338 SI 13338 SI SI1 13338 1.100000 28.08600
13339 SI 13339 SI SI1 13339 1.100000 28.08600
13340 SI 13340 SI SI1 13340 1.100000 28.08600
13341 SI 13341 SI SI1 13341 1.100000 28.08600
13342 SI 13342 SI SI1 13342 1.100000 28.08600
13343 SI 13343 SI SI1 13343 1.100000 28.08600
13344 SI 13344 SI SI1 13344 1.100000 28.08600
13345 SI 13345 SI SI1 13345 1.100000 28.08600
13346 SI 13346 SI SI1 13346 1.100000 28.08600
13347 SI 13347 SI SI1 13347 1.100000 28.08600
13348 SI 13348 SI SI1 13348 1.100000 28.08600
13349 SI 13349 SI SI1 13349 1.100000 28.08600
13350 SI 13350 SI SI1 13350 1.100000 28.08600
13351 SI 13351 SI SI1 13351 1.100000 28.08600
13352 SI 13352 SI SI1 13352 1.100000 28.08600
13353 SI 13353 SI SI1 13353 1.100000 28.08600
13354 SI 13354 SI SI1 13354 1.100000 28.08600
13355 SI 13355 SI SI1 13355 1.100000 28.08600
13356 SI 13356 SI SI1 13356 1.100000 28.08600
13357 SI 13357 SI SI1 13357 1.100000 28.08600
13358 SI 13358 SI SI1 13358 1.100000 28.08600
13359 SI 13359 SI SI1 13359 1.100000 28.08600
13360 SI 13360 SI SI1 13360 1.100000 28.08600
13361 SI 13361 SI SI1 13361 1.100000 28.08600
13362 SI 13362 SI SI1 13362 1.100000 28.08600
13363 SI 13363 SI SI1 13363 1.100000 28.08600
13364 SI 13364 SI SI1 13364 1.100000 28.08600
13365 SI 13365 SI SI1 13365 1.100000 28.08600
13366 SI 13366 SI SI1 13366 1.100000 28.08600
13367 SI 13367 SI SI1 13367 1.100000 28.08600
13368 SI 13368 SI SI1 13368 1.100000 28.08600
13369 SI 13369 SI SI1 13369 1.100000 28.08600
13370 SI 13370 SI SI1 13370 1.100000 28.08600
13371 SI 13371 SI SI1 13371 1.100000 28.08600
13372 SI 13372 SI SI1 13372 1.100000 28.08600
13373 SI 13373 SI SI1 13373 1.100000 28.08600
13374 SI 13374 SI SI1 13374 1.100000 28.08600
13375 SI 13375 SI SI1 13375 1.100000 28.08600
13376 SI 13376 SI SI1 13376 1.100000 28.08600
13377 SI 13377 SI SI1 13377 1.100000 28.08600
13378 SI 13378 SI SI1 13378 1.100000 28.08600
13379 SI 13379 SI SI1 13379 1.100000 28.08600
13380 SI 13380 SI SI1 13380 1.100000 28.08600
13381 SI 13381 SI SI1 13381 1.100000 28.08600
13382 SI 13382 SI SI1 13382 1.100000 28.08600
13383 SI 13383 SI SI1 13383 1.100000 28.08600
13384 SI 13384 SI SI1 13384 1.100000 28.08600
13385 SI 13385 SI SI1 13385 1.100000 28.08600
13386 SI 13386 SI SI1 13386 1.100000 28.08600
13387 SI 13387 SI SI1 13387 1.100000 28.08600
13388 SI 13388 SI SI1 13388 1.100000 28.08600
13389 SI 13389 SI SI1 13389 1.100000 28.08600
13390 SI 13390 SI SI1 13390 1.100000 28.08600
13391 SI 13391 SI SI1 13391 1.100000 28.08600
13392 SI 13392 SI SI1 13392 1.100000 28.08600
13393 SI 13393 SI SI1 13393 1.100000 28.08600
13394 SI 13394 SI SI1 13394 1.100000 28.08600
13395 SI 13395 SI SI1 13395 1.100000 28.08600
13396 SI 13396 SI SI1 13396 1.100000 28.08600
13397 SI 13397 SI SI1 13397 1.100000 28.08600
13398 SI 13398 SI SI1 13398 1.100000 28.08600
13399 SI 13399 SI SI1 13399 1.100000 28.08600
13400 SI 13400 SI SI1 13400 1.100000 28.08600
13401 SI 13401 SI SI1 13401 1.100000 28.08600
13402 SI 13402 SI SI1 13402 1.100000 28.08600
13403 SI 13403 SI SI1 13403 1.100000 28.08600
13404 SI 13404 SI SI1 13404 1.100000 28.08600
13405 SI 13405 SI SI1 13405 1.100000 28.08600
13406 SI 13406 SI SI1 13406 1.100000 28.08600
13407 SI 13407 SI SI1 13407 1.100000 28.08600
13408 SI 13408 SI SI1 13408 1.100000 28.08600
13409 SI 13409 SI SI1 13409 1.100000 28.08600
13410 SI 13410 SI SI1 13410 1.100000 28.08600
13411 SI 13411 SI SI1 13411 1.100000 28.08600
13412 SI 13412 SI SI1 13412 1.100000 28.08600
13413 SI 13413 SI SI1 13413 1.100000 28.08600
13414 SI 13414 SI SI1 13414 1.100000 28.08600
13415 SI 13415 SI SI1 13415 1.100000 28.08600
13416 SI 13416 SI SI1 13416 1.100000 28.08600
13417 SI 13417 SI SI1 13417 1.100000 28.08600
13418 SI 13418 SI SI1 13418 1.100000 28.08600
13419 SI 13419 SI SI1 13419 1.100000 28.08600
13420 SI 13420 SI SI1 13420 1.100000 28.08600
13421 SI 13421 SI SI1 13421 1.100000 28.08600
13422 SI 13422 SI SI1 13422 1.100000 28.08600
13423 SI 13423 SI SI1 13423 1.100000 28.08600
13424 SI 13424 SI SI1 13424 1.100000 28.08600
13425 SI 13425 SI SI1 13425 1.100000 28.08600
13426 SI 13426 SI SI1 13426 1.100000 28.08600
13427 SI 13427 SI SI1 13427 1.100000 28.08600
13428 SI 13428 SI SI1 13428 1.100000 28.08600
13429 SI 13429 SI SI1 13429 1.100000 28.08600
13430 SI 13430 SI SI1 13430 1.100000 28.08600
13431 SI 13431 SI SI1 13431 1.100000 28.08600
13432 SI 13432 SI SI1 13432 1.100000 28.08600
13433 SI 13433 SI SI1 13433 1.100000 28.08600
13434 SI 13434 SI SI1 13434 1.100000 28.08600
13435 SI 13435 SI SI1 13435 1.100000 28.08600
13436 SI 13436 SI SI1 13436 1.100000 28.08600
13437 SI 13437 SI SI1 13437 1.100000 28.08600
13438 SI 13438 SI SI1 13438 1.100000 28.08600
13439 SI 13439 SI SI1 13439 1.100000 28.08600
13440 SI 13440 SI SI1 13440 1.100000 28.08600
13441 SI 13441 SI SI1 13441 1.100000 28.08600
13442 SI 13442 SI SI1 13442 1.100000 28.08600
13443 SI 13443 SI SI1 13443 1.100000 28.08600
13444 SI 13444 SI SI1 13444 1.100000 28.08600
13445 SI 13445 SI SI1 13445 1.100000 28.08600
13446 SI 13446 SI SI1 13446 1.100000 28.08600
13447 SI 13447 SI SI1 13447 1.100000 28.08600
13448 SI 13448 SI SI1 13448 1.100000 28.08600
13449 SI 13449 SI SI1 13449 1.100000 28.08600
13450 SI 13450 SI SI1 13450 1.100000 28.08600
13451 SI 13451 SI SI1 13451 1.100000 28.08600
13452 SI 13452 SI SI1 13452 1.100000 28.08600
13453 SI 13453 SI SI1 13453 1.100000 28.08600
13454 SI 13454 SI SI1 13454 1.100000 28.08600
13455 SI 13455 SI SI1 13455 1.100000 28.08600
13456 SI 13456 SI SI1 13456 1.100000 28.08600
13457 SI 13457 SI SI1 13457 1.100000 28.08600
13458 SI 13458 SI SI1 13458 1.100000 28.08600
13459 SI 13459 SI SI1 13459 1.100000 28.08600
13460 SI 13460 SI SI1 13460 1.100000 28.08600
13461 SI 13461 SI SI1 13461 1.100000 28.08600
13462 SI 13462 SI SI1 13462 1.100000 28.08600
13463 SI 13463 SI SI1 13463 1.100000 28.08600
13464 SI 13464 SI SI1 13464 1.100000 28.08600
13465 SI 13465 SI SI1 13465 1.100000 28.08600
13466 SI 13466 SI SI1 13466 1.100000 28.08600
13467 SI 13467 SI SI1 13467 1.100000 28.08600
13468 SI 13468 SI SI1 13468 1.100000 28.08600
13469 SI 13469 SI SI1 13469 1.100000 28.08600
13470 SI 13470 SI SI1 13470 1.100000 28.08600
13471 SI 13471 SI SI1 13471 1.100000 28.08600
13472 SI 13472 SI SI1 13472 1.100000 28.08600
13473 SI 13473 SI SI1 13473 1.100000 28.08600
13474 SI 13474 SI SI1 13474 1.100000 28.08600
13475 SI 13475 SI SI1 13475 1.100000 28.08600
13476 SI 13476 SI SI1 13476 1.100000 28.08600
13477 SI 13477 SI SI1 13477 1.100000 28.08600
13478 SI 13478 SI SI1 13478 1.100000 28.08600
13479 SI 13479 SI SI1 13479 1.100000 28.08600
13480 SI 13480 SI SI1 13480 1.100000 28.08600
13481 SI 13481 SI SI1 13481 1.100000 28.08600
13482 SI 13482 SI SI1 13482 1.100000 28.08600
13483 SI 13483 SI SI1 13483 1.100000 28.08600
13484 SI 13484 SI SI1 13484 1.100000 28.08600
13485 SI 13485 SI SI1 13485 1.100000 28.08600
13486 SI 13486 SI SI1 13486 1.100000 28.08600
13487 SI 13487 SI SI1 13487 1.100000 28.08600
13488 SI 13488 SI SI1 13488 1.100000 28.08600
13489 SI 13489 SI SI1 13489 1.100000 28.08600
13490 SI 13490 SI SI1 13490 1.100000 28.08600
13491 SI 13491 SI SI1 13491 1.100000 28.08600
13492 SI 13492 SI SI1 13492 1.100000 28.08600
13493 SI 13493 SI SI1 13493 1.100000 28.08600
13494 SI 13494 SI SI1 13494 1.100000 28.08600
13495 SI 13495 SI SI1 13495 1.100000 28.08600
13496 SI 13496 SI SI1 13496 1.100000 28.08600
13497 SI 13497 SI SI1 13497 1.100000 28.08600
13498 SI 13498 SI SI1 13498 1.100000 28.08600
13499 SI 13499 SI SI1 13499 1.100000 28.08600
13500 SI 13500 SI SI1 13500 1.100000 28.08600
13501 SI 13501 SI SI1 13501 1.100000 28.08600
13502 SI 13502 SI SI1 13502 1.100000 28.08600
13503 SI 13503 SI SI1 13503 1.100000 28.08600
13504 SI 13504 SI SI1 13504 1.100000 28.08600
13505 SI 13505 SI SI1 13505 1.100000 28.08600
13506 SI 13506 SI SI1 13506 1.100000 28.08600
13507 SI 13507 SI SI1 13507 1.100000 28.08600
13508 SI 13508 SI SI1 13508 1.100000 28.08600
13509 SI 13509 SI SI1 13509 1.100000 28.08600
13510 SI 13510 SI SI1 13510 1.100000 28.08600
13511 SI 13511 SI SI1 13511 1.100000 28.08600
13512 SI 13512 SI SI1 13512 1.100000 28.08600
13513 SI 13513 SI SI1 13513 1.100000 28.08600
13514 SI 13514 SI SI1 13514 1.100000 28.08600
13515 SI 13515 SI SI1 13515 1.100000 28.08600
13516 SI 13516 SI SI1 13516 1.100000 28.08600
13517 SI 13517 SI SI1 13517 1.100000 28.08600
13518 SI 13518 SI SI1 13518 1.100000 28.08600
13519 SI 13519 SI SI1 13519 1.100000 28.08600
13520 SI 13520 SI SI1 13520 1.100000 28.08600
13521 SI 13521 SI SI1 13521 1.100000 28.08600
13522 SI 13522 SI SI1 13522 1.100000 28.08600
13523 SI 13523 SI SI1 13523 1.100000 28.08600
13524 SI 13524 SI SI1 13524 1.100000 28.08600
13525 SI 13525 SI SI1 13525 1.100000 28.08600
13526 SI 13526 SI SI1 13526 1.100000 28.08600
13527 SI 13527 SI SI1 13527 1.100000 28.08600
13528 SI 13528 SI SI1 13528 1.100000 28.08600
13529 SI 13529 SI SI1 13529 1.100000 28.08600
13530 SI 13530 SI SI1 13530 1.100000 28.08600
13531 SI 13531 SI SI1 13531 1.100000 28.08600
13532 SI 13532 SI SI1 13532 1.100000 28.08600
13533 SI 13533 SI SI1 13533 1.100000 28.08600
13534 SI 13534 SI SI1 13534 1.100000 28.08600
13535 SI 13535 SI SI1 13535 1.100000 28.08600
13536 SI 13536 SI SI1 13536 1.100000 28.08600
13537 SI 13537 SI SI1 13537 1.100000 28.08600
13538 SI 13538 SI SI1 13538 1.100000 28.08600
13539 SI 13539 SI SI1 13539 1.100000 28.08600
13540 SI 13540 SI SI1 13540 1.100000 28.08600
13541 SI 13541 SI SI1 13541 1.100000 28.08600
13542 SI 13542 SI SI1 13542 1.100000 28.08600
13543 SI 13543 SI SI1 13543 1.100000 28.08600
13544 SI 13544 SI SI1 13544 1.100000 28.08600
13545 SI 13545 SI SI1 13545 1.100000 28.08600
13546 SI 13546 SI SI1 13546 1.100000 28.08600
13547 SI 13547 SI SI1 13547 1.100000 28.08600
13548 SI 13548 SI SI1 13548 1.100000 28.08600
13549 SI 13549 SI SI1 13549 1.100000 28.08600
13550 SI 13550 SI SI1 13550 1.100000 28.08600
13551 SI 13551 SI SI1 13551 1.100000 28.08600
13552 SI 13552 SI SI1 13552 1.100000 28.08600
13553 SI 13553 SI SI1 13553 1.100000 28.08600
13554 SI 13554 SI SI1 13554 1.100000 28.08600
13555 SI 13555 SI SI1 13555 1.100000 28.08600
13556 SI 13556 SI SI1 13556 1.100000 28.08600
13557 SI 13557 SI SI1 13557 1.100000 28.08600
13558 SI 13558 SI SI1 13558 1.100000 28.08600
13559 SI 13559 SI SI1 13559 1.100000 28.08600
13560 SI 13560 SI SI1 13560 1.100000 28.08600
13561 SI 13561 SI SI1 13561 1.100000 28.08600
13562 SI 13562 SI SI1 13562 1.100000 28.08600
13563 SI 13563 SI SI1 13563 1.100000 28.08600
13564 SI 13564 SI SI1 13564 1.100000 28.08600
13565 SI 13565 SI SI1 13565 1.100000 28.08600
13566 SI 13566 SI SI1 13566 1.100000 28.08600
13567 SI 13567 SI SI1 13567 1.100000 28.08600
13568 SI 13568 SI SI1 13568 1.100000 28.08600
13569 SI 13569 SI SI1 13569 1.100000 28.08600
13570 SI 13570 SI SI1 13570 1.100000 28.08600
13571 SI 13571 SI SI1 13571 1.100000 28.08600
13572 SI 13572 SI SI1 13572 1.100000 28.08600
13573 SI 13573 SI SI1 13573 1.100000 28.08600
13574 SI 13574 SI SI1 13574 1.100000 28.08600
13575 SI 13575 SI SI1 13575 1.100000 28.08600
13576 SI 13576 SI SI1 13576 1.100000 28.08600
13577 SI 13577 SI SI1 13577 1.100000 28.08600
13578 SI 13578 SI SI1 13578 1.100000 28.08600
13579 SI 13579 SI SI1 13579 1.100000 28.08600
13580 SI 13580 SI SI1 13580 1.100000 28.08600
13581 SI 13581 SI SI1 13581 1.100000 28.08600
13582 SI 13582 SI SI1 13582 1.100000 28.08600
13583 SI 13583 SI SI1 13583 1.100000 28.08600
13584 SI 13584 SI SI1 13584 1.100000 28.08600
13585 SI 13585 SI SI1 13585 1.100000 28.08600
13586 SI 13586 SI SI1 13586 1.100000 28.08600
13587 SI 13587 SI SI1 13587 1.100000 28.08600
13588 SI 13588 SI SI1 13588 1.100000 28.08600
13589 SI 13589 SI SI1 13589 1.100000 28.08600
13590 SI 13590 SI SI1 13590 1.100000 28.08600
13591 SI 13591 SI SI1 13591 1.100000 28.08600
13592 SI 13592 SI SI1 13592 1.100000 28.08600
13593 SI 13593 SI SI1 13593 1.100000 28.08600
13594 SI 13594 SI SI1 13594 1.100000 28.08600
13595 SI 13595 SI SI1 13595 1.100000 28.08600
13596 SI 13596 SI SI1 13596 1.100000 28.08600
13597 SI 13597 SI SI1 13597 1.100000 28.08600
13598 SI 13598 SI SI1 13598 1.100000 28.08600
13599 SI 13599 SI SI1 13599 1.100000 28.08600
13600 SI 13600 SI SI1 13600 1.100000 28.08600
13601 SI 13601 SI SI1 13601 1.100000 28.08600
13602 SI 13602 SI SI1 13602 1.100000 28.08600
13603 SI 13603 SI SI1 13603 1.100000 28.08600
13604 SI 13604 SI SI1 13604 1.100000 28.08600
13605 SI 13605 SI SI1 13605 1.100000 28.08600
13606 SI 13606 SI SI1 13606 1.100000 28.08600
13607 SI 13607 SI SI1 13607 1.100000 28.08600
13608 SI 13608 SI SI1 13608 1.100000 28.08600
13609 SI 13609 SI SI1 13609 1.100000 28.08600
13610 SI 13610 SI SI1 13610 1.100000 28.08600
13611 SI 13611 SI SI1 13611 1.100000 28.08600
13612 SI 13612 SI SI1 13612 1.100000 28.08600
13613 SI 13613 SI SI1 13613 1.100000 28.08600
13614 SI 13614 SI SI1 13614 1.100000 28.08600
13615 SI 13615 SI SI1 13615 1.100000 28.08600
13616 SI 13616 SI SI1 13616 1.100000 28.08600
13617 SI 13617 SI SI1 13617 1.100000 28.08600
13618 SI 13618 SI SI1 13618 1.100000 28.08600
13619 SI 13619 SI SI1 13619 1.100000 28.08600
13620 SI 13620 SI SI1 13620 1.100000 28.08600
13621 SI 13621 SI SI1 13621 1.100000 28.08600
13622 SI 13622 SI SI1 13622 1.100000 28.08600
13623 SI 13623 SI SI1 13623 1.100000 28.08600
13624 SI 13624 SI SI1 13624 1.100000 28.08600
13625 SI 13625 SI SI1 13625 1.100000 28.08600
13626 SI 13626 SI SI1 13626 1.100000 28.08600
13627 SI 13627 SI SI1 13627 1.100000 28.08600
13628 SI 13628 SI SI1 13628 1.100000 28.08600
13629 SI 13629 SI SI1 13629 1.100000 28.08600
13630 SI 13630 SI SI1 13630 1.100000 28.08600
13631 SI 13631 SI SI1 13631 1.100000 28.08600
13632 SI 13632 SI SI1 13632 1.100000 28.08600
13633 SI 13633 SI SI1 13633 1.100000 28.08600
13634 SI 13634 SI SI1 13634 1.100000 28.08600
13635 SI 13635 SI SI1 13635 1.100000 28.08600
13636 SI 13636 SI SI1 13636 1.100000 28.08600
13637 SI 13637 SI SI1 13637 1.100000 28.08600
13638 SI 13638 SI SI1 13638 1.100000 28.08600
13639 SI 13639 SI SI1 13639 1.100000 28.08600
13640 SI 13640 SI SI1 13640 1.100000 28.08600
13641 SI 13641 SI SI1 13641 1.100000 28.08600
13642 SI 13642 SI SI1 13642 1.100000 28.08600
13643 SI 13643 SI SI1 13643 1.100000 28.08600
13644 SI 13644 SI SI1 13644 1.100000 28.08600
13645 SI 13645 SI SI1 13645 1.100000 28.08600
13646 SI 13646 SI SI1 13646 1.100000 28.08600
13647 SI 13647 SI SI1 13647 1.100000 28.08600
13648 SI 13648 SI SI1 13648 1.100000 28.08600
13649 SI 13649 SI SI1 13649 1.100000 28.08600
13650 SI 13650 SI SI1 13650 1.100000 28.08600
13651 SI 13651 SI SI1 13651 1.100000 28.08600
13652 SI 13652 SI SI1 13652 1.100000 28.08600
13653 SI 13653 SI SI1 13653 1.100000 28.08600
13654 SI 13654 SI SI1 13654 1.100000 28.08600
13655 SI 13655 SI SI1 13655 1.100000 28.08600
13656 SI 13656 SI SI1 13656 1.100000 28.08600
13657 SI 13657 SI SI1 13657 1.100000 28.08600
13658 SI 13658 SI SI1 13658 1.100000 28.08600
13659 SI 13659 SI SI1 13659 1.100000 28.08600
13660 SI 13660 SI SI1 13660 1.100000 28.08600
13661 SI 13661 SI SI1 13661 1.100000 28.08600
13662 SI 13662 SI SI1 13662 1.100000 28.08600
13663 SI 13663 SI SI1 13663 1.100000 28.08600
13664 SI 13664 SI SI1 13664 1.100000 28.08600
13665 SI 13665 SI SI1 13665 1.100000 28.08600
13666 SI 13666 SI SI1 13666 1.100000 28.08600
13667 SI 13667 SI SI1 13667 1.100000 28.08600
13668 SI 13668 SI SI1 13668 1.100000 28.08600
13669 SI 13669 SI SI1 13669 1.100000 28.08600
13670 SI 13670 SI SI1 13670 1.100000 28.08600
13671 SI 13671 SI SI1 13671 1.100000 28.08600
13672 SI 13672 SI SI1 13672 1.100000 28.08600
13673 SI 13673 SI SI1 13673 1.100000 28.08600
13674 SI 13674 SI SI1 13674 1.100000 28.08600
13675 SI 13675 SI SI1 13675 1.100000 28.08600
13676 SI 13676 SI SI1 13676 1.100000 28.08600
13677 SI 13677 SI SI1 13677 1.100000 28.08600
13678 SI 13678 SI SI1 13678 1.100000 28.08600
13679 SI 13679 SI SI1 13679 1.100000 28.08600
13680 SI 13680 SI SI1 13680 1.100000 28.08600
13681 SI 13681 SI SI1 13681 1.100000 28.08600
13682 SI 13682 SI SI1 13682 1.100000 28.08600
13683 SI 13683 SI SI1 13683 1.100000 28.08600
13684 SI 13684 SI SI1 13684 1.100000 28.08600
13685 SI 13685 SI SI1 13685 1.100000 28.08600
13686 SI 13686 SI SI1 13686 1.100000 28.08600
13687 SI 13687 SI SI1 13687 1.100000 28.08600
13688 SI 13688 SI SI1 13688 1.100000 28.08600
13689 SI 13689 SI SI1 13689 1.100000 28.08600
13690 SI 13690 SI SI1 13690 1.100000 28.08600
13691 SI 13691 SI SI1 13691 1.100000 28.08600
13692 SI 13692 SI SI1 13692 1.100000 28.08600
13693 SI 13693 SI SI1 13693 1.100000 28.08600
13694 SI 13694 SI SI1 13694 1.100000 28.08600
13695 SI 13695 SI SI1 13695 1.100000 28.08600
13696 SI 13696 SI SI1 13696 1.100000 28.08600
13697 SI 13697 SI SI1 13697 1.100000 28.08600
13698 SI 13698 SI SI1 13698 1.100000 28.08600
13699 SI 13699 SI SI1 13699 1.100000 28.08600
13700 SI 13700 SI SI1 13700 1.100000 28.08600
13701 SI 13701 SI SI1 13701 1.100000 28.08600
13702 SI 13702 SI SI1 13702 1.100000 28.08600
13703 SI 13703 SI SI1 13703 1.100000 28.08600
13704 SI 13704 SI SI1 13704 1.100000 28.08600
13705 SI 13705 SI SI1 13705 1.100000 28.08600
13706 SI 13706 SI SI1 13706 1.100000 28.08600
13707 SI 13707 SI SI1 13707 1.100000 28.08600
13708 SI 13708 SI SI1 13708 1.100000 28.08600
13709 SI 13709 SI SI1 13709 1.100000 28.08600
13710 SI 13710 SI SI1 13710 1.100000 28.08600
13711 SI 13711 SI SI1 13711 1.100000 28.08600
13712 SI 13712 SI SI1 13712 1.100000 28.08600
13713 SI 13713 SI SI1 13713 1.100000 28.08600
13714 SI 13714 SI SI1 13714 1.100000 28.08600
13715 SI 13715 SI SI1 13715 1.100000 28.08600
13716 SI 13716 SI SI1 13716 1.100000 28.08600
13717 SI 13717 SI SI1 13717 1.100000 28.08600
13718 SI 13718 SI SI1 13718 1.100000 28.08600
13719 SI 13719 SI SI1 13719 1.100000 28.08600
13720 SI 13720 SI SI1 13720 1.100000 28.08600
13721 SI 13721 SI SI1 13721 1.100000 28.08600
13722 SI 13722 SI SI1 13722 1.100000 28.08600
13723 SI 13723 SI SI1 13723 1.100000 28.08600
13724 SI 13724 SI SI1 13724 1.100000 28.08600
13725 SI 13725 SI SI1 13725 1.100000 28.08600
13726 SI 13726 SI SI1 13726 1.100000 28.08600
13727 SI 13727 SI SI1 13727 1.100000 28.08600
13728 SI 13728 SI SI1 13728 1.100000 28.08600
13729 SI 13729 SI SI1 13729 1.100000 28.08600
13730 SI 13730 SI SI1 13730 1.100000 28.08600
13731 SI 13731 SI SI1 13731 1.100000 28.08600
13732 SI 13732 SI SI1 13732 1.100000 28.08600
13733 SI 13733 SI SI1 13733 1.100000 28.08600
13734 SI 13734 SI SI1 13734 1.100000 28.08600
13735 SI 13735 SI SI1 13735 1.100000 28.08600
13736 SI 13736 SI SI1 13736 1.100000 28.08600
13737 SI 13737 SI SI1 13737 1.100000 28.08600
13738 SI 13738 SI SI1 13738 1.100000 28.08600
13739 SI 13739 SI SI1 13739 1.100000 28.08600
13740 SI 13740 SI SI1 13740 1.100000 28.08600
13741 SI 13741 SI SI1 13741 1.100000 28.08600
13742 SI 13742 SI SI1 13742 1.100000 28.08600
13743 SI 13743 SI SI1 13743 1.100000 28.08600
13744 SI 13744 SI SI1 13744 1.100000 28.08600
13745 SI 13745 SI SI1 13745 1.100000 28.08600
13746 SI 13746 SI SI1 13746 1.100000 28.08600
13747 SI 13747 SI SI1 13747 1.100000 28.08600
13748 SI 13748 SI SI1 13748 1.100000 28.08600
13749 SI 13749 SI SI1 13749 1.100000 28.08600
13750 SI 13750 SI SI1 13750 1.100000 28.08600
13751 SI 13751 SI SI1 13751 1.100000 28.08600
13752 SI 13752 SI SI1 13752 1.100000 28.08600
13753 SI 13753 SI SI1 13753 1.100000 28.08600
13754 SI 13754 SI SI1 13754 1.100000 28.08600
13755 SI 13755 SI SI1 13755 1.100000 28.08600
13756 SI 13756 SI SI1 13756 1.100000 28.08600
13757 SI 13757 SI SI1 13757 1.100000 28.08600
13758 SI 13758 SI SI1 13758 1.100000 28.08600
13759 SI 13759 SI SI1 13759 1.100000 28.08600
13760 SI 13760 SI SI1 13760 1.100000 28.08600
13761 SI 13761 SI SI1 13761 1.100000 28.08600
13762 SI 13762 SI SI1 13762 1.100000 28.08600
13763 SI 13763 SI SI1 13763 1.100000 28.08600
13764 SI 13764 SI SI1 13764 1.100000 28.08600
13765 SI 13765 SI SI1 13765 1.100000 28.08600
13766 SI 13766 SI SI1 13766 1.100000 28.08600
13767 SI 13767 SI SI1 13767 1.100000 28.08600
13768 SI 13768 SI SI1 13768 1.100000 28.08600
13769 SI 13769 SI SI1 13769 1.100000 28.08600
13770 SI 13770 SI SI1 13770 1.100000 28.08600
13771 SI 13771 SI SI1 13771 1.100000 28.08600
13772 SI 13772 SI SI1 13772 1.100000 28.08600
13773 SI 13773 SI SI1 13773 1.100000 28.08600
13774 SI 13774 SI SI1 13774 1.100000 28.08600
13775 SI 13775 SI SI1 13775 1.100000 28.08600
13776 SI 13776 SI SI1 13776 1.100000 28.08600
13777 SI 13777 SI SI1 13777 1.100000 28.08600
13778 SI 13778 SI SI1 13778 1.100000 28.08600
13779 SI 13779 SI SI1 13779 1.100000 28.08600
13780 SI 13780 SI SI1 13780 1.100000 28.08600
13781 SI 13781 SI SI1 13781 1.100000 28.08600
13782 SI 13782 SI SI1 13782 1.100000 28.08600
13783 SI 13783 SI SI1 13783 1.100000 28.08600
13784 SI 13784 SI SI1 13784 1.100000 28.08600
13785 SI 13785 SI SI1 13785 1.100000 28.08600
13786 SI 13786 SI SI1 13786 1.100000 28.08600
13787 SI 13787 SI SI1 13787 1.100000 28.08600
13788 SI 13788 SI SI1 13788 1.100000 28.08600
13789 SI 13789 SI SI1 13789 1.100000 28.08600
13790 SI 13790 SI SI1 13790 1.100000 28.08600
13791 SI 13791 SI SI1 13791 1.100000 28.08600
13792 SI 13792 SI SI1 13792 1.100000 28.08600
13793 SI 13793 SI SI1 13793 1.100000 28.08600
13794 SI 13794 SI SI1 13794 1.100000 28.08600
13795 SI 13795 SI SI1 13795 1.100000 28.08600
13796 SI 13796 SI SI1 13796 1.100000 28.08600
13797 SI 13797 SI SI1 13797 1.100000 28.08600
13798 SI 13798 SI SI1 13798 1.100000 28.08600
13799 SI 13799 SI SI1 13799 1.100000 28.08600
13800 SI 13800 SI SI1 13800 1.100000 28.08600
13801 SI 13801 SI SI1 13801 1.100000 28.08600
13802 SI 13802 SI SI1 13802 1.100000 28.08600
13803 SI 13803 SI SI1 13803 1.100000 28.08600
13804 SI 13804 SI SI1 13804 1.100000 28.08600
13805 SI 13805 SI SI1 13805 1.100000 28.08600
13806 SI 13806 SI SI1 13806 1.100000 28.08600
13807 SI 13807 SI SI1 13807 1.100000 28.08600
13808 SI 13808 SI SI1 13808 1.100000 28.08600
13809 SI 13809 SI SI1 13809 1.100000 28.08600
13810 SI 13810 SI SI1 13810 1.100000 28.08600
13811 SI 13811 SI SI1 13811 1.100000 28.08600
13812 SI 13812 SI SI1 13812 1.100000 28.08600
13813 SI 13813 SI SI1 13813 1.100000 28.08600
13814 SI 13814 SI SI1 13814 1.100000 28.08600
13815 SI 13815 SI SI1 13815 1.100000 28.08600
13816 SI 13816 SI SI1 13816 1.100000 28.08600
13817 SI 13817 SI SI1 13817 1.100000 28.08600
13818 SI 13818 SI SI1 13818 1.100000 28.08600
13819 SI 13819 SI SI1 13819 1.100000 28.08600
13820 SI 13820 SI SI1 13820 1.100000 28.08600
13821 SI 13821 SI SI1 13821 1.100000 28.08600
13822 SI 13822 SI SI1 13822 1.100000 28.08600
13823 SI 13823 SI SI1 13823 1.100000 28.08600
13824 SI 13824 SI SI1 13824 1.100000 28.08600
13825 SI 13825 SI SI1 13825 1.100000 28.08600
13826 SI 13826 SI SI1 13826 1.100000 28.08600
13827 SI 13827 SI SI1 13827 1.100000 28.08600
13828 SI 13828 SI SI1 13828 1.100000 28.08600
13829 SI 13829 SI SI1 13829 1.100000 28.08600
13830 SI 13830 SI SI1 13830 1.100000 28.08600
13831 SI 13831 SI SI1 13831 1.100000 28.08600
13832 SI 13832 SI SI1 13832 1.100000 28.08600
13833 SI 13833 SI SI1 13833 1.100000 28.08600
13834 SI 13834 SI SI1 13834 1.100000 28.08600
13835 SI 13835 SI SI1 13835 1.100000 28.08600
13836 SI 13836 SI SI1 13836 1.100000 28.08600
13837 SI 13837 SI SI1 13837 1.100000 28.08600
13838 SI 13838 SI SI1 13838 1.100000 28.08600
13839 SI 13839 SI SI1 13839 1.100000 28.08600
13840 SI 13840 SI SI1 13840 1.100000 28.08600
13841 SI 13841 SI SI1 13841 1.100000 28.08600
13842 SI 13842 SI SI1 13842 1.100000 28.08600
13843 SI 13843 SI SI1 13843 1.100000 28.08600
13844 SI 13844 SI SI1 13844 1.100000 28.08600
13845 SI 13845 SI SI1 13845 1.100000 28.08600
13846 SI 13846 SI SI1 13846 1.100000 28.08600
13847 SI 13847 SI SI1 13847 1.100000 28.08600
13848 SI 13848 SI SI1 13848 1.100000 28.08600
13849 SI 13849 SI SI1 13849 1.100000 28.08600
13850 SI 13850 SI SI1 13850 1.100000 28.08600
13851 SI 13851 SI SI1 13851 1.100000 28.08600
13852 SI 13852 SI SI1 13852 1.100000 28.08600
13853 SI 13853 SI SI1 13853 1.100000 28.08600
13854 SI 13854 SI SI1 13854 1.100000 28.08600
13855 SI 13855 SI SI1 13855 1.100000 28.08600
13856 SI 13856 SI SI1 13856 1.100000 28.08600
13857 SI 13857 SI SI1 13857 1.100000 28.08600
13858 SI 13858 SI SI1 13858 1.100000 28.08600
13859 SI 13859 SI SI1 13859 1.100000 28.08600
13860 SI 13860 SI SI1 13860 1.100000 28.08600
13861 SI 13861 SI SI1 13861 1.100000 28.08600
13862 SI 13862 SI SI1 13862 1.100000 28.08600
13863 SI 13863 SI SI1 13863 1.100000 28.08600
13864 SI 13864 SI SI1 13864 1.100000 28.08600
13865 SI 13865 SI SI1 13865 1.100000 28.08600
13866 SI 13866 SI SI1 13866 1.100000 28.08600
13867 SI 13867 SI SI1 13867 1.100000 28.08600
13868 SI 13868 SI SI1 13868 1.100000 28.08600
13869 SI 13869 SI SI1 13869 1.100000 28.08600
13870 SI 13870 SI SI1 13870 1.100000 28.08600
13871 SI 13871 SI SI1 13871 1.100000 28.08600
13872 SI 13872 SI SI1 13872 1.100000 28.08600
13873 SI 13873 SI SI1 13873 1.100000 28.08600
13874 SI 13874 SI SI1 13874 1.100000 28.08600
13875 SI 13875 SI SI1 13875 1.100000 28.08600
13876 SI 13876 SI SI1 13876 1.100000 28.08600
13877 SI 13877 SI SI1 13877 1.100000 28.08600
13878 SI 13878 SI SI1 13878 1.100000 28.08600
13879 SI 13879 SI SI1 13879 1.100000 28.08600
13880 SI 13880 SI SI1 13880 1.100000 28.08600
13881 SI 13881 SI SI1 13881 1.100000 28.08600
13882 SI 13882 SI SI1 13882 1.100000 28.08600
13883 SI 13883 SI SI1 13883 1.100000 28.08600
13884 SI 13884 SI SI1 13884 1.100000 28.08600
13885 SI 13885 SI SI1 13885 1.100000 28.08600
13886 SI 13886 SI SI1 13886 1.100000 28.08600
13887 SI 13887 SI SI1 13887 1.100000 28.08600
13888 SI 13888 SI SI1 13888 1.100000 28.08600
13889 SI 13889 SI SI1 13889 1.100000 28.08600
13890 SI 13890 SI SI1 13890 1.100000 28.08600
13891 SI 13891 SI SI1 13891 1.100000 28.08600
13892 SI 13892 SI SI1 13892 1.100000 28.08600
13893 SI 13893 SI SI1 13893 1.100000 28.08600
13894 SI 13894 SI SI1 13894 1.100000 28.08600
13895 SI 13895 SI SI1 13895 1.100000 28.08600
13896 SI 13896 SI SI1 13896 1.100000 28.08600
13897 SI 13897 SI SI1 13897 1.100000 28.08600
13898 SI 13898 SI SI1 13898 1.100000 28.08600
13899 SI 13899 SI SI1 13899 1.100000 28.08600
13900 SI 13900 SI SI1 13900 1.100000 28.08600
13901 SI 13901 SI SI1 13901 1.100000 28.08600
13902 SI 13902 SI SI1 13902 1.100000 28.08600
13903 SI 13903 SI SI1 13903 1.100000 28.08600
13904 SI 13904 SI SI1 13904 1.100000 28.08600
13905 SI 13905 SI SI1 13905 1.100000 28.08600
13906 SI 13906 SI SI1 13906 1.100000 28.08600
13907 SI 13907 SI SI1 13907 1.100000 28.08600
13908 SI 13908 SI SI1 13908 1.100000 28.08600
13909 SI 13909 SI SI1 13909 1.100000 28.08600
13910 SI 13910 SI SI1 13910 1.100000 28.08600
13911 SI 13911 SI SI1 13911 1.100000 28.08600
13912 SI 13912 SI SI1 13912 1.100000 28.08600
13913 SI 13913 SI SI1 13913 1.100000 28.08600
13914 SI 13914 SI SI1 13914 1.100000 28.08600
13915 SI 13915 SI SI1 13915 1.100000 28.08600
13916 SI 13916 SI SI1 13916 1.100000 28.08600
13917 SI 13917 SI SI1 13917 1.100000 28.08600
13918 SI 13918 SI SI1 13918 1.100000 28.08600
13919 SI 13919 SI SI1 13919 1.100000 28.08600
13920 SI 13920 SI SI1 13920 1.100000 28.08600
13921 SI 13921 SI SI1 13921 1.100000 28.08600
13922 SI 13922 SI SI1 13922 1.100000 28.08600
13923 SI 13923 SI SI1 13923 1.100000 28.08600
13924 SI 13924 SI SI1 13924 1.100000 28.08600
13925 SI 13925 SI SI1 13925 1.100000 28.08600
13926 SI 13926 SI SI1 13926 1.100000 28.08600
13927 SI 13927 SI SI1 13927 1.100000 28.08600
13928 SI 13928 SI SI1 13928 1.100000 28.08600
13929 SI 13929 SI SI1 13929 1.100000 28.08600
13930 SI 13930 SI SI1 13930 1.100000 28.08600
13931 SI 13931 SI SI1 13931 1.100000 28.08600
13932 SI 13932 SI SI1 13932 1.100000 28.08600
13933 SI 13933 SI SI1 13933 1.100000 28.08600
13934 SI 13934 SI SI1 13934 1.100000 28.08600
13935 SI 13935 SI SI1 13935 1.100000 28.08600
13936 SI 13936 SI SI1 13936 1.100000 28.08600
13937 SI 13937 SI SI1 13937 1.100000 28.08600
13938 SI 13938 SI SI1 13938 1.100000 28.08600
13939 SI 13939 SI SI1 13939 1.100000 28.08600
13940 SI 13940 SI SI1 13940 1.100000 28.08600
13941 SI 13941 SI SI1 13941 1.100000 28.08600
13942 SI 13942 SI SI1 13942 1.100000 28.08600
13943 SI 13943 SI SI1 13943 1.100000 28.08600
13944 SI 13944 SI SI1 13944 1.100000 28.08600
13945 SI 13945 SI SI1 13945 1.100000 28.08600
13946 SI 13946 SI SI1 13946 1.100000 28.08600
13947 SI 13947 SI SI1 13947 1.100000 28.08600
13948 SI 13948 SI SI1 13948 1.100000 28.08600
13949 SI 13949 SI SI1 13949 1.100000 28.08600
13950 SI 13950 SI SI1 13950 1.100000 28.08600
13951 SI 13951 SI SI1 13951 1.100000 28.08600
13952 SI 13952 SI SI1 13952 1.100000 28.08600
13953 SI 13953 SI SI1 13953 1.100000 28.08600
13954 SI 13954 SI SI1 13954 1.100000 28.08600
13955 SI 13955 SI SI1 13955 1.100000 28.08600
13956 SI 13956 SI SI1 13956 1.100000 28.08600
13957 SI 13957 SI SI1 13957 1.100000 28.08600
13958 SI 13958 SI SI1 13958 1.100000 28.08600
13959 SI 13959 SI SI1 13959 1.100000 28.08600
13960 SI 13960 SI SI1 13960 1.100000 28.08600
13961 SI 13961 SI SI1 13961 1.100000 28.08600
13962 SI 13962 SI SI1 13962 1.100000 28.08600
13963 SI 13963 SI SI1 13963 1.100000 28.08600
13964 SI 13964 SI SI1 13964 1.100000 28.08600
13965 SI 13965 SI SI1 13965 1.100000 28.08600
13966 SI 13966 SI SI1 13966 1.100000 28.08600
13967 SI 13967 SI SI1 13967 1.100000 28.08600
13968 SI 13968 SI SI1 13968 1.100000 28.08600
13969 SI 13969 SI SI1 13969 1.100000 28.08600
13970 SI 13970 SI SI1 13970 1.100000 28.08600
13971 SI 13971 SI SI1 13971 1.100000 28.08600
13972 SI 13972 SI SI1 13972 1.100000 28.08600
13973 SI 13973 SI SI1 13973 1.100000 28.08600
13974 SI 13974 SI SI1 13974 1.100000 28.08600
13975 SI 13975 SI SI1 13975 1.100000 28.08600
13976 SI 13976 SI SI1 13976 1.100000 28.08600
13977 SI 13977 SI SI1 13977 1.100000 28.08600
13978 SI 13978 SI SI1 13978 1.100000 28.08600
13979 SI 13979 SI SI1 13979 1.100000 28.08600
13980 SI 13980 SI SI1 13980 1.100000 28.08600
13981 SI 13981 SI SI1 13981 1.100000 28.08600
13982 SI 13982 SI SI1 13982 1.100000 28.08600
13983 SI 13983 SI SI1 13983 1.100000 28.08600
13984 SI 13984 SI SI1 13984 1.100000 28.08600
13985 SI 13985 SI SI1 13985 1.100000 28.08600
13986 SI 13986 SI SI1 13986 1.100000 28.08600
13987 SI 13987 SI SI1 13987 1.100000 28.08600
13988 SI 13988 SI SI1 13988 1.100000 28.08600
13989 SI 13989 SI SI1 13989 1.100000 28.08600
13990 SI 13990 SI SI1 13990 1.100000 28.08600
13991 SI 13991 SI SI1 13991 1.100000 28.08600
13992 SI 13992 SI SI1 13992 1.100000 28.08600
13993 SI 13993 SI SI1 13993 1.100000 28.08600
13994 SI 13994 SI SI1 13994 1.100000 28.08600
13995 SI 13995 SI SI1 13995 1.100000 28.08600
13996 SI 13996 SI SI1 13996 1.100000 28.08600
13997 SI 13997 SI SI1 13997 1.100000 28.08600
13998 SI 13998 SI SI1 13998 1.100000 28.08600
13999 SI 13999 SI SI1 13999 1.100000 28.08600
14000 SI 14000 SI SI1 14000 1.100000 28.08600
14001 SI 14001 SI SI1 14001 1.100000 28.08600
14002 SI 14002 SI SI1 14002 1.100000 28.08600
14003 SI 14003 SI SI1 14003 1.100000 28.08600
14004 SI 14004 SI SI1 14004 1.100000 28.08600
14005 SI 14005 SI SI1 14005 1.100000 28.08600
14006 SI 14006 SI SI1 14006 1.100000 28.08600
14007 SI 14007 SI SI1 14007 1.100000 28.08600
14008 SI 14008 SI SI1 14008 1.100000 28.08600
14009 SI 14009 SI SI1 14009 1.100000 28.08600
14010 SI 14010 SI SI1 14010 1.100000 28.08600
14011 SI 14011 SI SI1 14011 1.100000 28.08600
14012 SI 14012 SI SI1 14012 1.100000 28.08600
14013 SI 14013 SI SI1 14013 1.100000 28.08600
14014 SI 14014 SI SI1 14014 1.100000 28.08600
14015 SI 14015 SI SI1 14015 1.100000 28.08600
14016 SI 14016 SI SI1 14016 1.100000 28.08600
14017 SI 14017 SI SI1 14017 1.100000 28.08600
14018 SI 14018 SI SI1 14018 1.100000 28.08600
14019 SI 14019 SI SI1 14019 1.100000 28.08600
14020 SI 14020 SI SI1 14020 1.100000 28.08600
14021 SI 14021 SI SI1 14021 1.100000 28.08600
14022 SI 14022 SI SI1 14022 1.100000 28.08600
14023 SI 14023 SI SI1 14023 1.100000 28.08600
14024 SI 14024 SI SI1 14024 1.100000 28.08600
14025 SI 14025 SI SI1 14025 1.100000 28.08600
14026 SI 14026 SI SI1 14026 1.100000 28.08600
14027 SI 14027 SI SI1 14027 1.100000 28.08600
14028 SI 14028 SI SI1 14028 1.100000 28.08600
14029 SI 14029 SI SI1 14029 1.100000 28.08600
14030 SI 14030 SI SI1 14030 1.100000 28.08600
14031 SI 14031 SI SI1 14031 1.100000 28.08600
14032 SI 14032 SI SI1 14032 1.100000 28.08600
14033 SI 14033 SI SI1 14033 1.100000 28.08600
14034 SI 14034 SI SI1 14034 1.100000 28.08600
14035 SI 14035 SI SI1 14035 1.100000 28.08600
14036 SI 14036 SI SI1 14036 1.100000 28.08600
14037 SI 14037 SI SI1 14037 1.100000 28.08600
14038 SI 14038 SI SI1 14038 1.100000 28.08600
14039 SI 14039 SI SI1 14039 1.100000 28.08600
14040 SI 14040 SI SI1 14040 1.100000 28.08600
14041 SI 14041 SI SI1 14041 1.100000 28.08600
14042 SI 14042 SI SI1 14042 1.100000 28.08600
14043 SI 14043 SI SI1 14043 1.100000 28.08600
14044 SI 14044 SI SI1 14044 1.100000 28.08600
14045 SI 14045 SI SI1 14045 1.100000 28.08600
14046 SI 14046 SI SI1 14046 1.100000 28.08600
14047 SI 14047 SI SI1 14047 1.100000 28.08600
14048 SI 14048 SI SI1 14048 1.100000 28.08600
14049 SI 14049 SI SI1 14049 1.100000 28.08600
14050 SI 14050 SI SI1 14050 1.100000 28.08600
14051 SI 14051 SI SI1 14051 1.100000 28.08600
14052 SI 14052 SI SI1 14052 1.100000 28.08600
14053 SI 14053 SI SI1 14053 1.100000 28.08600
14054 SI 14054 SI SI1 14054 1.100000 28.08600
14055 SI 14055 SI SI1 14055 1.100000 28.08600
14056 SI 14056 SI SI1 14056 1.100000 28.08600
14057 SI 14057 SI SI1 14057 1.100000 28.08600
14058 SI 14058 SI SI1 14058 1.100000 28.08600
14059 SI 14059 SI SI1 14059 1.100000 28.08600
14060 SI 14060 SI SI1 14060 1.100000 28.08600
14061 SI 14061 SI SI1 14061 1.100000 28.08600
14062 SI 14062 SI SI1 14062 1.100000 28.08600
14063 SI 14063 SI SI1 14063 1.100000 28.08600
14064 SI 14064 SI SI1 14064 1.100000 28.08600
14065 SI 14065 SI SI1 14065 1.100000 28.08600
14066 SI 14066 SI SI1 14066 1.100000 28.08600
14067 SI 14067 SI SI1 14067 1.100000 28.08600
14068 SI 14068 SI SI1 14068 1.100000 28.08600
14069 SI 14069 SI SI1 14069 1.100000 28.08600
14070 SI 14070 SI SI1 14070 1.100000 28.08600
14071 SI 14071 SI SI1 14071 1.100000 28.08600
14072 SI 14072 SI SI1 14072 1.100000 28.08600
14073 SI 14073 SI SI1 14073 1.100000 28.08600
14074 SI 14074 SI SI1 14074 1.100000 28.08600
14075 SI 14075 SI SI1 14075 1.100000 28.08600
14076 SI 14076 SI SI1 14076 1.100000 28.08600
14077 SI 14077 SI SI1 14077 1.100000 28.08600
14078 SI 14078 SI SI1 14078 1.100000 28.08600
14079 SI 14079 SI SI1 14079 1.100000 28.08600
14080 SI 14080 SI SI1 14080 1.100000 28.08600
14081 SI 14081 SI SI1 14081 1.100000 28.08600
14082 SI 14082 SI SI1 14082 1.100000 28.08600
14083 SI 14083 SI SI1 14083 1.100000 28.08600
14084 SI 14084 SI SI1 14084 1.100000 28.08600
14085 SI 14085 SI SI1 14085 1.100000 28.08600
14086 SI 14086 SI SI1 14086 1.100000 28.08600
14087 SI 14087 SI SI1 14087 1.100000 28.08600
14088 SI 14088 SI SI1 14088 1.100000 28.08600
14089 SI 14089 SI SI1 14089 1.100000 28.08600
14090 SI 14090 SI SI1 14090 1.100000 28.08600
14091 SI 14091 SI SI1 14091 1.100000 28.08600
14092 SI 14092 SI SI1 14092 1.100000 28.08600
14093 SI 14093 SI SI1 14093 1.100000 28.08600
14094 SI 14094 SI SI1 14094 1.100000 28.08600
14095 SI 14095 SI SI1 14095 1.100000 28.08600
14096 SI 14096 SI SI1 14096 1.100000 28.08600
14097 SI 14097 SI SI1 14097 1.100000 28.08600
14098 SI 14098 SI SI1 14098 1.100000 28.08600
14099 SI 14099 SI SI1 14099 1.100000 28.08600
14100 SI 14100 SI SI1 14100 1.100000 28.08600
14101 SI 14101 SI SI1 14101 1.100000 28.08600
14102 SI 14102 SI SI1 14102 1.100000 28.08600
14103 SI 14103 SI SI1 14103 1.100000 28.08600
14104 SI 14104 SI SI1 14104 1.100000 28.08600
14105 SI 14105 SI SI1 14105 1.100000 28.08600
14106 SI 14106 SI SI1 14106 1.100000 28.08600
14107 SI 14107 SI SI1 14107 1.100000 28.08600
14108 SI 14108 SI SI1 14108 1.100000 28.08600
14109 SI 14109 SI SI1 14109 1.100000 28.08600
14110 SI 14110 SI SI1 14110 1.100000 28.08600
14111 SI 14111 SI SI1 14111 1.100000 28.08600
14112 SI 14112 SI SI1 14112 1.100000 28.08600
14113 SI 14113 SI SI1 14113 1.100000 28.08600
14114 SI 14114 SI SI1 14114 1.100000 28.08600
14115 SI 14115 SI SI1 14115 1.100000 28.08600
14116 SI 14116 SI SI1 14116 1.100000 28.08600
14117 SI 14117 SI SI1 14117 1.100000 28.08600
14118 SI 14118 SI SI1 14118 1.100000 28.08600
14119 SI 14119 SI SI1 14119 1.100000 28.08600
14120 SI 14120 SI SI1 14120 1.100000 28.08600
14121 SI 14121 SI SI1 14121 1.100000 28.08600
14122 SI 14122 SI SI1 14122 1.100000 28.08600
14123 SI 14123 SI SI1 14123 1.100000 28.08600
14124 SI 14124 SI SI1 14124 1.100000 28.08600
14125 SI 14125 SI SI1 14125 1.100000 28.08600
14126 SI 14126 SI SI1 14126 1.100000 28.08600
14127 SI 14127 SI SI1 14127 1.100000 28.08600
14128 SI 14128 SI SI1 14128 1.100000 28.08600
14129 SI 14129 SI SI1 14129 1.100000 28.08600
14130 SI 14130 SI SI1 14130 1.100000 28.08600
14131 SI 14131 SI SI1 14131 1.100000 28.08600
14132 SI 14132 SI SI1 14132 1.100000 28.08600
14133 SI 14133 SI SI1 14133 1.100000 28.08600
14134 SI 14134 SI SI1 14134 1.100000 28.08600
14135 SI 14135 SI SI1 14135 1.100000 28.08600
14136 SI 14136 SI SI1 14136 1.100000 28.08600
14137 SI 14137 SI SI1 14137 1.100000 28.08600
14138 SI 14138 SI SI1 14138 1.100000 28.08600
14139 SI 14139 SI SI1 14139 1.100000 28.08600
14140 SI 14140 SI SI1 14140 1.100000 28.08600
14141 SI 14141 SI SI1 14141 1.100000 28.08600
14142 SI 14142 SI SI1 14142 1.100000 28.08600
14143 SI 14143 SI SI1 14143 1.100000 28.08600
14144 SI 14144 SI SI1 14144 1.100000 28.08600
14145 SI 14145 SI SI1 14145 1.100000 28.08600
14146 SI 14146 SI SI1 14146 1.100000 28.08600
14147 SI 14147 SI SI1 14147 1.100000 28.08600
14148 SI 14148 SI SI1 14148 1.100000 28.08600
14149 SI 14149 SI SI1 14149 1.100000 28.08600
14150 SI 14150 SI SI1 14150 1.100000 28.08600
14151 SI 14151 SI SI1 14151 1.100000 28.08600
14152 SI 14152 SI SI1 14152 1.100000 28.08600
14153 SI 14153 SI SI1 14153 1.100000 28.08600
14154 SI 14154 SI SI1 14154 1.100000 28.08600
14155 SI 14155 SI SI1 14155 1.100000 28.08600
14156 SI 14156 SI SI1 14156 1.100000 28.08600
14157 SI 14157 SI SI1 14157 1.100000 28.08600
14158 SI 14158 SI SI1 14158 1.100000 28.08600
14159 SI 14159 SI SI1 14159 1.100000 28.08600
14160 SI 14160 SI SI1 14160 1.100000 28.08600
14161 SI 14161 SI SI1 14161 1.100000 28.08600
14162 SI 14162 SI SI1 14162 1.100000 28.08600
14163 SI 14163 SI SI1 14163 1.100000 28.08600
14164 SI 14164 SI SI1 14164 1.100000 28.08600
14165 SI 14165 SI SI1 14165 1.100000 28.08600
14166 SI 14166 SI SI1 14166 1.100000 28.08600
14167 SI 14167 SI SI1 14167 1.100000 28.08600
14168 SI 14168 SI SI1 14168 1.100000 28.08600
14169 SI 14169 SI SI1 14169 1.100000 28.08600
14170 SI 14170 SI SI1 14170 1.100000 28.08600
14171 SI 14171 SI SI1 14171 1.100000 28.08600
14172 SI 14172 SI SI1 14172 1.100000 28.08600
14173 SI 14173 SI SI1 14173 1.100000 28.08600
14174 SI 14174 SI SI1 14174 1.100000 28.08600
14175 SI 14175 SI SI1 14175 1.100000 28.08600
14176 SI 14176 SI SI1 14176 1.100000 28.08600
14177 SI 14177 SI SI1 14177 1.100000 28.08600
14178 SI 14178 SI SI1 14178 1.100000 28.08600
14179 SI 14179 SI SI1 14179 1.100000 28.08600
14180 SI 14180 SI SI1 14180 1.100000 28.08600
14181 SI 14181 SI SI1 14181 1.100000 28.08600
14182 SI 14182 SI SI1 14182 1.100000 28.08600
14183 SI 14183 SI SI1 14183 1.100000 28.08600
14184 SI 14184 SI SI1 14184 1.100000 28.08600
14185 SI 14185 SI SI1 14185 1.100000 28.08600
14186 SI 14186 SI SI1 14186 1.100000 28.08600
14187 SI 14187 SI SI1 14187 1.100000 28.08600
14188 SI 14188 SI SI1 14188 1.100000 28.08600
14189 SI 14189 SI SI1 14189 1.100000 28.08600
14190 SI 14190 SI SI1 14190 1.100000 28.08600
14191 SI 14191 SI SI1 14191 1.100000 28.08600
14192 SI 14192 SI SI1 14192 1.100000 28.08600
14193 SI 14193 SI SI1 14193 1.100000 28.08600
14194 SI 14194 SI SI1 14194 1.100000 28.08600
14195 SI 14195 SI SI1 14195 1.100000 28.08600
14196 SI 14196 SI SI1 14196 1.100000 28.08600
14197 SI 14197 SI SI1 14197 1.100000 28.08600
14198 SI 14198 SI SI1 14198 1.100000 28.08600
14199 SI 14199 SI SI1 14199 1.100000 28.08600
14200 SI 14200 SI SI1 14200 1.100000 28.08600
14201 SI 14201 SI SI1 14201 1.100000 28.08600
14202 SI 14202 SI SI1 14202 1.100000 28.08600
14203 SI 14203 SI SI1 14203 1.100000 28.08600
14204 SI 14204 SI SI1 14204 1.100000 28.08600
14205 SI 14205 SI SI1 14205 1.100000 28.08600
14206 SI 14206 SI SI1 14206 1.100000 28.08600
14207 SI 14207 SI SI1 14207 1.100000 28.08600
14208 SI 14208 SI SI1 14208 1.100000 28.08600
14209 SI 14209 SI SI1 14209 1.100000 28.08600
14210 SI 14210 SI SI1 14210 1.100000 28.08600
14211 SI 14211 SI SI1 14211 1.100000 28.08600
14212 SI 14212 SI SI1 14212 1.100000 28.08600
14213 SI 14213 SI SI1 14213 1.100000 28.08600
14214 SI 14214 SI SI1 14214 1.100000 28.08600
14215 SI 14215 SI SI1 14215 1.100000 28.08600
14216 SI 14216 SI SI1 14216 1.100000 28.08600
14217 SI 14217 SI SI1 14217 1.100000 28.08600
14218 SI 14218 SI SI1 14218 1.100000 28.08600
14219 SI 14219 SI SI1 14219 1.100000 28.08600
14220 SI 14220 SI SI1 14220 1.100000 28.08600
14221 SI 14221 SI SI1 14221 1.100000 28.08600
14222 SI 14222 SI SI1 14222 1.100000 28.08600
14223 SI 14223 SI SI1 14223 1.100000 28.08600
14224 SI 14224 SI SI1 14224 1.100000 28.08600
14225 SI 14225 SI SI1 14225 1.100000 28.08600
14226 SI 14226 SI SI1 14226 1.100000 28.08600
14227 SI 14227 SI SI1 14227 1.100000 28.08600
14228 SI 14228 SI SI1 14228 1.100000 28.08600
14229 SI 14229 SI SI1 14229 1.100000 28.08600
14230 SI 14230 SI SI1 14230 1.100000 28.08600
14231 SI 14231 SI SI1 14231 1.100000 28.08600
14232 SI 14232 SI SI1 14232 1.100000 28.08600
14233 SI 14233 SI SI1 14233 1.100000 28.08600
14234 SI 14234 SI SI1 14234 1.100000 28.08600
14235 SI 14235 SI SI1 14235 1.100000 28.08600
14236 SI 14236 SI SI1 14236 1.100000 28.08600
14237 SI 14237 SI SI1 14237 1.100000 28.08600
14238 SI 14238 SI SI1 14238 1.100000 28.08600
14239 SI 14239 SI SI1 14239 1.100000 28.08600
14240 SI 14240 SI SI1 14240 1.100000 28.08600
14241 SI 14241 SI SI1 14241 1.100000 28.08600
14242 SI 14242 SI SI1 14242 1.100000 28.08600
14243 SI 14243 SI SI1 14243 1.100000 28.08600
14244 SI 14244 SI SI1 14244 1.100000 28.08600
14245 SI 14245 SI SI1 14245 1.100000 28.08600
14246 SI 14246 SI SI1 14246 1.100000 28.08600
14247 SI 14247 SI SI1 14247 1.100000 28.08600
14248 SI 14248 SI SI1 14248 1.100000 28.08600
14249 SI 14249 SI SI1 14249 1.100000 28.08600
14250 SI 14250 SI SI1 14250 1.100000 28.08600
14251 SI 14251 SI SI1 14251 1.100000 28.08600
14252 SI 14252 SI SI1 14252 1.100000 28.08600
14253 SI 14253 SI SI1 14253 1.100000 28.08600
14254 SI 14254 SI SI1 14254 1.100000 28.08600
14255 SI 14255 SI SI1 14255 1.100000 28.08600
14256 SI 14256 SI SI1 14256 1.100000 28.08600
14257 SI 14257 SI SI1 14257 1.100000 28.08600
14258 SI 14258 SI SI1 14258 1.100000 28.08600
14259 SI 14259 SI SI1 14259 1.100000 28.08600
14260 SI 14260 SI SI1 14260 1.100000 28.08600
14261 SI 14261 SI SI1 14261 1.100000 28.08600
14262 SI 14262 SI SI1 14262 1.100000 28.08600
14263 SI 14263 SI SI1 14263 1.100000 28.08600
14264 SI 14264 SI SI1 14264 1.100000 28.08600
14265 SI 14265 SI SI1 14265 1.100000 28.08600
14266 SI 14266 SI SI1 14266 1.100000 28.08600
14267 SI 14267 SI SI1 14267 1.100000 28.08600
14268 SI 14268 SI SI1 14268 1.100000 28.08600
14269 SI 14269 SI SI1 14269 1.100000 28.08600
14270 SI 14270 SI SI1 14270 1.100000 28.08600
14271 SI 14271 SI SI1 14271 1.100000 28.08600
14272 SI 14272 SI SI1 14272 1.100000 28.08600
14273 SI 14273 SI SI1 14273 1.100000 28.08600
14274 SI 14274 SI SI1 14274 1.100000 28.08600
14275 SI 14275 SI SI1 14275 1.100000 28.08600
14276 SI 14276 SI SI1 14276 1.100000 28.08600
14277 SI 14277 SI SI1 14277 1.100000 28.08600
14278 SI 14278 SI SI1 14278 1.100000 28.08600
14279 SI 14279 SI SI1 14279 1.100000 28.08600
14280 SI 14280 SI SI1 14280 1.100000 28.08600
14281 SI 14281 SI SI1 14281 1.100000 28.08600
14282 SI 14282 SI SI1 14282 1.100000 28.08600
14283 SI 14283 SI SI1 14283 1.100000 28.08600
14284 SI 14284 SI SI1 14284 1.100000 28.08600
14285 SI 14285 SI SI1 14285 1.100000 28.08600
14286 SI 14286 SI SI1 14286 1.100000 28.08600
14287 SI 14287 SI SI1 14287 1.100000 28.08600
14288 SI 14288 SI SI1 14288 1.100000 28.08600
14289 SI 14289 SI SI1 14289 1.100000 28.08600
14290 SI 14290 SI SI1 14290 1.100000 28.08600
14291 SI 14291 SI SI1 14291 1.100000 28.08600
14292 SI 14292 SI SI1 14292 1.100000 28.08600
14293 SI 14293 SI SI1 14293 1.100000 28.08600
14294 SI 14294 SI SI1 14294 1.100000 28.08600
14295 SI 14295 SI SI1 14295 1.100000 28.08600
14296 SI 14296 SI SI1 14296 1.100000 28.08600
14297 SI 14297 SI SI1 14297 1.100000 28.08600
14298 SI 14298 SI SI1 14298 1.100000 28.08600
14299 SI 14299 SI SI1 14299 1.100000 28.08600
14300 SI 14300 SI SI1 14300 1.100000 28.08600
14301 SI 14301 SI SI1 14301 1.100000 28.08600
14302 SI 14302 SI SI1 14302 1.100000 28.08600
14303 SI 14303 SI SI1 14303 1.100000 28.08600
14304 SI 14304 SI SI1 14304 1.100000 28.08600
14305 SI 14305 SI SI1 14305 1.100000 28.08600
14306 SI 14306 SI SI1 14306 1.100000 28.08600
14307 SI 14307 SI SI1 14307 1.100000 28.08600
14308 SI 14308 SI SI1 14308 1.100000 28.08600
14309 SI 14309 SI SI1 14309 1.100000 28.08600
14310 SI 14310 SI SI1 14310 1.100000 28.08600
14311 SI 14311 SI SI1 14311 1.100000 28.08600
14312 SI 14312 SI SI1 14312 1.100000 28.08600
14313 SI 14313 SI SI1 14313 1.100000 28.08600
14314 SI 14314 SI SI1 14314 1.100000 28.08600
14315 SI 14315 SI SI1 14315 1.100000 28.08600
14316 SI 14316 SI SI1 14316 1.100000 28.08600
14317 SI 14317 SI SI1 14317 1.100000 28.08600
14318 SI 14318 SI SI1 14318 1.100000 28.08600
14319 SI 14319 SI SI1 14319 1.100000 28.08600
14320 SI 14320 SI SI1 14320 1.100000 28.08600
14321 SI 14321 SI SI1 14321 1.100000 28.08600
14322 SI 14322 SI SI1 14322 1.100000 28.08600
14323 SI 14323 SI SI1 14323 1.100000 28.08600
14324 SI 14324 SI SI1 14324 1.100000 28.08600
14325 SI 14325 SI SI1 14325 1.100000 28.08600
14326 SI 14326 SI SI1 14326 1.100000 28.08600
14327 SI 14327 SI SI1 14327 1.100000 28.08600
14328 SI 14328 SI SI1 14328 1.100000 28.08600
14329 SI 14329 SI SI1 14329 1.100000 28.08600
14330 SI 14330 SI SI1 14330 1.100000 28.08600
14331 SI 14331 SI SI1 14331 1.100000 28.08600
14332 SI 14332 SI SI1 14332 1.100000 28.08600
14333 SI 14333 SI SI1 14333 1.100000 28.08600
14334 SI 14334 SI SI1 14334 1.100000 28.08600
14335 SI 14335 SI SI1 14335 1.100000 28.08600
14336 SI 14336 SI SI1 14336 1.100000 28.08600
14337 SI 14337 SI SI1 14337 1.100000 28.08600
14338 SI 14338 SI SI1 14338 1.100000 28.08600
14339 SI 14339 SI SI1 14339 1.100000 28.08600
14340 SI 14340 SI SI1 14340 1.100000 28.08600
14341 SI 14341 SI SI1 14341 1.100000 28.08600
14342 SI 14342 SI SI1 14342 1.100000 28.08600
14343 SI 14343 SI SI1 14343 1.100000 28.08600
14344 SI 14344 SI SI1 14344 1.100000 28.08600
14345 SI 14345 SI SI1 14345 1.100000 28.08600
14346 SI 14346 SI SI1 14346 1.100000 28.08600
14347 SI 14347 SI SI1 14347 1.100000 28.08600
14348 SI 14348 SI SI1 14348 1.100000 28.08600
14349 SI 14349 SI SI1 14349 1.100000 28.08600
14350 SI 14350 SI SI1 14350 1.100000 28.08600
14351 SI 14351 SI SI1 14351 1.100000 28.08600
14352 SI 14352 SI SI1 14352 1.100000 28.08600
14353 SI 14353 SI SI1 14353 1.100000 28.08600
14354 SI 14354 SI SI1 14354 1.100000 28.08600
14355 SI 14355 SI SI1 14355 1.100000 28.08600
14356 SI 14356 SI SI1 14356 1.100000 28.08600
14357 SI 14357 SI SI1 14357 1.100000 28.08600
14358 SI 14358 SI SI1 14358 1.100000 28.08600
14359 SI 14359 SI SI1 14359 1.100000 28.08600
14360 SI 14360 SI SI1 14360 1.100000 28.08600
14361 SI 14361 SI SI1 14361 1.100000 28.08600
14362 SI 14362 SI SI1 14362 1.100000 28.08600
14363 SI 14363 SI SI1 14363 1.100000 28.08600
14364 SI 14364 SI SI1 14364 1.100000 28.08600
14365 SI 14365 SI SI1 14365 1.100000 28.08600
14366 SI 14366 SI SI1 14366 1.100000 28.08600
14367 SI 14367 SI SI1 14367 1.100000 28.08600
14368 SI 14368 SI SI1 14368 1.100000 28.08600
14369 SI 14369 SI SI1 14369 1.100000 28.08600
14370 SI 14370 SI SI1 14370 1.100000 28.08600
14371 SI 14371 SI SI1 14371 1.100000 28.08600
14372 SI 14372 SI SI1 14372 1.100000 28.08600
14373 SI 14373 SI SI1 14373 1.100000 28.08600
14374 SI 14374 SI SI1 14374 1.100000 28.08600
14375 SI 14375 SI SI1 14375 1.100000 28.08600
14376 SI 14376 SI SI1 14376 1.100000 28.08600
14377 SI 14377 SI SI1 14377 1.100000 28.08600
14378 SI 14378 SI SI1 14378 1.100000 28.08600
14379 SI 14379 SI SI1 14379 1.100000 28.08600
14380 SI 14380 SI SI1 14380 1.100000 28.08600
14381 SI 14381 SI SI1 14381 1.100000 28.08600
14382 SI 14382 SI SI1 14382 1.100000 28.08600
14383 SI 14383 SI SI1 14383 1.100000 28.08600
14384 SI 14384 SI SI1 14384 1.100000 28.08600
14385 SI 14385 SI SI1 14385 1.100000 28.08600
14386 SI 14386 SI SI1 14386 1.100000 28.08600
14387 SI 14387 SI SI1 14387 1.100000 28.08600
14388 SI 14388 SI SI1 14388 1.100000 28.08600
14389 SI 14389 SI SI1 14389 1.100000 28.08600
14390 SI 14390 SI SI1 14390 1.100000 28.08600
14391 SI 14391 SI SI1 14391 1.100000 28.08600
14392 SI 14392 SI SI1 14392 1.100000 28.08600
14393 SI 14393 SI SI1 14393 1.100000 28.08600
14394 SI 14394 SI SI1 14394 1.100000 28.08600
14395 SI 14395 SI SI1 14395 1.100000 28.08600
14396 SI 14396 SI SI1 14396 1.100000 28.08600
14397 SI 14397 SI SI1 14397 1.100000 28.08600
14398 SI 14398 SI SI1 14398 1.100000 28.08600
14399 SI 14399 SI SI1 14399 1.100000 28.08600
14400 SI 14400 SI SI1 14400 1.100000 28.08600
14401 SI 14401 SI SI1 14401 1.100000 28.08600
14402 SI 14402 SI SI1 14402 1.100000 28.08600
14403 SI 14403 SI SI1 14403 1.100000 28.08600
14404 SI 14404 SI SI1 14404 1.100000 28.08600
14405 SI 14405 SI SI1 14405 1.100000 28.08600
14406 SI 14406 SI SI1 14406 1.100000 28.08600
14407 SI 14407 SI SI1 14407 1.100000 28.08600
14408 SI 14408 SI SI1 14408 1.100000 28.08600
14409 SI 14409 SI SI1 14409 1.100000 28.08600
14410 SI 14410 SI SI1 14410 1.100000 28.08600
14411 SI 14411 SI SI1 14411 1.100000 28.08600
14412 SI 14412 SI SI1 14412 1.100000 28.08600
14413 SI 14413 SI SI1 14413 1.100000 28.08600
14414 SI 14414 SI SI1 14414 1.100000 28.08600
14415 SI 14415 SI SI1 14415 1.100000 28.08600
14416 SI 14416 SI SI1 14416 1.100000 28.08600
14417 SI 14417 SI SI1 14417 1.100000 28.08600
14418 SI 14418 SI SI1 14418 1.100000 28.08600
14419 SI 14419 SI SI1 14419 1.100000 28.08600
14420 SI 14420 SI SI1 14420 1.100000 28.08600
14421 SI 14421 SI SI1 14421 1.100000 28.08600
14422 SI 14422 SI SI1 14422 1.100000 28.08600
14423 SI 14423 SI SI1 14423 1.100000 28.08600
14424 SI 14424 SI SI1 14424 1.100000 28.08600
14425 SI 14425 SI SI1 14425 1.100000 28.08600
14426 SI 14426 SI SI1 14426 1.100000 28.08600
14427 SI 14427 SI SI1 14427 1.100000 28.08600
14428 SI 14428 SI SI1 14428 1.100000 28.08600
14429 SI 14429 SI SI1 14429 1.100000 28.08600
14430 SI 14430 SI SI1 14430 1.100000 28.08600
14431 SI 14431 SI SI1 14431 1.100000 28.08600
14432 SI 14432 SI SI1 14432 1.100000 28.08600
14433 SI 14433 SI SI1 14433 1.100000 28.08600
14434 SI 14434 SI SI1 14434 1.100000 28.08600
14435 SI 14435 SI SI1 14435 1.100000 28.08600
14436 SI 14436 SI SI1 14436 1.100000 28.08600
14437 SI 14437 SI SI1 14437 1.100000 28.08600
14438 SI 14438 SI SI1 14438 1.100000 28.08600
14439 SI 14439 SI SI1 14439 1.100000 28.08600
14440 SI 14440 SI SI1 14440 1.100000 28.08600
14441 SI 14441 SI SI1 14441 1.100000 28.08600
14442 SI 14442 SI SI1 14442 1.100000 28.08600
14443 SI 14443 SI SI1 14443 1.100000 28.08600
14444 SI 14444 SI SI1 14444 1.100000 28.08600
14445 SI 14445 SI SI1 14445 1.100000 28.08600
14446 SI 14446 SI SI1 14446 1.100000 28.08600
14447 SI 14447 SI SI1 14447 1.100000 28.08600
14448 SI 14448 SI SI1 14448 1.100000 28.08600
14449 SI 14449 SI SI1 14449 1.100000 28.08600
14450 SI 14450 SI SI1 14450 1.100000 28.08600
14451 SI 14451 SI SI1 14451 1.100000 28.08600
14452 SI 14452 SI SI1 14452 1.100000 28.08600
14453 SI 14453 SI SI1 14453 1.100000 28.08600
14454 SI 14454 SI SI1 14454 1.100000 28.08600
14455 SI 14455 SI SI1 14455 1.100000 28.08600
14456 SI 14456 SI SI1 14456 1.100000 28.08600
14457 SI 14457 SI SI1 14457 1.100000 28.08600
14458 SI 14458 SI SI1 14458 1.100000 28.08600
14459 SI 14459 SI SI1 14459 1.100000 28.08600
14460 SI 14460 SI SI1 14460 1.100000 28.08600
14461 SI 14461 SI SI1 14461 1.100000 28.08600
14462 SI 14462 SI SI1 14462 1.100000 28.08600
14463 SI 14463 SI SI1 14463 1.100000 28.08600
14464 SI 14464 SI SI1 14464 1.100000 28.08600
14465 SI 14465 SI SI1 14465 1.100000 28.08600
14466 SI 14466 SI SI1 14466 1.100000 28.08600
14467 SI 14467 SI SI1 14467 1.100000 28.08600
14468 SI 14468 SI SI1 14468 1.100000 28.08600
14469 SI 14469 SI SI1 14469 1.100000 28.08600
14470 SI 14470 SI SI1 14470 1.100000 28.08600
14471 SI 14471 SI SI1 14471 1.100000 28.08600
14472 SI 14472 SI SI1 14472 1.100000 28.08600
14473 SI 14473 SI SI1 14473 1.100000 28.08600
14474 SI 14474 SI SI1 14474 1.100000 28.08600
14475 SI 14475 SI SI1 14475 1.100000 28.08600
14476 SI 14476 SI SI1 14476 1.100000 28.08600
14477 SI 14477 SI SI1 14477 1.100000 28.08600
14478 SI 14478 SI SI1 14478 1.100000 28.08600
14479 SI 14479 SI SI1 14479 1.100000 28.08600
14480 SI 14480 SI SI1 14480 1.100000 28.08600
14481 SI 14481 SI SI1 14481 1.100000 28.08600
14482 SI 14482 SI SI1 14482 1.100000 28.08600
14483 SI 14483 SI SI1 14483 1.100000 28.08600
14484 SI 14484 SI SI1 14484 1.100000 28.08600
14485 SI 14485 SI SI1 14485 1.100000 28.08600
14486 SI 14486 SI SI1 14486 1.100000 28.08600
14487 SI 14487 SI SI1 14487 1.100000 28.08600
14488 SI 14488 SI SI1 14488 1.100000 28.08600
14489 SI 14489 SI SI1 14489 1.100000 28.08600
14490 SI 14490 SI SI1 14490 1.100000 28.08600
14491 SI 14491 SI SI1 14491 1.100000 28.08600
14492 SI 14492 SI SI1 14492 1.100000 28.08600
14493 SI 14493 SI SI1 14493 1.100000 28.08600
14494 SI 14494 SI SI1 14494 1.100000 28.08600
14495 SI 14495 SI SI1 14495 1.100000 28.08600
14496 SI 14496 SI SI1 14496 1.100000 28.08600
14497 SI 14497 SI SI1 14497 1.100000 28.08600
14498 SI 14498 SI SI1 14498 1.100000 28.08600
14499 SI 14499 SI SI1 14499 1.100000 28.08600
14500 SI 14500 SI SI1 14500 1.100000 28.08600
14501 SI 14501 SI SI1 14501 1.100000 28.08600
14502 SI 14502 SI SI1 14502 1.100000 28.08600
14503 SI 14503 SI SI1 14503 1.100000 28.08600
14504 SI 14504 SI SI1 14504 1.100000 28.08600
14505 SI 14505 SI SI1 14505 1.100000 28.08600
14506 SI 14506 SI SI1 14506 1.100000 28.08600
14507 SI 14507 SI SI1 14507 1.100000 28.08600
14508 SI 14508 SI SI1 14508 1.100000 28.08600
14509 SI 14509 SI SI1 14509 1.100000 28.08600
14510 SI 14510 SI SI1 14510 1.100000 28.08600
14511 SI 14511 SI SI1 14511 1.100000 28.08600
14512 SI 14512 SI SI1 14512 1.100000 28.08600
14513 SI 14513 SI SI1 14513 1.100000 28.08600
14514 SI 14514 SI SI1 14514 1.100000 28.08600
14515 SI 14515 SI SI1 14515 1.100000 28.08600
14516 SI 14516 SI SI1 14516 1.100000 28.08600
14517 SI 14517 SI SI1 14517 1.100000 28.08600
14518 SI 14518 SI SI1 14518 1.100000 28.08600
14519 SI 14519 SI SI1 14519 1.100000 28.08600
14520 SI 14520 SI SI1 14520 1.100000 28.08600
14521 SI 14521 SI SI1 14521 1.100000 28.08600
14522 SI 14522 SI SI1 14522 1.100000 28.08600
14523 SI 14523 SI SI1 14523 1.100000 28.08600
14524 SI 14524 SI SI1 14524 1.100000 28.08600
14525 SI 14525 SI SI1 14525 1.100000 28.08600
14526 SI 14526 SI SI1 14526 1.100000 28.08600
14527 SI 14527 SI SI1 14527 1.100000 28.08600
14528 SI 14528 SI SI1 14528 1.100000 28.08600
14529 SI 14529 SI SI1 14529 1.100000 28.08600
14530 SI 14530 SI SI1 14530 1.100000 28.08600
14531 SI 14531 SI SI1 14531 1.100000 28.08600
14532 SI 14532 SI SI1 14532 1.100000 28.08600
14533 SI 14533 SI SI1 14533 1.100000 28.08600
14534 SI 14534 SI SI1 14534 1.100000 28.08600
14535 SI 14535 SI SI1 14535 1.100000 28.08600
14536 SI 14536 SI SI1 14536 1.100000 28.08600
14537 SI 14537 SI SI1 14537 1.100000 28.08600
14538 SI 14538 SI SI1 14538 1.100000 28.08600
14539 SI 14539 SI SI1 14539 1.100000 28.08600
14540 SI 14540 SI SI1 14540 1.100000 28.08600
14541 SI 14541 SI SI1 14541 1.100000 28.08600
14542 SI 14542 SI SI1 14542 1.100000 28.08600
14543 SI 14543 SI SI1 14543 1.100000 28.08600
14544 SI 14544 SI SI1 14544 1.100000 28.08600
14545 SI 14545 SI SI1 14545 1.100000 28.08600
14546 SI 14546 SI SI1 14546 1.100000 28.08600
14547 SI 14547 SI SI1 14547 1.100000 28.08600
14548 SI 14548 SI SI1 14548 1.100000 28.08600
14549 SI 14549 SI SI1 14549 1.100000 28.08600
14550 SI 14550 SI SI1 14550 1.100000 28.08600
14551 SI 14551 SI SI1 14551 1.100000 28.08600
14552 SI 14552 SI SI1 14552 1.100000 28.08600
14553 SI 14553 SI SI1 14553 1.100000 28.08600
14554 SI 14554 SI SI1 14554 1.100000 28.08600
14555 SI 14555 SI SI1 14555 1.100000 28.08600
14556 SI 14556 SI SI1 14556 1.100000 28.08600
14557 SI 14557 SI SI1 14557 1.100000 28.08600
14558 SI 14558 SI SI1 14558 1.100000 28.08600
14559 SI 14559 SI SI1 14559 1.100000 28.08600
14560 SI 14560 SI SI1 14560 1.100000 28.08600
14561 SI 14561 SI SI1 14561 1.100000 28.08600
14562 SI 14562 SI SI1 14562 1.100000 28.08600
14563 SI 14563 SI SI1 14563 1.100000 28.08600
14564 SI 14564 SI SI1 14564 1.100000 28.08600
14565 SI 14565 SI SI1 14565 1.100000 28.08600
14566 SI 14566 SI SI1 14566 1.100000 28.08600
14567 SI 14567 SI SI1 14567 1.100000 28.08600
14568 SI 14568 SI SI1 14568 1.100000 28.08600
14569 SI 14569 SI SI1 14569 1.100000 28.08600
14570 SI 14570 SI SI1 14570 1.100000 28.08600
14571 SI 14571 SI SI1 14571 1.100000 28.08600
14572 SI 14572 SI SI1 14572 1.100000 28.08600
14573 SI 14573 SI SI1 14573 1.100000 28.08600
14574 SI 14574 SI SI1 14574 1.100000 28.08600
14575 SI 14575 SI SI1 14575 1.100000 28.08600
14576 SI 14576 SI SI1 14576 1.100000 28.08600
14577 SI 14577 SI SI1 14577 1.100000 28.08600
14578 SI 14578 SI SI1 14578 1.100000 28.08600
14579 SI 14579 SI SI1 14579 1.100000 28.08600
14580 SI 14580 SI SI1 14580 1.100000 28.08600
14581 SI 14581 SI SI1 14581 1.100000 28.08600
14582 SI 14582 SI SI1 14582 1.100000 28.08600
14583 SI 14583 SI SI1 14583 1.100000 28.08600
14584 SI 14584 SI SI1 14584 1.100000 28.08600
14585 SI 14585 SI SI1 14585 1.100000 28.08600
14586 SI 14586 SI SI1 14586 1.100000 28.08600
14587 SI 14587 SI SI1 14587 1.100000 28.08600
14588 SI 14588 SI SI1 14588 1.100000 28.08600
14589 SI 14589 SI SI1 14589 1.100000 28.08600
14590 SI 14590 SI SI1 14590 1.100000 28.08600
14591 SI 14591 SI SI1 14591 1.100000 28.08600
14592 SI 14592 SI SI1 14592 1.100000 28.08600
14593 SI 14593 SI SI1 14593 1.100000 28.08600
14594 SI 14594 SI SI1 14594 1.100000 28.08600
14595 SI 14595 SI SI1 14595 1.100000 28.08600
14596 SI 14596 SI SI1 14596 1.100000 28.08600
14597 SI 14597 SI SI1 14597 1.100000 28.08600
14598 SI 14598 SI SI1 14598 1.100000 28.08600
14599 SI 14599 SI SI1 14599 1.100000 28.08600
14600 SI 14600 SI SI1 14600 1.100000 28.08600
14601 SI 14601 SI SI1 14601 1.100000 28.08600
14602 SI 14602 SI SI1 14602 1.100000 28.08600
14603 SI 14603 SI SI1 14603 1.100000 28.08600
14604 SI 14604 SI SI1 14604 1.100000 28.08600
14605 SI 14605 SI SI1 14605 1.100000 28.08600
14606 SI 14606 SI SI1 14606 1.100000 28.08600
14607 SI 14607 SI SI1 14607 1.100000 28.08600
14608 SI 14608 SI SI1 14608 1.100000 28.08600
14609 SI 14609 SI SI1 14609 1.100000 28.08600
14610 SI 14610 SI SI1 14610 1.100000 28.08600
14611 SI 14611 SI SI1 14611 1.100000 28.08600
14612 SI 14612 SI SI1 14612 1.100000 28.08600
14613 SI 14613 SI SI1 14613 1.100000 28.08600
14614 SI 14614 SI SI1 14614 1.100000 28.08600
14615 SI 14615 SI SI1 14615 1.100000 28.08600
14616 SI 14616 SI SI1 14616 1.100000 28.08600
14617 SI 14617 SI SI1 14617 1.100000 28.08600
14618 SI 14618 SI SI1 14618 1.100000 28.08600
14619 SI 14619 SI SI1 14619 1.100000 28.08600
14620 SI 14620 SI SI1 14620 1.100000 28.08600
14621 SI 14621 SI SI1 14621 1.100000 28.08600
14622 SI 14622 SI SI1 14622 1.100000 28.08600
14623 SI 14623 SI SI1 14623 1.100000 28.08600
14624 SI 14624 SI SI1 14624 1.100000 28.08600
14625 SI 14625 SI SI1 14625 1.100000 28.08600
14626 SI 14626 SI SI1 14626 1.100000 28.08600
14627 SI 14627 SI SI1 14627 1.100000 28.08600
14628 SI 14628 SI SI1 14628 1.100000 28.08600
14629 SI 14629 SI SI1 14629 1.100000 28.08600
14630 SI 14630 SI SI1 14630 1.100000 28.08600
14631 SI 14631 SI SI1 14631 1.100000 28.08600
14632 SI 14632 SI SI1 14632 1.100000 28.08600
14633 SI 14633 SI SI1 14633 1.100000 28.08600
14634 SI 14634 SI SI1 14634 1.100000 28.08600
14635 SI 14635 SI SI1 14635 1.100000 28.08600
14636 SI 14636 SI SI1 14636 1.100000 28.08600
14637 SI 14637 SI SI1 14637 1.100000 28.08600
14638 SI 14638 SI SI1 14638 1.100000 28.08600
14639 SI 14639 SI SI1 14639 1.100000 28.08600
14640 SI 14640 SI SI1 14640 1.100000 28.08600
14641 SI 14641 SI SI1 14641 1.100000 28.08600
14642 SI 14642 SI SI1 14642 1.100000 28.08600
14643 SI 14643 SI SI1 14643 1.100000 28.08600
14644 SI 14644 SI SI1 14644 1.100000 28.08600
14645 SI 14645 SI SI1 14645 1.100000 28.08600
14646 SI 14646 SI SI1 14646 1.100000 28.08600
14647 SI 14647 SI SI1 14647 1.100000 28.08600
14648 SI 14648 SI SI1 14648 1.100000 28.08600
14649 SI 14649 SI SI1 14649 1.100000 28.08600
14650 SI 14650 SI SI1 14650 1.100000 28.08600
14651 SI 14651 SI SI1 14651 1.100000 28.08600
14652 SI 14652 SI SI1 14652 1.100000 28.08600
14653 SI 14653 SI SI1 14653 1.100000 28.08600
14654 SI 14654 SI SI1 14654 1.100000 28.08600
14655 SI 14655 SI SI1 14655 1.100000 28.08600
14656 SI 14656 SI SI1 14656 1.100000 28.08600
14657 SI 14657 SI SI1 14657 1.100000 28.08600
14658 SI 14658 SI SI1 14658 1.100000 28.08600
14659 SI 14659 SI SI1 14659 1.100000 28.08600
14660 SI 14660 SI SI1 14660 1.100000 28.08600
14661 SI 14661 SI SI1 14661 1.100000 28.08600
14662 SI 14662 SI SI1 14662 1.100000 28.08600
14663 SI 14663 SI SI1 14663 1.100000 28.08600
14664 SI 14664 SI SI1 14664 1.100000 28.08600
14665 SI 14665 SI SI1 14665 1.100000 28.08600
14666 SI 14666 SI SI1 14666 1.100000 28.08600
14667 SI 14667 SI SI1 14667 1.100000 28.08600
14668 SI 14668 SI SI1 14668 1.100000 28.08600
14669 SI 14669 SI SI1 14669 1.100000 28.08600
14670 SI 14670 SI SI1 14670 1.100000 28.08600
14671 SI 14671 SI SI1 14671 1.100000 28.08600
14672 SI 14672 SI SI1 14672 1.100000 28.08600
14673 SI 14673 SI SI1 14673 1.100000 28.08600
14674 SI 14674 SI SI1 14674 1.100000 28.08600
14675 SI 14675 SI SI1 14675 1.100000 28.08600
14676 SI 14676 SI SI1 14676 1.100000 28.08600
14677 SI 14677 SI SI1 14677 1.100000 28.08600
14678 SI 14678 SI SI1 14678 1.100000 28.08600
14679 SI 14679 SI SI1 14679 1.100000 28.08600
14680 SI 14680 SI SI1 14680 1.100000 28.08600
14681 SI 14681 SI SI1 14681 1.100000 28.08600
14682 SI 14682 SI SI1 14682 1.100000 28.08600
14683 SI 14683 SI SI1 14683 1.100000 28.08600
14684 SI 14684 SI SI1 14684 1.100000 28.08600
14685 SI 14685 SI SI1 14685 1.100000 28.08600
14686 SI 14686 SI SI1 14686 1.100000 28.08600
14687 SI 14687 SI SI1 14687 1.100000 28.08600
14688 SI 14688 SI SI1 14688 1.100000 28.08600
14689 SI 14689 SI SI1 14689 1.100000 28.08600
14690 SI 14690 SI SI1 14690 1.100000 28.08600
14691 SI 14691 SI SI1 14691 1.100000 28.08600
14692 SI 14692 SI SI1 14692 1.100000 28.08600
14693 SI 14693 SI SI1 14693 1.100000 28.08600
14694 SI 14694 SI SI1 14694 1.100000 28.08600
14695 SI 14695 SI SI1 14695 1.100000 28.08600
14696 SI 14696 SI SI1 14696 1.100000 28.08600
14697 SI 14697 SI SI1 14697 1.100000 28.08600
14698 SI 14698 SI SI1 14698 1.100000 28.08600
14699 SI 14699 SI SI1 14699 1.100000 28.08600
14700 SI 14700 SI SI1 14700 1.100000 28.08600
14701 SI 14701 SI SI1 14701 1.100000 28.08600
14702 SI 14702 SI SI1 14702 1.100000 28.08600
14703 SI 14703 SI SI1 14703 1.100000 28.08600
14704 SI 14704 SI SI1 14704 1.100000 28.08600
14705 SI 14705 SI SI1 14705 1.100000 28.08600
14706 SI 14706 SI SI1 14706 1.100000 28.08600
14707 SI 14707 SI SI1 14707 1.100000 28.08600
14708 SI 14708 SI SI1 14708 1.100000 28.08600
14709 SI 14709 SI SI1 14709 1.100000 28.08600
14710 SI 14710 SI SI1 14710 1.100000 28.08600
14711 SI 14711 SI SI1 14711 1.100000 28.08600
14712 SI 14712 SI SI1 14712 1.100000 28.08600
14713 SI 14713 SI SI1 14713 1.100000 28.08600
14714 SI 14714 SI SI1 14714 1.100000 28.08600
14715 SI 14715 SI SI1 14715 1.100000 28.08600
14716 SI 14716 SI SI1 14716 1.100000 28.08600
14717 SI 14717 SI SI1 14717 1.100000 28.08600
14718 SI 14718 SI SI1 14718 1.100000 28.08600
14719 SI 14719 SI SI1 14719 1.100000 28.08600
14720 SI 14720 SI SI1 14720 1.100000 28.08600
14721 SI 14721 SI SI1 14721 1.100000 28.08600
14722 SI 14722 SI SI1 14722 1.100000 28.08600
14723 SI 14723 SI SI1 14723 1.100000 28.08600
14724 SI 14724 SI SI1 14724 1.100000 28.08600
14725 SI 14725 SI SI1 14725 1.100000 28.08600
14726 SI 14726 SI SI1 14726 1.100000 28.08600
14727 SI 14727 SI SI1 14727 1.100000 28.08600
14728 SI 14728 SI SI1 14728 1.100000 28.08600
14729 SI 14729 SI SI1 14729 1.100000 28.08600
14730 SI 14730 SI SI1 14730 1.100000 28.08600
14731 SI 14731 SI SI1 14731 1.100000 28.08600
14732 SI 14732 SI SI1 14732 1.100000 28.08600
14733 SI 14733 SI SI1 14733 1.100000 28.08600
14734 SI 14734 SI SI1 14734 1.100000 28.08600
14735 SI 14735 SI SI1 14735 1.100000 28.08600
14736 SI 14736 SI SI1 14736 1.100000 28.08600
14737 SI 14737 SI SI1 14737 1.100000 28.08600
14738 SI 14738 SI SI1 14738 1.100000 28.08600
14739 SI 14739 SI SI1 14739 1.100000 28.08600
14740 SI 14740 SI SI1 14740 1.100000 28.08600
14741 SI 14741 SI SI1 14741 1.100000 28.08600
14742 SI 14742 SI SI1 14742 1.100000 28.08600
14743 SI 14743 SI SI1 14743 1.100000 28.08600
14744 SI 14744 SI SI1 14744 1.100000 28.08600
14745 SI 14745 SI SI1 14745 1.100000 28.08600
14746 SI 14746 SI SI1 14746 1.100000 28.08600
14747 SI 14747 SI SI1 14747 1.100000 28.08600
14748 SI 14748 SI SI1 14748 1.100000 28.08600
14749 SI 14749 SI SI1 14749 1.100000 28.08600
14750 SI 14750 SI SI1 14750 1.100000 28.08600
14751 SI 14751 SI SI1 14751 1.100000 28.08600
14752 SI 14752 SI SI1 14752 1.100000 28.08600
14753 SI 14753 SI SI1 14753 1.100000 28.08600
14754 SI 14754 SI SI1 14754 1.100000 28.08600
14755 SI 14755 SI SI1 14755 1.100000 28.08600
14756 SI 14756 SI SI1 14756 1.100000 28.08600
14757 SI 14757 SI SI1 14757 1.100000 28.08600
14758 SI 14758 SI SI1 14758 1.100000 28.08600
14759 SI 14759 SI SI1 14759 1.100000 28.08600
14760 SI 14760 SI SI1 14760 1.100000 28.08600
14761 SI 14761 SI SI1 14761 1.100000 28.08600
14762 SI 14762 SI SI1 14762 1.100000 28.08600
14763 SI 14763 SI SI1 14763 1.100000 28.08600
14764 SI 14764 SI SI1 14764 1.100000 28.08600
14765 SI 14765 SI SI1 14765 1.100000 28.08600
14766 SI 14766 SI SI1 14766 1.100000 28.08600
14767 SI 14767 SI SI1 14767 1.100000 28.08600
14768 SI 14768 SI SI1 14768 1.100000 28.08600
14769 SI 14769 SI SI1 14769 1.100000 28.08600
14770 SI 14770 SI SI1 14770 1.100000 28.08600
14771 SI 14771 SI SI1 14771 1.100000 28.08600
14772 SI 14772 SI SI1 14772 1.100000 28.08600
14773 SI 14773 SI SI1 14773 1.100000 28.08600
14774 SI 14774 SI SI1 14774 1.100000 28.08600
14775 SI 14775 SI SI1 14775 1.100000 28.08600
14776 SI 14776 SI SI1 14776 1.100000 28.08600
14777 SI 14777 SI SI1 14777 1.100000 28.08600
14778 SI 14778 SI SI1 14778 1.100000 28.08600
14779 SI 14779 SI SI1 14779 1.100000 28.08600
14780 SI 14780 SI SI1 14780 1.100000 28.08600
14781 SI 14781 SI SI1 14781 1.100000 28.08600
14782 SI 14782 SI SI1 14782 1.100000 28.08600
14783 SI 14783 SI SI1 14783 1.100000 28.08600
14784 SI 14784 SI SI1 14784 1.100000 28.08600
14785 SI 14785 SI SI1 14785 1.100000 28.08600
14786 SI 14786 SI SI1 14786 1.100000 28.08600
14787 SI 14787 SI SI1 14787 1.100000 28.08600
14788 SI 14788 SI SI1 14788 1.100000 28.08600
14789 SI 14789 SI SI1 14789 1.100000 28.08600
14790 SI 14790 SI SI1 14790 1.100000 28.08600
14791 SI 14791 SI SI1 14791 1.100000 28.08600
14792 SI 14792 SI SI1 14792 1.100000 28.08600
14793 SI 14793 SI SI1 14793 1.100000 28.08600
14794 SI 14794 SI SI1 14794 1.100000 28.08600
14795 SI 14795 SI SI1 14795 1.100000 28.08600
14796 SI 14796 SI SI1 14796 1.100000 28.08600
14797 SI 14797 SI SI1 14797 1.100000 28.08600
14798 SI 14798 SI SI1 14798 1.100000 28.08600
14799 SI 14799 SI SI1 14799 1.100000 28.08600
14800 SI 14800 SI SI1 14800 1.100000 28.08600
14801 SI 14801 SI SI1 14801 1.100000 28.08600
14802 SI 14802 SI SI1 14802 1.100000 28.08600
14803 SI 14803 SI SI1 14803 1.100000 28.08600
14804 SI 14804 SI SI1 14804 1.100000 28.08600
14805 SI 14805 SI SI1 14805 1.100000 28.08600
14806 SI 14806 SI SI1 14806 1.100000 28.08600
14807 SI 14807 SI SI1 14807 1.100000 28.08600
14808 SI 14808 SI SI1 14808 1.100000 28.08600
14809 SI 14809 SI SI1 14809 1.100000 28.08600
14810 SI 14810 SI SI1 14810 1.100000 28.08600
14811 SI 14811 SI SI1 14811 1.100000 28.08600
14812 SI 14812 SI SI1 14812 1.100000 28.08600
14813 SI 14813 SI SI1 14813 1.100000 28.08600
14814 SI 14814 SI SI1 14814 1.100000 28.08600
14815 SI 14815 SI SI1 14815 1.100000 28.08600
14816 SI 14816 SI SI1 14816 1.100000 28.08600
14817 SI 14817 SI SI1 14817 1.100000 28.08600
14818 SI 14818 SI SI1 14818 1.100000 28.08600
14819 SI 14819 SI SI1 14819 1.100000 28.08600
14820 SI 14820 SI SI1 14820 1.100000 28.08600
14821 SI 14821 SI SI1 14821 1.100000 28.08600
14822 SI 14822 SI SI1 14822 1.100000 28.08600
14823 SI 14823 SI SI1 14823 1.100000 28.08600
14824 SI 14824 SI SI1 14824 1.100000 28.08600
14825 SI 14825 SI SI1 14825 1.100000 28.08600
14826 SI 14826 SI SI1 14826 1.100000 28.08600
14827 SI 14827 SI SI1 14827 1.100000 28.08600
14828 SI 14828 SI SI1 14828 1.100000 28.08600
14829 SI 14829 SI SI1 14829 1.100000 28.08600
14830 SI 14830 SI SI1 14830 1.100000 28.08600
14831 SI 14831 SI SI1 14831 1.100000 28.08600
14832 SI 14832 SI SI1 14832 1.100000 28.08600
14833 SI 14833 SI SI1 14833 1.100000 28.08600
14834 SI 14834 SI SI1 14834 1.100000 28.08600
14835 SI 14835 SI SI1 14835 1.100000 28.08600
14836 SI 14836 SI SI1 14836 1.100000 28.08600
14837 SI 14837 SI SI1 14837 1.100000 28.08600
14838 SI 14838 SI SI1 14838 1.100000 28.08600
14839 SI 14839 SI SI1 14839 1.100000 28.08600
14840 SI 14840 SI SI1 14840 1.100000 28.08600
14841 SI 14841 SI SI1 14841 1.100000 28.08600
14842 SI 14842 SI SI1 14842 1.100000 28.08600
14843 SI 14843 SI SI1 14843 1.100000 28.08600
14844 SI 14844 SI SI1 14844 1.100000 28.08600
14845 SI 14845 SI SI1 14845 1.100000 28.08600
14846 SI 14846 SI SI1 14846 1.100000 28.08600
14847 SI 14847 SI SI1 14847 1.100000 28.08600
14848 SI 14848 SI SI1 14848 1.100000 28.08600
14849 SI 14849 SI SI1 14849 1.100000 28.08600
14850 SI 14850 SI SI1 14850 1.100000 28.08600
14851 SI 14851 SI SI1 14851 1.100000 28.08600
14852 SI 14852 SI SI1 14852 1.100000 28.08600
14853 SI 14853 SI SI1 14853 1.100000 28.08600
14854 SI 14854 SI SI1 14854 1.100000 28.08600
14855 SI 14855 SI SI1 14855 1.100000 28.08600
14856 SI 14856 SI SI1 14856 1.100000 28.08600
14857 SI 14857 SI SI1 14857 1.100000 28.08600
14858 SI 14858 SI SI1 14858 1.100000 28.08600
14859 SI 14859 SI SI1 14859 1.100000 28.08600
14860 SI 14860 SI SI1 14860 1.100000 28.08600
14861 SI 14861 SI SI1 14861 1.100000 28.08600
14862 SI 14862 SI SI1 14862 1.100000 28.08600
14863 SI 14863 SI SI1 14863 1.100000 28.08600
14864 SI 14864 SI SI1 14864 1.100000 28.08600
14865 SI 14865 SI SI1 14865 1.100000 28.08600
14866 SI 14866 SI SI1 14866 1.100000 28.08600
14867 SI 14867 SI SI1 14867 1.100000 28.08600
14868 SI 14868 SI SI1 14868 1.100000 28.08600
14869 SI 14869 SI SI1 14869 1.100000 28.08600
14870 SI 14870 SI SI1 14870 1.100000 28.08600
14871 SI 14871 SI SI1 14871 1.100000 28.08600
14872 SI 14872 SI SI1 14872 1.100000 28.08600
14873 SI 14873 SI SI1 14873 1.100000 28.08600
14874 SI 14874 SI SI1 14874 1.100000 28.08600
14875 SI 14875 SI SI1 14875 1.100000 28.08600
14876 SI 14876 SI SI1 14876 1.100000 28.08600
14877 SI 14877 SI SI1 14877 1.100000 28.08600
14878 SI 14878 SI SI1 14878 1.100000 28.08600
14879 SI 14879 SI SI1 14879 1.100000 28.08600
14880 SI 14880 SI SI1 14880 1.100000 28.08600
14881 SI 14881 SI SI1 14881 1.100000 28.08600
14882 SI 14882 SI SI1 14882 1.100000 28.08600
14883 SI 14883 SI SI1 14883 1.100000 28.08600
14884 SI 14884 SI SI1 14884 1.100000 28.08600
14885 SI 14885 SI SI1 14885 1.100000 28.08600
14886 SI 14886 SI SI1 14886 1.100000 28.08600
14887 SI 14887 SI SI1 14887 1.100000 28.08600
14888 SI 14888 SI SI1 14888 1.100000 28.08600
14889 SI 14889 SI SI1 14889 1.100000 28.08600
14890 SI 14890 SI SI1 14890 1.100000 28.08600
14891 SI 14891 SI SI1 14891 1.100000 28.08600
14892 SI 14892 SI SI1 14892 1.100000 28.08600
14893 SI 14893 SI SI1 14893 1.100000 28.08600
14894 SI 14894 SI SI1 14894 1.100000 28.08600
14895 SI 14895 SI SI1 14895 1.100000 28.08600
14896 SI 14896 SI SI1 14896 1.100000 28.08600
14897 SI 14897 SI SI1 14897 1.100000 28.08600
14898 SI 14898 SI SI1 14898 1.100000 28.08600
14899 SI 14899 SI SI1 14899 1.100000 28.08600
14900 SI 14900 SI SI1 14900 1.100000 28.08600
14901 SI 14901 SI SI1 14901 1.100000 28.08600
14902 SI 14902 SI SI1 14902 1.100000 28.08600
14903 SI 14903 SI SI1 14903 1.100000 28.08600
14904 SI 14904 SI SI1 14904 1.100000 28.08600
14905 SI 14905 SI SI1 14905 1.100000 28.08600
14906 SI 14906 SI SI1 14906 1.100000 28.08600
14907 SI 14907 SI SI1 14907 1.100000 28.08600
14908 SI 14908 SI SI1 14908 1.100000 28.08600
14909 SI 14909 SI SI1 14909 1.100000 28.08600
14910 SI 14910 SI SI1 14910 1.100000 28.08600
14911 SI 14911 SI SI1 14911 1.100000 28.08600
14912 SI 14912 SI SI1 14912 1.100000 28.08600
14913 SI 14913 SI SI1 14913 1.100000 28.08600
14914 SI 14914 SI SI1 14914 1.100000 28.08600
14915 SI 14915 SI SI1 14915 1.100000 28.08600
14916 SI 14916 SI SI1 14916 1.100000 28.08600
14917 SI 14917 SI SI1 14917 1.100000 28.08600
14918 SI 14918 SI SI1 14918 1.100000 28.08600
14919 SI 14919 SI SI1 14919 1.100000 28.08600
14920 SI 14920 SI SI1 14920 1.100000 28.08600
14921 SI 14921 SI SI1 14921 1.100000 28.08600
14922 SI 14922 SI SI1 14922 1.100000 28.08600
14923 SI 14923 SI SI1 14923 1.100000 28.08600
14924 SI 14924 SI SI1 14924 1.100000 28.08600
14925 SI 14925 SI SI1 14925 1.100000 28.08600
14926 SI 14926 SI SI1 14926 1.100000 28.08600
14927 SI 14927 SI SI1 14927 1.100000 28.08600
14928 SI 14928 SI SI1 14928 1.100000 28.08600
14929 SI 14929 SI SI1 14929 1.100000 28.08600
14930 SI 14930 SI SI1 14930 1.100000 28.08600
14931 SI 14931 SI SI1 14931 1.100000 28.08600
14932 SI 14932 SI SI1 14932 1.100000 28.08600
14933 SI 14933 SI SI1 14933 1.100000 28.08600
14934 SI 14934 SI SI1 14934 1.100000 28.08600
14935 SI 14935 SI SI1 14935 1.100000 28.08600
14936 SI 14936 SI SI1 14936 1.100000 28.08600
14937 SI 14937 SI SI1 14937 1.100000 28.08600
14938 SI 14938 SI SI1 14938 1.100000 28.08600
14939 SI 14939 SI SI1 14939 1.100000 28.08600
14940 SI 14940 SI SI1 14940 1.100000 28.08600
14941 SI 14941 SI SI1 14941 1.100000 28.08600
14942 SI 14942 SI SI1 14942 1.100000 28.08600
14943 SI 14943 SI SI1 14943 1.100000 28.08600
14944 SI 14944 SI SI1 14944 1.100000 28.08600
14945 SI 14945 SI SI1 14945 1.100000 28.08600
14946 SI 14946 SI SI1 14946 1.100000 28.08600
14947 SI 14947 SI SI1 14947 1.100000 28.08600
14948 SI 14948 SI SI1 14948 1.100000 28.08600
14949 SI 14949 SI SI1 14949 1.100000 28.08600
14950 SI 14950 SI SI1 14950 1.100000 28.08600
14951 SI 14951 SI SI1 14951 1.100000 28.08600
14952 SI 14952 SI SI1 14952 1.100000 28.08600
14953 SI 14953 SI SI1 14953 1.100000 28.08600
14954 SI 14954 SI SI1 14954 1.100000 28.08600
14955 SI 14955 SI SI1 14955 1.100000 28.08600
14956 SI 14956 SI SI1 14956 1.100000 28.08600
14957 SI 14957 SI SI1 14957 1.100000 28.08600
14958 SI 14958 SI SI1 14958 1.100000 28.08600
14959 SI 14959 SI SI1 14959 1.100000 28.08600
14960 SI 14960 SI SI1 14960 1.100000 28.08600
14961 SI 14961 SI SI1 14961 1.100000 28.08600
14962 SI 14962 SI SI1 14962 1.100000 28.08600
14963 SI 14963 SI SI1 14963 1.100000 28.08600
14964 SI 14964 SI SI1 14964 1.100000 28.08600
14965 SI 14965 SI SI1 14965 1.100000 28.08600
14966 SI 14966 SI SI1 14966 1.100000 28.08600
14967 SI 14967 SI SI1 14967 1.100000 28.08600
14968 SI 14968 SI SI1 14968 1.100000 28.08600
14969 SI 14969 SI SI1 14969 1.100000 28.08600
14970 SI 14970 SI SI1 14970 1.100000 28.08600
14971 SI 14971 SI SI1 14971 1.100000 28.08600
14972 SI 14972 SI SI1 14972 1.100000 28.08600
14973 SI 14973 SI SI1 14973 1.100000 28.08600
14974 SI 14974 SI SI1 14974 1.100000 28.08600
14975 SI 14975 SI SI1 14975 1.100000 28.08600
14976 SI 14976 SI SI1 14976 1.100000 28.08600
14977 SI 14977 SI SI1 14977 1.100000 28.08600
14978 SI 14978 SI SI1 14978 1.100000 28.08600
14979 SI 14979 SI SI1 14979 1.100000 28.08600
14980 SI 14980 SI SI1 14980 1.100000 28.08600
14981 SI 14981 SI SI1 14981 1.100000 28.08600
14982 SI 14982 SI SI1 14982 1.100000 28.08600
14983 SI 14983 SI SI1 14983 1.100000 28.08600
14984 SI 14984 SI SI1 14984 1.100000 28.08600
14985 SI 14985 SI SI1 14985 1.100000 28.08600
14986 SI 14986 SI SI1 14986 1.100000 28.08600
14987 SI 14987 SI SI1 14987 1.100000 28.08600
14988 SI 14988 SI SI1 14988 1.100000 28.08600
14989 SI 14989 SI SI1 14989 1.100000 28.08600
14990 SI 14990 SI SI1 14990 1.100000 28.08600
14991 SI 14991 SI SI1 14991 1.100000 28.08600
14992 SI 14992 SI SI1 14992 1.100000 28.08600
14993 SI 14993 SI SI1 14993 1.100000 28.08600
14994 SI 14994 SI SI1 14994 1.100000 28.08600
14995 SI 14995 SI SI1 14995 1.100000 28.08600
14996 SI 14996 SI SI1 14996 1.100000 28.08600
14997 SI 14997 SI SI1 14997 1.100000 28.08600
14998 SI 14998 SI SI1 14998 1.100000 28.08600
14999 SI 14999 SI SI1 14999 1.100000 28.08600
15000 SI 15000 SI SI1 15000 1.100000 28.08600
15001 SI 15001 SI SI1 15001 1.100000 28.08600
15002 SI 15002 SI SI1 15002 1.100000 28.08600
15003 SI 15003 SI SI1 15003 1.100000 28.08600
15004 SI 15004 SI SI1 15004 1.100000 28.08600
15005 SI 15005 SI SI1 15005 1.100000 28.08600
15006 SI 15006 SI SI1 15006 1.100000 28.08600
15007 SI 15007 SI SI1 15007 1.100000 28.08600
15008 SI 15008 SI SI1 15008 1.100000 28.08600
15009 SI 15009 SI SI1 15009 1.100000 28.08600
15010 SI 15010 SI SI1 15010 1.100000 28.08600
15011 SI 15011 SI SI1 15011 1.100000 28.08600
15012 SI 15012 SI SI1 15012 1.100000 28.08600
15013 SI 15013 SI SI1 15013 1.100000 28.08600
15014 SI 15014 SI SI1 15014 1.100000 28.08600
15015 SI 15015 SI SI1 15015 1.100000 28.08600
15016 SI 15016 SI SI1 15016 1.100000 28.08600
15017 SI 15017 SI SI1 15017 1.100000 28.08600
15018 SI 15018 SI SI1 15018 1.100000 28.08600
15019 SI 15019 SI SI1 15019 1.100000 28.08600
15020 SI 15020 SI SI1 15020 1.100000 28.08600
15021 SI 15021 SI SI1 15021 1.100000 28.08600
15022 SI 15022 SI SI1 15022 1.100000 28.08600
15023 SI 15023 SI SI1 15023 1.100000 28.08600
15024 SI 15024 SI SI1 15024 1.100000 28.08600
15025 SI 15025 SI SI1 15025 1.100000 28.08600
15026 SI 15026 SI SI1 15026 1.100000 28.08600
15027 SI 15027 SI SI1 15027 1.100000 28.08600
15028 SI 15028 SI SI1 15028 1.100000 28.08600
15029 SI 15029 SI SI1 15029 1.100000 28.08600
15030 SI 15030 SI SI1 15030 1.100000 28.08600
15031 SI 15031 SI SI1 15031 1.100000 28.08600
15032 SI 15032 SI SI1 15032 1.100000 28.08600
15033 SI 15033 SI SI1 15033 1.100000 28.08600
15034 SI 15034 SI SI1 15034 1.100000 28.08600
15035 SI 15035 SI SI1 15035 1.100000 28.08600
15036 SI 15036 SI SI1 15036 1.100000 28.08600
15037 SI 15037 SI SI1 15037 1.100000 28.08600
15038 SI 15038 SI SI1 15038 1.100000 28.08600
15039 SI 15039 SI SI1 15039 1.100000 28.08600
15040 SI 15040 SI SI1 15040 1.100000 28.08600
15041 SI 15041 SI SI1 15041 1.100000 28.08600
15042 SI 15042 SI SI1 15042 1.100000 28.08600
15043 SI 15043 SI SI1 15043 1.100000 28.08600
15044 SI 15044 SI SI1 15044 1.100000 28.08600
15045 SI 15045 SI SI1 15045 1.100000 28.08600
15046 SI 15046 SI SI1 15046 1.100000 28.08600
15047 SI 15047 SI SI1 15047 1.100000 28.08600
15048 SI 15048 SI SI1 15048 1.100000 28.08600
15049 SI 15049 SI SI1 15049 1.100000 28.08600
15050 SI 15050 SI SI1 15050 1.100000 28.08600
15051 SI 15051 SI SI1 15051 1.100000 28.08600
15052 SI 15052 SI SI1 15052 1.100000 28.08600
15053 SI 15053 SI SI1 15053 1.100000 28.08600
15054 SI 15054 SI SI1 15054 1.100000 28.08600
15055 SI 15055 SI SI1 15055 1.100000 28.08600
15056 SI 15056 SI SI1 15056 1.100000 28.08600
15057 SI 15057 SI SI1 15057 1.100000 28.08600
15058 SI 15058 SI SI1 15058 1.100000 28.08600
15059 SI 15059 SI SI1 15059 1.100000 28.08600
15060 SI 15060 SI SI1 15060 1.100000 28.08600
15061 SI 15061 SI SI1 15061 1.100000 28.08600
15062 SI 15062 SI SI1 15062 1.100000 28.08600
15063 SI 15063 SI SI1 15063 1.100000 28.08600
15064 SI 15064 SI SI1 15064 1.100000 28.08600
15065 SI 15065 SI SI1 15065 1.100000 28.08600
15066 SI 15066 SI SI1 15066 1.100000 28.08600
15067 SI 15067 SI SI1 15067 1.100000 28.08600
15068 SI 15068 SI SI1 15068 1.100000 28.08600
15069 SI 15069 SI SI1 15069 1.100000 28.08600
15070 SI 15070 SI SI1 15070 1.100000 28.08600
15071 SI 15071 SI SI1 15071 1.100000 28.08600
15072 SI 15072 SI SI1 15072 1.100000 28.08600
15073 SI 15073 SI SI1 15073 1.100000 28.08600
15074 SI 15074 SI SI1 15074 1.100000 28.08600
15075 SI 15075 SI SI1 15075 1.100000 28.08600
15076 SI 15076 SI SI1 15076 1.100000 28.08600
15077 SI 15077 SI SI1 15077 1.100000 28.08600
15078 SI 15078 SI SI1 15078 1.100000 28.08600
15079 SI 15079 SI SI1 15079 1.100000 28.08600
15080 SI 15080 SI SI1 15080 1.100000 28.08600
15081 SI 15081 SI SI1 15081 1.100000 28.08600
15082 SI 15082 SI SI1 15082 1.100000 28.08600
15083 SI 15083 SI SI1 15083 1.100000 28.08600
15084 SI 15084 SI SI1 15084 1.100000 28.08600
15085 SI 15085 SI SI1 15085 1.100000 28.08600
15086 SI 15086 SI SI1 15086 1.100000 28.08600
15087 SI 15087 SI SI1 15087 1.100000 28.08600
15088 SI 15088 SI SI1 15088 1.100000 28.08600
15089 SI 15089 SI SI1 15089 1.100000 28.08600
15090 SI 15090 SI SI1 15090 1.100000 28.08600
15091 SI 15091 SI SI1 15091 1.100000 28.08600
15092 SI 15092 SI SI1 15092 1.100000 28.08600
15093 SI 15093 SI SI1 15093 1.100000 28.08600
15094 SI 15094 SI SI1 15094 1.100000 28.08600
15095 SI 15095 SI SI1 15095 1.100000 28.08600
15096 SI 15096 SI SI1 15096 1.100000 28.08600
15097 SI 15097 SI SI1 15097 1.100000 28.08600
15098 SI 15098 SI SI1 15098 1.100000 28.08600
15099 SI 15099 SI SI1 15099 1.100000 28.08600
15100 SI 15100 SI SI1 15100 1.100000 28.08600
15101 SI 15101 SI SI1 15101 1.100000 28.08600
15102 SI 15102 SI SI1 15102 1.100000 28.08600
15103 SI 15103 SI SI1 15103 1.100000 28.08600
15104 SI 15104 SI SI1 15104 1.100000 28.08600
15105 SI 15105 SI SI1 15105 1.100000 28.08600
15106 SI 15106 SI SI1 15106 1.100000 28.08600
15107 SI 15107 SI SI1 15107 1.100000 28.08600
15108 SI 15108 SI SI1 15108 1.100000 28.08600
15109 SI 15109 SI SI1 15109 1.100000 28.08600
15110 SI 15110 SI SI1 15110 1.100000 28.08600
15111 SI 15111 SI SI1 15111 1.100000 28.08600
15112 SI 15112 SI SI1 15112 1.100000 28.08600
15113 SI 15113 SI SI1 15113 1.100000 28.08600
15114 SI 15114 SI SI1 15114 1.100000 28.08600
15115 SI 15115 SI SI1 15115 1.100000 28.08600
15116 SI 15116 SI SI1 15116 1.100000 28.08600
15117 SI 15117 SI SI1 15117 1.100000 28.08600
15118 SI 15118 SI SI1 15118 1.100000 28.08600
15119 SI 15119 SI SI1 15119 1.100000 28.08600
15120 SI 15120 SI SI1 15120 1.100000 28.08600
15121 SI 15121 SI SI1 15121 1.100000 28.08600
15122 SI 15122 SI SI1 15122 1.100000 28.08600
15123 SI 15123 SI SI1 15123 1.100000 28.08600
15124 SI 15124 SI SI1 15124 1.100000 28.08600
15125 SI 15125 SI SI1 15125 1.100000 28.08600
15126 SI 15126 SI SI1 15126 1.100000 28.08600
15127 SI 15127 SI SI1 15127 1.100000 28.08600
15128 SI 15128 SI SI1 15128 1.100000 28.08600
15129 SI 15129 SI SI1 15129 1.100000 28.08600
15130 SI 15130 SI SI1 15130 1.100000 28.08600
15131 SI 15131 SI SI1 15131 1.100000 28.08600
15132 SI 15132 SI SI1 15132 1.100000 28.08600
15133 SI 15133 SI SI1 15133 1.100000 28.08600
15134 SI 15134 SI SI1 15134 1.100000 28.08600
15135 SI 15135 SI SI1 15135 1.100000 28.08600
15136 SI 15136 SI SI1 15136 1.100000 28.08600
15137 SI 15137 SI SI1 15137 1.100000 28.08600
15138 SI 15138 SI SI1 15138 1.100000 28.08600
15139 SI 15139 SI SI1 15139 1.100000 28.08600
15140 SI 15140 SI SI1 15140 1.100000 28.08600
15141 SI 15141 SI SI1 15141 1.100000 28.08600
15142 SI 15142 SI SI1 15142 1.100000 28.08600
15143 SI 15143 SI SI1 15143 1.100000 28.08600
15144 SI 15144 SI SI1 15144 1.100000 28.08600
15145 SI 15145 SI SI1 15145 1.100000 28.08600
15146 SI 15146 SI SI1 15146 1.100000 28.08600
15147 SI 15147 SI SI1 15147 1.100000 28.08600
15148 SI 15148 SI SI1 15148 1.100000 28.08600
15149 SI 15149 SI SI1 15149 1.100000 28.08600
15150 SI 15150 SI SI1 15150 1.100000 28.08600
15151 SI 15151 SI SI1 15151 1.100000 28.08600
15152 SI 15152 SI SI1 15152 1.100000 28.08600
15153 SI 15153 SI SI1 15153 1.100000 28.08600
15154 SI 15154 SI SI1 15154 1.100000 28.08600
15155 SI 15155 SI SI1 15155 1.100000 28.08600
15156 SI 15156 SI SI1 15156 1.100000 28.08600
15157 SI 15157 SI SI1 15157 1.100000 28.08600
15158 SI 15158 SI SI1 15158 1.100000 28.08600
15159 SI 15159 SI SI1 15159 1.100000 28.08600
15160 SI 15160 SI SI1 15160 1.100000 28.08600
15161 SI 15161 SI SI1 15161 1.100000 28.08600
15162 SI 15162 SI SI1 15162 1.100000 28.08600
15163 SI 15163 SI SI1 15163 1.100000 28.08600
15164 SI 15164 SI SI1 15164 1.100000 28.08600
15165 SI 15165 SI SI1 15165 1.100000 28.08600
15166 SI 15166 SI SI1 15166 1.100000 28.08600
15167 SI 15167 SI SI1 15167 1.100000 28.08600
15168 SI 15168 SI SI1 15168 1.100000 28.08600
15169 SI 15169 SI SI1 15169 1.100000 28.08600
15170 SI 15170 SI SI1 15170 1.100000 28.08600
15171 SI 15171 SI SI1 15171 1.100000 28.08600
15172 SI 15172 SI SI1 15172 1.100000 28.08600
15173 SI 15173 SI SI1 15173 1.100000 28.08600
15174 SI 15174 SI SI1 15174 1.100000 28.08600
15175 SI 15175 SI SI1 15175 1.100000 28.08600
15176 SI 15176 SI SI1 15176 1.100000 28.08600
15177 SI 15177 SI SI1 15177 1.100000 28.08600
15178 SI 15178 SI SI1 15178 1.100000 28.08600
15179 SI 15179 SI SI1 15179 1.100000 28.08600
15180 SI 15180 SI SI1 15180 1.100000 28.08600
15181 SI 15181 SI SI1 15181 1.100000 28.08600
15182 SI 15182 SI SI1 15182 1.100000 28.08600
15183 SI 15183 SI SI1 15183 1.100000 28.08600
15184 SI 15184 SI SI1 15184 1.100000 28.08600
15185 SI 15185 SI SI1 15185 1.100000 28.08600
15186 SI 15186 SI SI1 15186 1.100000 28.08600
15187 SI 15187 SI SI1 15187 1.100000 28.08600
15188 SI 15188 SI SI1 15188 1.100000 28.08600
15189 SI 15189 SI SI1 15189 1.100000 28.08600
15190 SI 15190 SI SI1 15190 1.100000 28.08600
15191 SI 15191 SI SI1 15191 1.100000 28.08600
15192 SI 15192 SI SI1 15192 1.100000 28.08600
15193 SI 15193 SI SI1 15193 1.100000 28.08600
15194 SI 15194 SI SI1 15194 1.100000 28.08600
15195 SI 15195 SI SI1 15195 1.100000 28.08600
15196 SI 15196 SI SI1 15196 1.100000 28.08600
15197 SI 15197 SI SI1 15197 1.100000 28.08600
15198 SI 15198 SI SI1 15198 1.100000 28.08600
15199 SI 15199 SI SI1 15199 1.100000 28.08600
15200 SI 15200 SI SI1 15200 1.100000 28.08600
15201 SI 15201 SI SI1 15201 1.100000 28.08600
15202 SI 15202 SI SI1 15202 1.100000 28.08600
15203 SI 15203 SI SI1 15203 1.100000 28.08600
15204 SI 15204 SI SI1 15204 1.100000 28.08600
15205 SI 15205 SI SI1 15205 1.100000 28.08600
15206 SI 15206 SI SI1 15206 1.100000 28.08600
15207 SI 15207 SI SI1 15207 1.100000 28.08600
15208 SI 15208 SI SI1 15208 1.100000 28.08600
15209 SI 15209 SI SI1 15209 1.100000 28.08600
15210 SI 15210 SI SI1 15210 1.100000 28.08600
15211 SI 15211 SI SI1 15211 1.100000 28.08600
15212 SI 15212 SI SI1 15212 1.100000 28.08600
15213 SI 15213 SI SI1 15213 1.100000 28.08600
15214 SI 15214 SI SI1 15214 1.100000 28.08600
15215 SI 15215 SI SI1 15215 1.100000 28.08600
15216 SI 15216 SI SI1 15216 1.100000 28.08600
15217 SI 15217 SI SI1 15217 1.100000 28.08600
15218 SI 15218 SI SI1 15218 1.100000 28.08600
15219 SI 15219 SI SI1 15219 1.100000 28.08600
15220 SI 15220 SI SI1 15220 1.100000 28.08600
15221 SI 15221 SI SI1 15221 1.100000 28.08600
15222 SI 15222 SI SI1 15222 1.100000 28.08600
15223 SI 15223 SI SI1 15223 1.100000 28.08600
15224 SI 15224 SI SI1 15224 1.100000 28.08600
15225 SI 15225 SI SI1 15225 1.100000 28.08600
15226 SI 15226 SI SI1 15226 1.100000 28.08600
15227 SI 15227 SI SI1 15227 1.100000 28.08600
15228 SI 15228 SI SI1 15228 1.100000 28.08600
15229 SI 15229 SI SI1 15229 1.100000 28.08600
15230 SI 15230 SI SI1 15230 1.100000 28.08600
15231 SI 15231 SI SI1 15231 1.100000 28.08600
15232 SI 15232 SI SI1 15232 1.100000 28.08600
15233 SI 15233 SI SI1 15233 1.100000 28.08600
15234 SI 15234 SI SI1 15234 1.100000 28.08600
15235 SI 15235 SI SI1 15235 1.100000 28.08600
15236 SI 15236 SI SI1 15236 1.100000 28.08600
15237 SI 15237 SI SI1 15237 1.100000 28.08600
15238 SI 15238 SI SI1 15238 1.100000 28.08600
15239 SI 15239 SI SI1 15239 1.100000 28.08600
15240 SI 15240 SI SI1 15240 1.100000 28.08600
15241 SI 15241 SI SI1 15241 1.100000 28.08600
15242 SI 15242 SI SI1 15242 1.100000 28.08600
15243 SI 15243 SI SI1 15243 1.100000 28.08600
15244 SI 15244 SI SI1 15244 1.100000 28.08600
15245 SI 15245 SI SI1 15245 1.100000 28.08600
15246 SI 15246 SI SI1 15246 1.100000 28.08600
15247 SI 15247 SI SI1 15247 1.100000 28.08600
15248 SI 15248 SI SI1 15248 1.100000 28.08600
15249 SI 15249 SI SI1 15249 1.100000 28.08600
15250 SI 15250 SI SI1 15250 1.100000 28.08600
15251 SI 15251 SI SI1 15251 1.100000 28.08600
15252 SI 15252 SI SI1 15252 1.100000 28.08600
15253 SI 15253 SI SI1 15253 1.100000 28.08600
15254 SI 15254 SI SI1 15254 1.100000 28.08600
15255 SI 15255 SI SI1 15255 1.100000 28.08600
15256 SI 15256 SI SI1 15256 1.100000 28.08600
15257 SI 15257 SI SI1 15257 1.100000 28.08600
15258 SI 15258 SI SI1 15258 1.100000 28.08600
15259 SI 15259 SI SI1 15259 1.100000 28.08600
15260 SI 15260 SI SI1 15260 1.100000 28.08600
15261 SI 15261 SI SI1 15261 1.100000 28.08600
15262 SI 15262 SI SI1 15262 1.100000 28.08600
15263 SI 15263 SI SI1 15263 1.100000 28.08600
15264 SI 15264 SI SI1 15264 1.100000 28.08600
15265 SI 15265 SI SI1 15265 1.100000 28.08600
15266 SI 15266 SI SI1 15266 1.100000 28.08600
15267 SI 15267 SI SI1 15267 1.100000 28.08600
15268 SI 15268 SI SI1 15268 1.100000 28.08600
15269 SI 15269 SI SI1 15269 1.100000 28.08600
15270 SI 15270 SI SI1 15270 1.100000 28.08600
15271 SI 15271 SI SI1 15271 1.100000 28.08600
15272 SI 15272 SI SI1 15272 1.100000 28.08600
15273 SI 15273 SI SI1 15273 1.100000 28.08600
15274 SI 15274 SI SI1 15274 1.100000 28.08600
15275 SI 15275 SI SI1 15275 1.100000 28.08600
15276 SI 15276 SI SI1 15276 1.100000 28.08600
15277 SI 15277 SI SI1 15277 1.100000 28.08600
15278 SI 15278 SI SI1 15278 1.100000 28.08600
15279 SI 15279 SI SI1 15279 1.100000 28.08600
15280 SI 15280 SI SI1 15280 1.100000 28.08600
15281 SI 15281 SI SI1 15281 1.100000 28.08600
15282 SI 15282 SI SI1 15282 1.100000 28.08600
15283 SI 15283 SI SI1 15283 1.100000 28.08600
15284 SI 15284 SI SI1 15284 1.100000 28.08600
15285 SI 15285 SI SI1 15285 1.100000 28.08600
15286 SI 15286 SI SI1 15286 1.100000 28.08600
15287 SI 15287 SI SI1 15287 1.100000 28.08600
15288 SI 15288 SI SI1 15288 1.100000 28.08600
15289 SI 15289 SI SI1 15289 1.100000 28.08600
15290 SI 15290 SI SI1 15290 1.100000 28.08600
15291 SI 15291 SI SI1 15291 1.100000 28.08600
15292 SI 15292 SI SI1 15292 1.100000 28.08600
15293 SI 15293 SI SI1 15293 1.100000 28.08600
15294 SI 15294 SI SI1 15294 1.100000 28.08600
15295 SI 15295 SI SI1 15295 1.100000 28.08600
15296 SI 15296 SI SI1 15296 1.100000 28.08600
15297 SI 15297 SI SI1 15297 1.100000 28.08600
15298 SI 15298 SI SI1 15298 1.100000 28.08600
15299 SI 15299 SI SI1 15299 1.100000 28.08600
15300 SI 15300 SI SI1 15300 1.100000 28.08600
15301 SI 15301 SI SI1 15301 1.100000 28.08600
15302 SI 15302 SI SI1 15302 1.100000 28.08600
15303 SI 15303 SI SI1 15303 1.100000 28.08600
15304 SI 15304 SI SI1 15304 1.100000 28.08600
15305 SI 15305 SI SI1 15305 1.100000 28.08600
15306 SI 15306 SI SI1 15306 1.100000 28.08600
15307 SI 15307 SI SI1 15307 1.100000 28.08600
15308 SI 15308 SI SI1 15308 1.100000 28.08600
15309 SI 15309 SI SI1 15309 1.100000 28.08600
15310 SI 15310 SI SI1 15310 1.100000 28.08600
15311 SI 15311 SI SI1 15311 1.100000 28.08600
15312 SI 15312 SI SI1 15312 1.100000 28.08600
15313 SI 15313 SI SI1 15313 1.100000 28.08600
15314 SI 15314 SI SI1 15314 1.100000 28.08600
15315 SI 15315 SI SI1 15315 1.100000 28.08600
15316 SI 15316 SI SI1 15316 1.100000 28.08600
15317 SI 15317 SI SI1 15317 1.100000 28.08600
15318 SI 15318 SI SI1 15318 1.100000 28.08600
15319 SI 15319 SI SI1 15319 1.100000 28.08600
15320 SI 15320 SI SI1 15320 1.100000 28.08600
15321 SI 15321 SI SI1 15321 1.100000 28.08600
15322 SI 15322 SI SI1 15322 1.100000 28.08600
15323 SI 15323 SI SI1 15323 1.100000 28.08600
15324 SI 15324 SI SI1 15324 1.100000 28.08600
15325 SI 15325 SI SI1 15325 1.100000 28.08600
15326 SI 15326 SI SI1 15326 1.100000 28.08600
15327 SI 15327 SI SI1 15327 1.100000 28.08600
15328 SI 15328 SI SI1 15328 1.100000 28.08600
15329 SI 15329 SI SI1 15329 1.100000 28.08600
15330 SI 15330 SI SI1 15330 1.100000 28.08600
15331 SI 15331 SI SI1 15331 1.100000 28.08600
15332 SI 15332 SI SI1 15332 1.100000 28.08600
15333 SI 15333 SI SI1 15333 1.100000 28.08600
15334 SI 15334 SI SI1 15334 1.100000 28.08600
15335 SI 15335 SI SI1 15335 1.100000 28.08600
15336 SI 15336 SI SI1 15336 1.100000 28.08600
15337 SI 15337 SI SI1 15337 1.100000 28.08600
15338 SI 15338 SI SI1 15338 1.100000 28.08600
15339 SI 15339 SI SI1 15339 1.100000 28.08600
15340 SI 15340 SI SI1 15340 1.100000 28.08600
15341 SI 15341 SI SI1 15341 1.100000 28.08600
15342 SI 15342 SI SI1 15342 1.100000 28.08600
15343 SI 15343 SI SI1 15343 1.100000 28.08600
15344 SI 15344 SI SI1 15344 1.100000 28.08600
15345 SI 15345 SI SI1 15345 1.100000 28.08600
15346 SI 15346 SI SI1 15346 1.100000 28.08600
15347 SI 15347 SI SI1 15347 1.100000 28.08600
15348 SI 15348 SI SI1 15348 1.100000 28.08600
15349 SI 15349 SI SI1 15349 1.100000 28.08600
15350 SI 15350 SI SI1 15350 1.100000 28.08600
15351 SI 15351 SI SI1 15351 1.100000 28.08600
15352 SI 15352 SI SI1 15352 1.100000 28.08600
15353 SI 15353 SI SI1 15353 1.100000 28.08600
15354 SI 15354 SI SI1 15354 1.100000 28.08600
15355 SI 15355 SI SI1 15355 1.100000 28.08600
15356 SI 15356 SI SI1 15356 1.100000 28.08600
15357 SI 15357 SI SI1 15357 1.100000 28.08600
15358 SI 15358 SI SI1 15358 1.100000 28.08600
15359 SI 15359 SI SI1 15359 1.100000 28.08600
15360 SI 15360 SI SI1 15360 1.100000 28.08600
15361 SI 15361 SI SI1 15361 1.100000 28.08600
15362 SI 15362 SI SI1 15362 1.100000 28.08600
15363 SI 15363 SI SI1 15363 1.100000 28.08600
15364 SI 15364 SI SI1 15364 1.100000 28.08600
15365 SI 15365 SI SI1 15365 1.100000 28.08600
15366 SI 15366 SI SI1 15366 1.100000 28.08600
15367 SI 15367 SI SI1 15367 1.100000 28.08600
15368 SI 15368 SI SI1 15368 1.100000 28.08600
15369 SI 15369 SI SI1 15369 1.100000 28.08600
15370 SI 15370 SI SI1 15370 1.100000 28.08600
15371 SI 15371 SI SI1 15371 1.100000 28.08600
15372 SI 15372 SI SI1 15372 1.100000 28.08600
15373 SI 15373 SI SI1 15373 1.100000 28.08600
15374 SI 15374 SI SI1 15374 1.100000 28.08600
15375 SI 15375 SI SI1 15375 1.100000 28.08600
15376 SI 15376 SI SI1 15376 1.100000 28.08600
15377 SI 15377 SI SI1 15377 1.100000 28.08600
15378 SI 15378 SI SI1 15378 1.100000 28.08600
15379 SI 15379 SI SI1 15379 1.100000 28.08600
15380 SI 15380 SI SI1 15380 1.100000 28.08600
15381 SI 15381 SI SI1 15381 1.100000 28.08600
15382 SI 15382 SI SI1 15382 1.100000 28.08600
15383 SI 15383 SI SI1 15383 1.100000 28.08600
15384 SI 15384 SI SI1 15384 1.100000 28.08600
15385 SI 15385 SI SI1 15385 1.100000 28.08600
15386 SI 15386 SI SI1 15386 1.100000 28.08600
15387 SI 15387 SI SI1 15387 1.100000 28.08600
15388 SI 15388 SI SI1 15388 1.100000 28.08600
15389 SI 15389 SI SI1 15389 1.100000 28.08600
15390 SI 15390 SI SI1 15390 1.100000 28.08600
15391 SI 15391 SI SI1 15391 1.100000 28.08600
15392 SI 15392 SI SI1 15392 1.100000 28.08600
15393 SI 15393 SI SI1 15393 1.100000 28.08600
15394 SI 15394 SI SI1 15394 1.100000 28.08600
15395 SI 15395 SI SI1 15395 1.100000 28.08600
15396 SI 15396 SI SI1 15396 1.100000 28.08600
15397 SI 15397 SI SI1 15397 1.100000 28.08600
15398 SI 15398 SI SI1 15398 1.100000 28.08600
15399 SI 15399 SI SI1 15399 1.100000 28.08600
15400 SI 15400 SI SI1 15400 1.100000 28.08600
15401 SI 15401 SI SI1 15401 1.100000 28.08600
15402 SI 15402 SI SI1 15402 1.100000 28.08600
15403 SI 15403 SI SI1 15403 1.100000 28.08600
15404 SI 15404 SI SI1 15404 1.100000 28.08600
15405 SI 15405 SI SI1 15405 1.100000 28.08600
15406 SI 15406 SI SI1 15406 1.100000 28.08600
15407 SI 15407 SI SI1 15407 1.100000 28.08600
15408 SI 15408 SI SI1 15408 1.100000 28.08600
15409 SI 15409 SI SI1 15409 1.100000 28.08600
15410 SI 15410 SI SI1 15410 1.100000 28.08600
15411 SI 15411 SI SI1 15411 1.100000 28.08600
15412 SI 15412 SI SI1 15412 1.100000 28.08600
15413 SI 15413 SI SI1 15413 1.100000 28.08600
15414 SI 15414 SI SI1 15414 1.100000 28.08600
15415 SI 15415 SI SI1 15415 1.100000 28.08600
15416 SI 15416 SI SI1 15416 1.100000 28.08600
15417 SI 15417 SI SI1 15417 1.100000 28.08600
15418 SI 15418 SI SI1 15418 1.100000 28.08600
15419 SI 15419 SI SI1 15419 1.100000 28.08600
15420 SI 15420 SI SI1 15420 1.100000 28.08600
15421 SI 15421 SI SI1 15421 1.100000 28.08600
15422 SI 15422 SI SI1 15422 1.100000 28.08600
15423 SI 15423 SI SI1 15423 1.100000 28.08600
15424 SI 15424 SI SI1 15424 1.100000 28.08600
15425 SI 15425 SI SI1 15425 1.100000 28.08600
15426 SI 15426 SI SI1 15426 1.100000 28.08600
15427 SI 15427 SI SI1 15427 1.100000 28.08600
15428 SI 15428 SI SI1 15428 1.100000 28.08600
15429 SI 15429 SI SI1 15429 1.100000 28.08600
15430 SI 15430 SI SI1 15430 1.100000 28.08600
15431 SI 15431 SI SI1 15431 1.100000 28.08600
15432 SI 15432 SI SI1 15432 1.100000 28.08600
15433 SI 15433 SI SI1 15433 1.100000 28.08600
15434 SI 15434 SI SI1 15434 1.100000 28.08600
15435 SI 15435 SI SI1 15435 1.100000 28.08600
15436 SI 15436 SI SI1 15436 1.100000 28.08600
15437 SI 15437 SI SI1 15437 1.100000 28.08600
15438 SI 15438 SI SI1 15438 1.100000 28.08600
15439 SI 15439 SI SI1 15439 1.100000 28.08600
15440 SI 15440 SI SI1 15440 1.100000 28.08600
15441 SI 15441 SI SI1 15441 1.100000 28.08600
15442 SI 15442 SI SI1 15442 1.100000 28.08600
15443 SI 15443 SI SI1 15443 1.100000 28.08600
15444 SI 15444 SI SI1 15444 1.100000 28.08600
15445 SI 15445 SI SI1 15445 1.100000 28.08600
15446 SI 15446 SI SI1 15446 1.100000 28.08600
15447 SI 15447 SI SI1 15447 1.100000 28.08600
15448 SI 15448 SI SI1 15448 1.100000 28.08600
15449 SI 15449 SI SI1 15449 1.100000 28.08600
15450 SI 15450 SI SI1 15450 1.100000 28.08600
15451 SI 15451 SI SI1 15451 1.100000 28.08600
15452 SI 15452 SI SI1 15452 1.100000 28.08600
15453 SI 15453 SI SI1 15453 1.100000 28.08600
15454 SI 15454 SI SI1 15454 1.100000 28.08600
15455 SI 15455 SI SI1 15455 1.100000 28.08600
15456 SI 15456 SI SI1 15456 1.100000 28.08600
15457 SI 15457 SI SI1 15457 1.100000 28.08600
15458 SI 15458 SI SI1 15458 1.100000 28.08600
15459 SI 15459 SI SI1 15459 1.100000 28.08600
15460 SI 15460 SI SI1 15460 1.100000 28.08600
15461 SI 15461 SI SI1 15461 1.100000 28.08600
15462 SI 15462 SI SI1 15462 1.100000 28.08600
15463 SI 15463 SI SI1 15463 1.100000 28.08600
15464 SI 15464 SI SI1 15464 1.100000 28.08600
15465 SI 15465 SI SI1 15465 1.100000 28.08600
15466 SI 15466 SI SI1 15466 1.100000 28.08600
15467 SI 15467 SI SI1 15467 1.100000 28.08600
15468 SI 15468 SI SI1 15468 1.100000 28.08600
15469 SI 15469 SI SI1 15469 1.100000 28.08600
15470 SI 15470 SI SI1 15470 1.100000 28.08600
15471 SI 15471 SI SI1 15471 1.100000 28.08600
15472 SI 15472 SI SI1 15472 1.100000 28.08600
15473 SI 15473 SI SI1 15473 1.100000 28.08600
15474 SI 15474 SI SI1 15474 1.100000 28.08600
15475 SI 15475 SI SI1 15475 1.100000 28.08600
15476 SI 15476 SI SI1 15476 1.100000 28.08600
15477 SI 15477 SI SI1 15477 1.100000 28.08600
15478 SI 15478 SI SI1 15478 1.100000 28.08600
15479 SI 15479 SI SI1 15479 1.100000 28.08600
15480 SI 15480 SI SI1 15480 1.100000 28.08600
15481 SI 15481 SI SI1 15481 1.100000 28.08600
15482 SI 15482 SI SI1 15482 1.100000 28.08600
15483 SI 15483 SI SI1 15483 1.100000 28.08600
15484 SI 15484 SI SI1 15484 1.100000 28.08600
15485 SI 15485 SI SI1 15485 1.100000 28.08600
15486 SI 15486 SI SI1 15486 1.100000 28.08600
15487 SI 15487 SI SI1 15487 1.100000 28.08600
15488 SI 15488 SI SI1 15488 1.100000 28.08600
15489 SI 15489 SI SI1 15489 1.100000 28.08600
15490 SI 15490 SI SI1 15490 1.100000 28.08600
15491 SI 15491 SI SI1 15491 1.100000 28.08600
15492 SI 15492 SI SI1 15492 1.100000 28.08600
15493 SI 15493 SI SI1 15493 1.100000 28.08600
15494 SI 15494 SI SI1 15494 1.100000 28.08600
15495 SI 15495 SI SI1 15495 1.100000 28.08600
15496 SI 15496 SI SI1 15496 1.100000 28.08600
15497 SI 15497 SI SI1 15497 1.100000 28.08600
15498 SI 15498 SI SI1 15498 1.100000 28.08600
15499 SI 15499 SI SI1 15499 1.100000 28.08600
15500 SI 15500 SI SI1 15500 1.100000 28.08600
15501 SI 15501 SI SI1 15501 1.100000 28.08600
15502 SI 15502 SI SI1 15502 1.100000 28.08600
15503 SI 15503 SI SI1 15503 1.100000 28.08600
15504 SI 15504 SI SI1 15504 1.100000 28.08600
15505 SI 15505 SI SI1 15505 1.100000 28.08600
15506 SI 15506 SI SI1 15506 1.100000 28.08600
15507 SI 15507 SI SI1 15507 1.100000 28.08600
15508 SI 15508 SI SI1 15508 1.100000 28.08600
15509 SI 15509 SI SI1 15509 1.100000 28.08600
15510 SI 15510 SI SI1 15510 1.100000 28.08600
15511 SI 15511 SI SI1 15511 1.100000 28.08600
15512 SI 15512 SI SI1 15512 1.100000 28.08600
15513 SI 15513 SI SI1 15513 1.100000 28.08600
15514 SI 15514 SI SI1 15514 1.100000 28.08600
15515 SI 15515 SI SI1 15515 1.100000 28.08600
15516 SI 15516 SI SI1 15516 1.100000 28.08600
15517 SI 15517 SI SI1 15517 1.100000 28.08600
15518 SI 15518 SI SI1 15518 1.100000 28.08600
15519 SI 15519 SI SI1 15519 1.100000 28.08600
15520 SI 15520 SI SI1 15520 1.100000 28.08600
15521 SI 15521 SI SI1 15521 1.100000 28.08600
15522 SI 15522 SI SI1 15522 1.100000 28.08600
15523 SI 15523 SI SI1 15523 1.100000 28.08600
15524 SI 15524 SI SI1 15524 1.100000 28.08600
15525 SI 15525 SI SI1 15525 1.100000 28.08600
15526 SI 15526 SI SI1 15526 1.100000 28.08600
15527 SI 15527 SI SI1 15527 1.100000 28.08600
15528 SI 15528 SI SI1 15528 1.100000 28.08600
15529 SI 15529 SI SI1 15529 1.100000 28.08600
15530 SI 15530 SI SI1 15530 1.100000 28.08600
15531 SI 15531 SI SI1 15531 1.100000 28.08600
15532 SI 15532 SI SI1 15532 1.100000 28.08600
15533 SI 15533 SI SI1 15533 1.100000 28.08600
15534 SI 15534 SI SI1 15534 1.100000 28.08600
15535 SI 15535 SI SI1 15535 1.100000 28.08600
15536 SI 15536 SI SI1 15536 1.100000 28.08600
15537 SI 15537 SI SI1 15537 1.100000 28.08600
15538 SI 15538 SI SI1 15538 1.100000 28.08600
15539 SI 15539 SI SI1 15539 1.100000 28.08600
15540 SI 15540 SI SI1 15540 1.100000 28.08600
15541 SI 15541 SI SI1 15541 1.100000 28.08600
15542 SI 15542 SI SI1 15542 1.100000 28.08600
15543 SI 15543 SI SI1 15543 1.100000 28.08600
15544 SI 15544 SI SI1 15544 1.100000 28.08600
15545 SI 15545 SI SI1 15545 1.100000 28.08600
15546 SI 15546 SI SI1 15546 1.100000 28.08600
15547 SI 15547 SI SI1 15547 1.100000 28.08600
15548 SI 15548 SI SI1 15548 1.100000 28.08600
15549 SI 15549 SI SI1 15549 1.100000 28.08600
15550 SI 15550 SI SI1 15550 1.100000 28.08600
15551 SI 15551 SI SI1 15551 1.100000 28.08600
15552 SI 15552 SI SI1 15552 1.100000 28.08600
15553 SI 15553 SI SI1 15553 1.100000 28.08600
15554 SI 15554 SI SI1 15554 1.100000 28.08600
15555 SI 15555 SI SI1 15555 1.100000 28.08600
15556 SI 15556 SI SI1 15556 1.100000 28.08600
15557 SI 15557 SI SI1 15557 1.100000 28.08600
15558 SI 15558 SI SI1 15558 1.100000 28.08600
15559 SI 15559 SI SI1 15559 1.100000 28.08600
15560 SI 15560 SI SI1 15560 1.100000 28.08600
15561 SI 15561 SI SI1 15561 1.100000 28.08600
15562 SI 15562 SI SI1 15562 1.100000 28.08600
15563 SI 15563 SI SI1 15563 1.100000 28.08600
15564 SI 15564 SI SI1 15564 1.100000 28.08600
15565 SI 15565 SI SI1 15565 1.100000 28.08600
15566 SI 15566 SI SI1 15566 1.100000 28.08600
15567 SI 15567 SI SI1 15567 1.100000 28.08600
15568 SI 15568 SI SI1 15568 1.100000 28.08600
15569 SI 15569 SI SI1 15569 1.100000 28.08600
15570 SI 15570 SI SI1 15570 1.100000 28.08600
15571 SI 15571 SI SI1 15571 1.100000 28.08600
15572 SI 15572 SI SI1 15572 1.100000 28.08600
15573 SI 15573 SI SI1 15573 1.100000 28.08600
15574 SI 15574 SI SI1 15574 1.100000 28.08600
15575 SI 15575 SI SI1 15575 1.100000 28.08600
15576 SI 15576 SI SI1 15576 1.100000 28.08600
15577 SI 15577 SI SI1 15577 1.100000 28.08600
15578 SI 15578 SI SI1 15578 1.100000 28.08600
15579 SI 15579 SI SI1 15579 1.100000 28.08600
15580 SI 15580 SI SI1 15580 1.100000 28.08600
15581 SI 15581 SI SI1 15581 1.100000 28.08600
15582 SI 15582 SI SI1 15582 1.100000 28.08600
15583 SI 15583 SI SI1 15583 1.100000 28.08600
15584 SI 15584 SI SI1 15584 1.100000 28.08600
15585 SI 15585 SI SI1 15585 1.100000 28.08600
15586 SI 15586 SI SI1 15586 1.100000 28.08600
15587 SI 15587 SI SI1 15587 1.100000 28.08600
15588 SI 15588 SI SI1 15588 1.100000 28.08600
15589 SI 15589 SI SI1 15589 1.100000 28.08600
15590 SI 15590 SI SI1 15590 1.100000 28.08600
15591 SI 15591 SI SI1 15591 1.100000 28.08600
15592 SI 15592 SI SI1 15592 1.100000 28.08600
15593 SI 15593 SI SI1 15593 1.100000 28.08600
15594 SI 15594 SI SI1 15594 1.100000 28.08600
15595 SI 15595 SI SI1 15595 1.100000 28.08600
15596 SI 15596 SI SI1 15596 1.100000 28.08600
15597 SI 15597 SI SI1 15597 1.100000 28.08600
15598 SI 15598 SI SI1 15598 1.100000 28.08600
15599 SI 15599 SI SI1 15599 1.100000 28.08600
15600 SI 15600 SI SI1 15600 1.100000 28.08600
15601 SI 15601 SI SI1 15601 1.100000 28.08600
15602 SI 15602 SI SI1 15602 1.100000 28.08600
15603 SI 15603 SI SI1 15603 1.100000 28.08600
15604 SI 15604 SI SI1 15604 1.100000 28.08600
15605 SI 15605 SI SI1 15605 1.100000 28.08600
15606 SI 15606 SI SI1 15606 1.100000 28.08600
15607 SI 15607 SI SI1 15607 1.100000 28.08600
15608 SI 15608 SI SI1 15608 1.100000 28.08600
15609 SI 15609 SI SI1 15609 1.100000 28.08600
15610 SI 15610 SI SI1 15610 1.100000 28.08600
15611 SI 15611 SI SI1 15611 1.100000 28.08600
15612 SI 15612 SI SI1 15612 1.100000 28.08600
15613 SI 15613 SI SI1 15613 1.100000 28.08600
15614 SI 15614 SI SI1 15614 1.100000 28.08600
15615 SI 15615 SI SI1 15615 1.100000 28.08600
15616 SI 15616 SI SI1 15616 1.100000 28.08600
15617 SI 15617 SI SI1 15617 1.100000 28.08600
15618 SI 15618 SI SI1 15618 1.100000 28.08600
15619 SI 15619 SI SI1 15619 1.100000 28.08600
15620 SI 15620 SI SI1 15620 1.100000 28.08600
15621 SI 15621 SI SI1 15621 1.100000 28.08600
15622 SI 15622 SI SI1 15622 1.100000 28.08600
15623 SI 15623 SI SI1 15623 1.100000 28.08600
15624 SI 15624 SI SI1 15624 1.100000 28.08600
15625 SI 15625 SI SI1 15625 1.100000 28.08600
15626 SI 15626 SI SI1 15626 1.100000 28.08600
15627 SI 15627 SI SI1 15627 1.100000 28.08600
15628 SI 15628 SI SI1 15628 1.100000 28.08600
15629 SI 15629 SI SI1 15629 1.100000 28.08600
15630 SI 15630 SI SI1 15630 1.100000 28.08600
15631 SI 15631 SI SI1 15631 1.100000 28.08600
15632 SI 15632 SI SI1 15632 1.100000 28.08600
15633 SI 15633 SI SI1 15633 1.100000 28.08600
15634 SI 15634 SI SI1 15634 1.100000 28.08600
15635 SI 15635 SI SI1 15635 1.100000 28.08600
15636 SI 15636 SI SI1 15636 1.100000 28.08600
15637 SI 15637 SI SI1 15637 1.100000 28.08600
15638 SI 15638 SI SI1 15638 1.100000 28.08600
15639 SI 15639 SI SI1 15639 1.100000 28.08600
15640 SI 15640 SI SI1 15640 1.100000 28.08600
15641 SI 15641 SI SI1 15641 1.100000 28.08600
15642 SI 15642 SI SI1 15642 1.100000 28.08600
15643 SI 15643 SI SI1 15643 1.100000 28.08600
15644 SI 15644 SI SI1 15644 1.100000 28.08600
15645 SI 15645 SI SI1 15645 1.100000 28.08600
15646 SI 15646 SI SI1 15646 1.100000 28.08600
15647 SI 15647 SI SI1 15647 1.100000 28.08600
15648 SI 15648 SI SI1 15648 1.100000 28.08600
15649 SI 15649 SI SI1 15649 1.100000 28.08600
15650 SI 15650 SI SI1 15650 1.100000 28.08600
15651 SI 15651 SI SI1 15651 1.100000 28.08600
15652 SI 15652 SI SI1 15652 1.100000 28.08600
15653 SI 15653 SI SI1 15653 1.100000 28.08600
15654 SI 15654 SI SI1 15654 1.100000 28.08600
15655 SI 15655 SI SI1 15655 1.100000 28.08600
15656 SI 15656 SI SI1 15656 1.100000 28.08600
15657 SI 15657 SI SI1 15657 1.100000 28.08600
15658 SI 15658 SI SI1 15658 1.100000 28.08600
15659 SI 15659 SI SI1 15659 1.100000 28.08600
15660 SI 15660 SI SI1 15660 1.100000 28.08600
15661 SI 15661 SI SI1 15661 1.100000 28.08600
15662 SI 15662 SI SI1 15662 1.100000 28.08600
15663 SI 15663 SI SI1 15663 1.100000 28.08600
15664 SI 15664 SI SI1 15664 1.100000 28.08600
15665 SI 15665 SI SI1 15665 1.100000 28.08600
15666 SI 15666 SI SI1 15666 1.100000 28.08600
15667 SI 15667 SI SI1 15667 1.100000 28.08600
15668 SI 15668 SI SI1 15668 1.100000 28.08600
15669 SI 15669 SI SI1 15669 1.100000 28.08600
15670 SI 15670 SI SI1 15670 1.100000 28.08600
15671 SI 15671 SI SI1 15671 1.100000 28.08600
15672 SI 15672 SI SI1 15672 1.100000 28.08600
15673 SI 15673 SI SI1 15673 1.100000 28.08600
15674 SI 15674 SI SI1 15674 1.100000 28.08600
15675 SI 15675 SI SI1 15675 1.100000 28.08600
15676 SI 15676 SI SI1 15676 1.100000 28.08600
15677 SI 15677 SI SI1 15677 1.100000 28.08600
15678 SI 15678 SI SI1 15678 1.100000 28.08600
15679 SI 15679 SI SI1 15679 1.100000 28.08600
15680 SI 15680 SI SI1 15680 1.100000 28.08600
15681 SI 15681 SI SI1 15681 1.100000 28.08600
15682 SI 15682 SI SI1 15682 1.100000 28.08600
15683 SI 15683 SI SI1 15683 1.100000 28.08600
15684 SI 15684 SI SI1 15684 1.100000 28.08600
15685 SI 15685 SI SI1 15685 1.100000 28.08600
15686 SI 15686 SI SI1 15686 1.100000 28.08600
15687 SI 15687 SI SI1 15687 1.100000 28.08600
15688 SI 15688 SI SI1 15688 1.100000 28.08600
15689 SI 15689 SI SI1 15689 1.100000 28.08600
15690 SI 15690 SI SI1 15690 1.100000 28.08600
15691 SI 15691 SI SI1 15691 1.100000 28.08600
15692 SI 15692 SI SI1 15692 1.100000 28.08600
15693 SI 15693 SI SI1 15693 1.100000 28.08600
15694 SI 15694 SI SI1 15694 1.100000 28.08600
15695 SI 15695 SI SI1 15695 1.100000 28.08600
15696 SI 15696 SI SI1 15696 1.100000 28.08600
15697 SI 15697 SI SI1 15697 1.100000 28.08600
15698 SI 15698 SI SI1 15698 1.100000 28.08600
15699 SI 15699 SI SI1 15699 1.100000 28.08600
15700 SI 15700 SI SI1 15700 1.100000 28.08600
15701 SI 15701 SI SI1 15701 1.100000 28.08600
15702 SI 15702 SI SI1 15702 1.100000 28.08600
15703 SI 15703 SI SI1 15703 1.100000 28.08600
15704 SI 15704 SI SI1 15704 1.100000 28.08600
15705 SI 15705 SI SI1 15705 1.100000 28.08600
15706 SI 15706 SI SI1 15706 1.100000 28.08600
15707 SI 15707 SI SI1 15707 1.100000 28.08600
15708 SI 15708 SI SI1 15708 1.100000 28.08600
15709 SI 15709 SI SI1 15709 1.100000 28.08600
15710 SI 15710 SI SI1 15710 1.100000 28.08600
15711 SI 15711 SI SI1 15711 1.100000 28.08600
15712 SI 15712 SI SI1 15712 1.100000 28.08600
15713 SI 15713 SI SI1 15713 1.100000 28.08600
15714 SI 15714 SI SI1 15714 1.100000 28.08600
15715 SI 15715 SI SI1 15715 1.100000 28.08600
15716 SI 15716 SI SI1 15716 1.100000 28.08600
15717 SI 15717 SI SI1 15717 1.100000 28.08600
15718 SI 15718 SI SI1 15718 1.100000 28.08600
15719 SI 15719 SI SI1 15719 1.100000 28.08600
15720 SI 15720 SI SI1 15720 1.100000 28.08600
15721 SI 15721 SI SI1 15721 1.100000 28.08600
15722 SI 15722 SI SI1 15722 1.100000 28.08600
15723 SI 15723 SI SI1 15723 1.100000 28.08600
15724 SI 15724 SI SI1 15724 1.100000 28.08600
15725 SI 15725 SI SI1 15725 1.100000 28.08600
15726 SI 15726 SI SI1 15726 1.100000 28.08600
15727 SI 15727 SI SI1 15727 1.100000 28.08600
15728 SI 15728 SI SI1 15728 1.100000 28.08600
15729 SI 15729 SI SI1 15729 1.100000 28.08600
15730 SI 15730 SI SI1 15730 1.100000 28.08600
15731 SI 15731 SI SI1 15731 1.100000 28.08600
15732 SI 15732 SI SI1 15732 1.100000 28.08600
15733 SI 15733 SI SI1 15733 1.100000 28.08600
15734 SI 15734 SI SI1 15734 1.100000 28.08600
15735 SI 15735 SI SI1 15735 1.100000 28.08600
15736 SI 15736 SI SI1 15736 1.100000 28.08600
15737 SI 15737 SI SI1 15737 1.100000 28.08600
15738 SI 15738 SI SI1 15738 1.100000 28.08600
15739 SI 15739 SI SI1 15739 1.100000 28.08600
15740 SI 15740 SI SI1 15740 1.100000 28.08600
15741 SI 15741 SI SI1 15741 1.100000 28.08600
15742 SI 15742 SI SI1 15742 1.100000 28.08600
15743 SI 15743 SI SI1 15743 1.100000 28.08600
15744 SI 15744 SI SI1 15744 1.100000 28.08600
15745 SI 15745 SI SI1 15745 1.100000 28.08600
15746 SI 15746 SI SI1 15746 1.100000 28.08600
15747 SI 15747 SI SI1 15747 1.100000 28.08600
15748 SI 15748 SI SI1 15748 1.100000 28.08600
15749 SI 15749 SI SI1 15749 1.100000 28.08600
15750 SI 15750 SI SI1 15750 1.100000 28.08600
15751 SI 15751 SI SI1 15751 1.100000 28.08600
15752 SI 15752 SI SI1 15752 1.100000 28.08600
15753 SI 15753 SI SI1 15753 1.100000 28.08600
15754 SI 15754 SI SI1 15754 1.100000 28.08600
15755 SI 15755 SI SI1 15755 1.100000 28.08600
15756 SI 15756 SI SI1 15756 1.100000 28.08600
15757 SI 15757 SI SI1 15757 1.100000 28.08600
15758 SI 15758 SI SI1 15758 1.100000 28.08600
15759 SI 15759 SI SI1 15759 1.100000 28.08600
15760 SI 15760 SI SI1 15760 1.100000 28.08600
15761 SI 15761 SI SI1 15761 1.100000 28.08600
15762 SI 15762 SI SI1 15762 1.100000 28.08600
15763 SI 15763 SI SI1 15763 1.100000 28.08600
15764 SI 15764 SI SI1 15764 1.100000 28.08600
15765 SI 15765 SI SI1 15765 1.100000 28.08600
15766 SI 15766 SI SI1 15766 1.100000 28.08600
15767 SI 15767 SI SI1 15767 1.100000 28.08600
15768 SI 15768 SI SI1 15768 1.100000 28.08600
15769 SI 15769 SI SI1 15769 1.100000 28.08600
15770 SI 15770 SI SI1 15770 1.100000 28.08600
15771 SI 15771 SI SI1 15771 1.100000 28.08600
15772 SI 15772 SI SI1 15772 1.100000 28.08600
15773 SI 15773 SI SI1 15773 1.100000 28.08600
15774 SI 15774 SI SI1 15774 1.100000 28.08600
15775 SI 15775 SI SI1 15775 1.100000 28.08600
15776 SI 15776 SI SI1 15776 1.100000 28.08600
15777 SI 15777 SI SI1 15777 1.100000 28.08600
15778 SI 15778 SI SI1 15778 1.100000 28.08600
15779 SI 15779 SI SI1 15779 1.100000 28.08600
15780 SI 15780 SI SI1 15780 1.100000 28.08600
15781 SI 15781 SI SI1 15781 1.100000 28.08600
15782 SI 15782 SI SI1 15782 1.100000 28.08600
15783 SI 15783 SI SI1 15783 1.100000 28.08600
15784 SI 15784 SI SI1 15784 1.100000 28.08600
15785 SI 15785 SI SI1 15785 1.100000 28.08600
15786 SI 15786 SI SI1 15786 1.100000 28.08600
15787 SI 15787 SI SI1 15787 1.100000 28.08600
15788 SI 15788 SI SI1 15788 1.100000 28.08600
15789 SI 15789 SI SI1 15789 1.100000 28.08600
15790 SI 15790 SI SI1 15790 1.100000 28.08600
15791 SI 15791 SI SI1 15791 1.100000 28.08600
15792 SI 15792 SI SI1 15792 1.100000 28.08600
15793 SI 15793 SI SI1 15793 1.100000 28.08600
15794 SI 15794 SI SI1 15794 1.100000 28.08600
15795 SI 15795 SI SI1 15795 1.100000 28.08600
15796 SI 15796 SI SI1 15796 1.100000 28.08600
15797 SI 15797 SI SI1 15797 1.100000 28.08600
15798 SI 15798 SI SI1 15798 1.100000 28.08600
15799 SI 15799 SI SI1 15799 1.100000 28.08600
15800 SI 15800 SI SI1 15800 1.100000 28.08600
15801 SI 15801 SI SI1 15801 1.100000 28.08600
15802 SI 15802 SI SI1 15802 1.100000 28.08600
15803 SI 15803 SI SI1 15803 1.100000 28.08600
15804 SI 15804 SI SI1 15804 1.100000 28.08600
15805 SI 15805 SI SI1 15805 1.100000 28.08600
15806 SI 15806 SI SI1 15806 1.100000 28.08600
15807 SI 15807 SI SI1 15807 1.100000 28.08600
15808 SI 15808 SI SI1 15808 1.100000 28.08600
15809 SI 15809 SI SI1 15809 1.100000 28.08600
15810 SI 15810 SI SI1 15810 1.100000 28.08600
15811 SI 15811 SI SI1 15811 1.100000 28.08600
15812 SI 15812 SI SI1 15812 1.100000 28.08600
15813 SI 15813 SI SI1 15813 1.100000 28.08600
15814 SI 15814 SI SI1 15814 1.100000 28.08600
15815 SI 15815 SI SI1 15815 1.100000 28.08600
15816 SI 15816 SI SI1 15816 1.100000 28.08600
15817 SI 15817 SI SI1 15817 1.100000 28.08600
15818 SI 15818 SI SI1 15818 1.100000 28.08600
15819 SI 15819 SI SI1 15819 1.100000 28.08600
15820 SI 15820 SI SI1 15820 1.100000 28.08600
15821 SI 15821 SI SI1 15821 1.100000 28.08600
15822 SI 15822 SI SI1 15822 1.100000 28.08600
15823 SI 15823 SI SI1 15823 1.100000 28.08600
15824 SI 15824 SI SI1 15824 1.100000 28.08600
15825 SI 15825 SI SI1 15825 1.100000 28.08600
15826 SI 15826 SI SI1 15826 1.100000 28.08600
15827 SI 15827 SI SI1 15827 1.100000 28.08600
15828 SI 15828 SI SI1 15828 1.100000 28.08600
15829 SI 15829 SI SI1 15829 1.100000 28.08600
15830 SI 15830 SI SI1 15830 1.100000 28.08600
15831 SI 15831 SI SI1 15831 1.100000 28.08600
15832 SI 15832 SI SI1 15832 1.100000 28.08600
15833 SI 15833 SI SI1 15833 1.100000 28.08600
15834 SI 15834 SI SI1 15834 1.100000 28.08600
15835 SI 15835 SI SI1 15835 1.100000 28.08600
15836 SI 15836 SI SI1 15836 1.100000 28.08600
15837 SI 15837 SI SI1 15837 1.100000 28.08600
15838 SI 15838 SI SI1 15838 1.100000 28.08600
15839 SI 15839 SI SI1 15839 1.100000 28.08600
15840 SI 15840 SI SI1 15840 1.100000 28.08600
15841 SI 15841 SI SI1 15841 1.100000 28.08600
15842 SI 15842 SI SI1 15842 1.100000 28.08600
15843 SI 15843 SI SI1 15843 1.100000 28.08600
15844 SI 15844 SI SI1 15844 1.100000 28.08600
15845 SI 15845 SI SI1 15845 1.100000 28.08600
15846 SI 15846 SI SI1 15846 1.100000 28.08600
15847 SI 15847 SI SI1 15847 1.100000 28.08600
15848 SI 15848 SI SI1 15848 1.100000 28.08600
15849 SI 15849 SI SI1 15849 1.100000 28.08600
15850 SI 15850 SI SI1 15850 1.100000 28.08600
15851 SI 15851 SI SI1 15851 1.100000 28.08600
15852 SI 15852 SI SI1 15852 1.100000 28.08600
15853 SI 15853 SI SI1 15853 1.100000 28.08600
15854 SI 15854 SI SI1 15854 1.100000 28.08600
15855 SI 15855 SI SI1 15855 1.100000 28.08600
15856 SI 15856 SI SI1 15856 1.100000 28.08600
15857 SI 15857 SI SI1 15857 1.100000 28.08600
15858 SI 15858 SI SI1 15858 1.100000 28.08600
15859 SI 15859 SI SI1 15859 1.100000 28.08600
15860 SI 15860 SI SI1 15860 1.100000 28.08600
15861 SI 15861 SI SI1 15861 1.100000 28.08600
15862 SI 15862 SI SI1 15862 1.100000 28.08600
15863 SI 15863 SI SI1 15863 1.100000 28.08600
15864 SI 15864 SI SI1 15864 1.100000 28.08600
15865 SI 15865 SI SI1 15865 1.100000 28.08600
15866 SI 15866 SI SI1 15866 1.100000 28.08600
15867 SI 15867 SI SI1 15867 1.100000 28.08600
15868 SI 15868 SI SI1 15868 1.100000 28.08600
15869 SI 15869 SI SI1 15869 1.100000 28.08600
15870 SI 15870 SI SI1 15870 1.100000 28.08600
15871 SI 15871 SI SI1 15871 1.100000 28.08600
15872 SI 15872 SI SI1 15872 1.100000 28.08600
15873 SI 15873 SI SI1 15873 1.100000 28.08600
15874 SI 15874 SI SI1 15874 1.100000 28.08600
15875 SI 15875 SI SI1 15875 1.100000 28.08600
15876 SI 15876 SI SI1 15876 1.100000 28.08600
15877 SI 15877 SI SI1 15877 1.100000 28.08600
15878 SI 15878 SI SI1 15878 1.100000 28.08600
15879 SI 15879 SI SI1 15879 1.100000 28.08600
15880 SI 15880 SI SI1 15880 1.100000 28.08600
15881 SI 15881 SI SI1 15881 1.100000 28.08600
15882 SI 15882 SI SI1 15882 1.100000 28.08600
15883 SI 15883 SI SI1 15883 1.100000 28.08600
15884 SI 15884 SI SI1 15884 1.100000 28.08600
15885 SI 15885 SI SI1 15885 1.100000 28.08600
15886 SI 15886 SI SI1 15886 1.100000 28.08600
15887 SI 15887 SI SI1 15887 1.100000 28.08600
15888 SI 15888 SI SI1 15888 1.100000 28.08600
15889 SI 15889 SI SI1 15889 1.100000 28.08600
15890 SI 15890 SI SI1 15890 1.100000 28.08600
15891 SI 15891 SI SI1 15891 1.100000 28.08600
15892 SI 15892 SI SI1 15892 1.100000 28.08600
15893 SI 15893 SI SI1 15893 1.100000 28.08600
15894 SI 15894 SI SI1 15894 1.100000 28.08600
15895 SI 15895 SI SI1 15895 1.100000 28.08600
15896 SI 15896 SI SI1 15896 1.100000 28.08600
15897 SI 15897 SI SI1 15897 1.100000 28.08600
15898 SI 15898 SI SI1 15898 1.100000 28.08600
15899 SI 15899 SI SI1 15899 1.100000 28.08600
15900 SI 15900 SI SI1 15900 1.100000 28.08600
15901 SI 15901 SI SI1 15901 1.100000 28.08600
15902 SI 15902 SI SI1 15902 1.100000 28.08600
15903 SI 15903 SI SI1 15903 1.100000 28.08600
15904 SI 15904 SI SI1 15904 1.100000 28.08600
15905 SI 15905 SI SI1 15905 1.100000 28.08600
15906 SI 15906 SI SI1 15906 1.100000 28.08600
15907 SI 15907 SI SI1 15907 1.100000 28.08600
15908 SI 15908 SI SI1 15908 1.100000 28.08600
15909 SI 15909 SI SI1 15909 1.100000 28.08600
15910 SI 15910 SI SI1 15910 1.100000 28.08600
15911 SI 15911 SI SI1 15911 1.100000 28.08600
15912 SI 15912 SI SI1 15912 1.100000 28.08600
15913 SI 15913 SI SI1 15913 1.100000 28.08600
15914 SI 15914 SI SI1 15914 1.100000 28.08600
15915 SI 15915 SI SI1 15915 1.100000 28.08600
15916 SI 15916 SI SI1 15916 1.100000 28.08600
15917 SI 15917 SI SI1 15917 1.100000 28.08600
15918 SI 15918 SI SI1 15918 1.100000 28.08600
15919 SI 15919 SI SI1 15919 1.100000 28.08600
15920 SI 15920 SI SI1 15920 1.100000 28.08600
15921 SI 15921 SI SI1 15921 1.100000 28.08600
15922 SI 15922 SI SI1 15922 1.100000 28.08600
15923 SI 15923 SI SI1 15923 1.100000 28.08600
15924 SI 15924 SI SI1 15924 1.100000 28.08600
15925 SI 15925 SI SI1 15925 1.100000 28.08600
15926 SI 15926 SI SI1 15926 1.100000 28.08600
15927 SI 15927 SI SI1 15927 1.100000 28.08600
15928 SI 15928 SI SI1 15928 1.100000 28.08600
15929 SI 15929 SI SI1 15929 1.100000 28.08600
15930 SI 15930 SI SI1 15930 1.100000 28.08600
15931 SI 15931 SI SI1 15931 1.100000 28.08600
15932 SI 15932 SI SI1 15932 1.100000 28.08600
15933 SI 15933 SI SI1 15933 1.100000 28.08600
15934 SI 15934 SI SI1 15934 1.100000 28.08600
15935 SI 15935 SI SI1 15935 1.100000 28.08600
15936 SI 15936 SI SI1 15936 1.100000 28.08600
15937 SI 15937 SI SI1 15937 1.100000 28.08600
15938 SI 15938 SI SI1 15938 1.100000 28.08600
15939 SI 15939 SI SI1 15939 1.100000 28.08600
15940 SI 15940 SI SI1 15940 1.100000 28.08600
15941 SI 15941 SI SI1 15941 1.100000 28.08600
15942 SI 15942 SI SI1 15942 1.100000 28.08600
15943 SI 15943 SI SI1 15943 1.100000 28.08600
15944 SI 15944 SI SI1 15944 1.100000 28.08600
15945 SI 15945 SI SI1 15945 1.100000 28.08600
15946 SI 15946 SI SI1 15946 1.100000 28.08600
15947 SI 15947 SI SI1 15947 1.100000 28.08600
15948 SI 15948 SI SI1 15948 1.100000 28.08600
15949 SI 15949 SI SI1 15949 1.100000 28.08600
15950 SI 15950 SI SI1 15950 1.100000 28.08600
15951 SI 15951 SI SI1 15951 1.100000 28.08600
15952 SI 15952 SI SI1 15952 1.100000 28.08600
15953 SI 15953 SI SI1 15953 1.100000 28.08600
15954 SI 15954 SI SI1 15954 1.100000 28.08600
15955 SI 15955 SI SI1 15955 1.100000 28.08600
15956 SI 15956 SI SI1 15956 1.100000 28.08600
15957 SI 15957 SI SI1 15957 1.100000 28.08600
15958 SI 15958 SI SI1 15958 1.100000 28.08600
15959 SI 15959 SI SI1 15959 1.100000 28.08600
15960 SI 15960 SI SI1 15960 1.100000 28.08600
15961 SI 15961 SI SI1 15961 1.100000 28.08600
15962 SI 15962 SI SI1 15962 1.100000 28.08600
15963 SI 15963 SI SI1 15963 1.100000 28.08600
15964 SI 15964 SI SI1 15964 1.100000 28.08600
15965 SI 15965 SI SI1 15965 1.100000 28.08600
15966 SI 15966 SI SI1 15966 1.100000 28.08600
15967 SI 15967 SI SI1 15967 1.100000 28.08600
15968 SI 15968 SI SI1 15968 1.100000 28.08600
15969 SI 15969 SI SI1 15969 1.100000 28.08600
15970 SI 15970 SI SI1 15970 1.100000 28.08600
15971 SI 15971 SI SI1 15971 1.100000 28.08600
15972 SI 15972 SI SI1 15972 1.100000 28.08600
15973 SI 15973 SI SI1 15973 1.100000 28.08600
15974 SI 15974 SI SI1 15974 1.100000 28.08600
15975 SI 15975 SI SI1 15975 1.100000 28.08600
15976 SI 15976 SI SI1 15976 1.100000 28.08600
15977 SI 15977 SI SI1 15977 1.100000 28.08600
15978 SI 15978 SI SI1 15978 1.100000 28.08600
15979 SI 15979 SI SI1 15979 1.100000 28.08600
15980 SI 15980 SI SI1 15980 1.100000 28.08600
15981 SI 15981 SI SI1 15981 1.100000 28.08600
15982 SI 15982 SI SI1 15982 1.100000 28.08600
15983 SI 15983 SI SI1 15983 1.100000 28.08600
15984 SI 15984 SI SI1 15984 1.100000 28.08600
15985 SI 15985 SI SI1 15985 1.100000 28.08600
15986 SI 15986 SI SI1 15986 1.100000 28.08600
15987 SI 15987 SI SI1 15987 1.100000 28.08600
15988 SI 15988 SI SI1 15988 1.100000 28.08600
15989 SI 15989 SI SI1 15989 1.100000 28.08600
15990 SI 15990 SI SI1 15990 1.100000 28.08600
15991 SI 15991 SI SI1 15991 1.100000 28.08600
15992 SI 15992 SI SI1 15992 1.100000 28.08600
15993 SI 15993 SI SI1 15993 1.100000 28.08600
15994 SI 15994 SI SI1 15994 1.100000 28.08600
15995 SI 15995 SI SI1 15995 1.100000 28.08600
15996 SI 15996 SI SI1 15996 1.100000 28.08600
15997 SI 15997 SI SI1 15997 1.100000 28.08600
15998 SI 15998 SI SI1 15998 1.100000 28.08600
15999 SI 15999 SI SI1 15999 1.100000 28.08600
16000 SI 16000 SI SI1 16000 1.100000 28.08600
16001 SI 16001 SI SI1 16001 1.100000 28.08600
16002 SI 16002 SI SI1 16002 1.100000 28.08600
16003 SI 16003 SI SI1 16003 1.100000 28.08600
16004 SI 16004 SI SI1 16004 1.100000 28.08600
16005 SI 16005 SI SI1 16005 1.100000 28.08600
16006 SI 16006 SI SI1 16006 1.100000 28.08600
16007 SI 16007 SI SI1 16007 1.100000 28.08600
16008 SI 16008 SI SI1 16008 1.100000 28.08600
16009 SI 16009 SI SI1 16009 1.100000 28.08600
16010 SI 16010 SI SI1 16010 1.100000 28.08600
16011 SI 16011 SI SI1 16011 1.100000 28.08600
16012 SI 16012 SI SI1 16012 1.100000 28.08600
16013 SI 16013 SI SI1 16013 1.100000 28.08600
16014 SI 16014 SI SI1 16014 1.100000 28.08600
16015 SI 16015 SI SI1 16015 1.100000 28.08600
16016 SI 16016 SI SI1 16016 1.100000 28.08600
16017 SI 16017 SI SI1 16017 1.100000 28.08600
16018 SI 16018 SI SI1 16018 1.100000 28.08600
16019 SI 16019 SI SI1 16019 1.100000 28.08600
16020 SI 16020 SI SI1 16020 1.100000 28.08600
16021 SI 16021 SI SI1 16021 1.100000 28.08600
16022 SI 16022 SI SI1 16022 1.100000 28.08600
16023 SI 16023 SI SI1 16023 1.100000 28.08600
16024 SI 16024 SI SI1 16024 1.100000 28.08600
16025 SI 16025 SI SI1 16025 1.100000 28.08600
16026 SI 16026 SI SI1 16026 1.100000 28.08600
16027 SI 16027 SI SI1 16027 1.100000 28.08600
16028 SI 16028 SI SI1 16028 1.100000 28.08600
16029 SI 16029 SI SI1 16029 1.100000 28.08600
16030 SI 16030 SI SI1 16030 1.100000 28.08600
16031 SI 16031 SI SI1 16031 1.100000 28.08600
16032 SI 16032 SI SI1 16032 1.100000 28.08600
16033 SI 16033 SI SI1 16033 1.100000 28.08600
16034 SI 16034 SI SI1 16034 1.100000 28.08600
16035 SI 16035 SI SI1 16035 1.100000 28.08600
16036 SI 16036 SI SI1 16036 1.100000 28.08600
16037 SI 16037 SI SI1 16037 1.100000 28.08600
16038 SI 16038 SI SI1 16038 1.100000 28.08600
16039 SI 16039 SI SI1 16039 1.100000 28.08600
16040 SI 16040 SI SI1 16040 1.100000 28.08600
16041 SI 16041 SI SI1 16041 1.100000 28.08600
16042 SI 16042 SI SI1 16042 1.100000 28.08600
16043 SI 16043 SI SI1 16043 1.100000 28.08600
16044 SI 16044 SI SI1 16044 1.100000 28.08600
16045 SI 16045 SI SI1 16045 1.100000 28.08600
16046 SI 16046 SI SI1 16046 1.100000 28.08600
16047 SI 16047 SI SI1 16047 1.100000 28.08600
16048 SI 16048 SI SI1 16048 1.100000 28.08600
16049 SI 16049 SI SI1 16049 1.100000 28.08600
16050 SI 16050 SI SI1 16050 1.100000 28.08600
16051 SI 16051 SI SI1 16051 1.100000 28.08600
16052 SI 16052 SI SI1 16052 1.100000 28.08600
16053 SI 16053 SI SI1 16053 1.100000 28.08600
16054 SI 16054 SI SI1 16054 1.100000 28.08600
16055 SI 16055 SI SI1 16055 1.100000 28.08600
16056 SI 16056 SI SI1 16056 1.100000 28.08600
16057 SI 16057 SI SI1 16057 1.100000 28.08600
16058 SI 16058 SI SI1 16058 1.100000 28.08600
16059 SI 16059 SI SI1 16059 1.100000 28.08600
16060 SI 16060 SI SI1 16060 1.100000 28.08600
16061 SI 16061 SI SI1 16061 1.100000 28.08600
16062 SI 16062 SI SI1 16062 1.100000 28.08600
16063 SI 16063 SI SI1 16063 1.100000 28.08600
16064 SI 16064 SI SI1 16064 1.100000 28.08600
16065 SI 16065 SI SI1 16065 1.100000 28.08600
16066 SI 16066 SI SI1 16066 1.100000 28.08600
16067 SI 16067 SI SI1 16067 1.100000 28.08600
16068 SI 16068 SI SI1 16068 1.100000 28.08600
16069 SI 16069 SI SI1 16069 1.100000 28.08600
16070 SI 16070 SI SI1 16070 1.100000 28.08600
16071 SI 16071 SI SI1 16071 1.100000 28.08600
16072 SI 16072 SI SI1 16072 1.100000 28.08600
16073 SI 16073 SI SI1 16073 1.100000 28.08600
16074 SI 16074 SI SI1 16074 1.100000 28.08600
16075 SI 16075 SI SI1 16075 1.100000 28.08600
16076 SI 16076 SI SI1 16076 1.100000 28.08600
16077 SI 16077 SI SI1 16077 1.100000 28.08600
16078 SI 16078 SI SI1 16078 1.100000 28.08600
16079 SI 16079 SI SI1 16079 1.100000 28.08600
16080 SI 16080 SI SI1 16080 1.100000 28.08600
16081 SI 16081 SI SI1 16081 1.100000 28.08600
16082 SI 16082 SI SI1 16082 1.100000 28.08600
16083 SI 16083 SI SI1 16083 1.100000 28.08600
16084 SI 16084 SI SI1 16084 1.100000 28.08600
16085 SI 16085 SI SI1 16085 1.100000 28.08600
16086 SI 16086 SI SI1 16086 1.100000 28.08600
16087 SI 16087 SI SI1 16087 1.100000 28.08600
16088 SI 16088 SI SI1 16088 1.100000 28.08600
16089 SI 16089 SI SI1 16089 1.100000 28.08600
16090 SI 16090 SI SI1 16090 1.100000 28.08600
16091 SI 16091 SI SI1 16091 1.100000 28.08600
16092 SI 16092 SI SI1 16092 1.100000 28.08600
16093 SI 16093 SI SI1 16093 1.100000 28.08600
16094 SI 16094 SI SI1 16094 1.100000 28.08600
16095 SI 16095 SI SI1 16095 1.100000 28.08600
16096 SI 16096 SI SI1 16096 1.100000 28.08600
16097 SI 16097 SI SI1 16097 1.100000 28.08600
16098 SI 16098 SI SI1 16098 1.100000 28.08600
16099 SI 16099 SI SI1 16099 1.100000 28.08600
16100 SI 16100 SI SI1 16100 1.100000 28.08600
16101 SI 16101 SI SI1 16101 1.100000 28.08600
16102 SI 16102 SI SI1 16102 1.100000 28.08600
16103 SI 16103 SI SI1 16103 1.100000 28.08600
16104 SI 16104 SI SI1 16104 1.100000 28.08600
16105 SI 16105 SI SI1 16105 1.100000 28.08600
16106 SI 16106 SI SI1 16106 1.100000 28.08600
16107 SI 16107 SI SI1 16107 1.100000 28.08600
16108 SI 16108 SI SI1 16108 1.100000 28.08600
16109 SI 16109 SI SI1 16109 1.100000 28.08600
16110 SI 16110 SI SI1 16110 1.100000 28.08600
16111 SI 16111 SI SI1 16111 1.100000 28.08600
16112 SI 16112 SI SI1 16112 1.100000 28.08600
16113 SI 16113 SI SI1 16113 1.100000 28.08600
16114 SI 16114 SI SI1 16114 1.100000 28.08600
16115 SI 16115 SI SI1 16115 1.100000 28.08600
16116 SI 16116 SI SI1 16116 1.100000 28.08600
16117 SI 16117 SI SI1 16117 1.100000 28.08600
16118 SI 16118 SI SI1 16118 1.100000 28.08600
16119 SI 16119 SI SI1 16119 1.100000 28.08600
16120 SI 16120 SI SI1 16120 1.100000 28.08600
16121 SI 16121 SI SI1 16121 1.100000 28.08600
16122 SI 16122 SI SI1 16122 1.100000 28.08600
16123 SI 16123 SI SI1 16123 1.100000 28.08600
16124 SI 16124 SI SI1 16124 1.100000 28.08600
16125 SI 16125 SI SI1 16125 1.100000 28.08600
16126 SI 16126 SI SI1 16126 1.100000 28.08600
16127 SI 16127 SI SI1 16127 1.100000 28.08600
16128 SI 16128 SI SI1 16128 1.100000 28.08600
16129 SI 16129 SI SI1 16129 1.100000 28.08600
16130 SI 16130 SI SI1 16130 1.100000 28.08600
16131 SI 16131 SI SI1 16131 1.100000 28.08600
16132 SI 16132 SI SI1 16132 1.100000 28.08600
16133 SI 16133 SI SI1 16133 1.100000 28.08600
16134 SI 16134 SI SI1 16134 1.100000 28.08600
16135 SI 16135 SI SI1 16135 1.100000 28.08600
16136 SI 16136 SI SI1 16136 1.100000 28.08600
16137 SI 16137 SI SI1 16137 1.100000 28.08600
16138 SI 16138 SI SI1 16138 1.100000 28.08600
16139 SI 16139 SI SI1 16139 1.100000 28.08600
16140 SI 16140 SI SI1 16140 1.100000 28.08600
16141 SI 16141 SI SI1 16141 1.100000 28.08600
16142 SI 16142 SI SI1 16142 1.100000 28.08600
16143 SI 16143 SI SI1 16143 1.100000 28.08600
16144 SI 16144 SI SI1 16144 1.100000 28.08600
16145 SI 16145 SI SI1 16145 1.100000 28.08600
16146 SI 16146 SI SI1 16146 1.100000 28.08600
16147 SI 16147 SI SI1 16147 1.100000 28.08600
16148 SI 16148 SI SI1 16148 1.100000 28.08600
16149 SI 16149 SI SI1 16149 1.100000 28.08600
16150 SI 16150 SI SI1 16150 1.100000 28.08600
16151 SI 16151 SI SI1 16151 1.100000 28.08600
16152 SI 16152 SI SI1 16152 1.100000 28.08600
16153 SI 16153 SI SI1 16153 1.100000 28.08600
16154 SI 16154 SI SI1 16154 1.100000 28.08600
16155 SI 16155 SI SI1 16155 1.100000 28.08600
16156 SI 16156 SI SI1 16156 1.100000 28.08600
16157 SI 16157 SI SI1 16157 1.100000 28.08600
16158 SI 16158 SI SI1 16158 1.100000 28.08600
16159 SI 16159 SI SI1 16159 1.100000 28.08600
16160 SI 16160 SI SI1 16160 1.100000 28.08600
16161 SI 16161 SI SI1 16161 1.100000 28.08600
16162 SI 16162 SI SI1 16162 1.100000 28.08600
16163 SI 16163 SI SI1 16163 1.100000 28.08600
16164 SI 16164 SI SI1 16164 1.100000 28.08600
16165 SI 16165 SI SI1 16165 1.100000 28.08600
16166 SI 16166 SI SI1 16166 1.100000 28.08600
16167 SI 16167 SI SI1 16167 1.100000 28.08600
16168 SI 16168 SI SI1 16168 1.100000 28.08600
16169 SI 16169 SI SI1 16169 1.100000 28.08600
16170 SI 16170 SI SI1 16170 1.100000 28.08600
16171 SI 16171 SI SI1 16171 1.100000 28.08600
16172 SI 16172 SI SI1 16172 1.100000 28.08600
16173 SI 16173 SI SI1 16173 1.100000 28.08600
16174 SI 16174 SI SI1 16174 1.100000 28.08600
16175 SI 16175 SI SI1 16175 1.100000 28.08600
16176 SI 16176 SI SI1 16176 1.100000 28.08600
16177 SI 16177 SI SI1 16177 1.100000 28.08600
16178 SI 16178 SI SI1 16178 1.100000 28.08600
16179 SI 16179 SI SI1 16179 1.100000 28.08600
16180 SI 16180 SI SI1 16180 1.100000 28.08600
16181 SI 16181 SI SI1 16181 1.100000 28.08600
16182 SI 16182 SI SI1 16182 1.100000 28.08600
16183 SI 16183 SI SI1 16183 1.100000 28.08600
16184 SI 16184 SI SI1 16184 1.100000 28.08600
16185 SI 16185 SI SI1 16185 1.100000 28.08600
16186 SI 16186 SI SI1 16186 1.100000 28.08600
16187 SI 16187 SI SI1 16187 1.100000 28.08600
16188 SI 16188 SI SI1 16188 1.100000 28.08600
16189 SI 16189 SI SI1 16189 1.100000 28.08600
16190 SI 16190 SI SI1 16190 1.100000 28.08600
16191 SI 16191 SI SI1 16191 1.100000 28.08600
16192 SI 16192 SI SI1 16192 1.100000 28.08600
16193 SI 16193 SI SI1 16193 1.100000 28.08600
16194 SI 16194 SI SI1 16194 1.100000 28.08600
16195 SI 16195 SI SI1 16195 1.100000 28.08600
16196 SI 16196 SI SI1 16196 1.100000 28.08600
16197 SI 16197 SI SI1 16197 1.100000 28.08600
16198 SI 16198 SI SI1 16198 1.100000 28.08600
16199 SI 16199 SI SI1 16199 1.100000 28.08600
16200 SI 16200 SI SI1 16200 1.100000 28.08600
16201 SI 16201 SI SI1 16201 1.100000 28.08600
16202 SI 16202 SI SI1 16202 1.100000 28.08600
16203 SI 16203 SI SI1 16203 1.100000 28.08600
16204 SI 16204 SI SI1 16204 1.100000 28.08600
16205 SI 16205 SI SI1 16205 1.100000 28.08600
16206 SI 16206 SI SI1 16206 1.100000 28.08600
16207 SI 16207 SI SI1 16207 1.100000 28.08600
16208 SI 16208 SI SI1 16208 1.100000 28.08600
16209 SI 16209 SI SI1 16209 1.100000 28.08600
16210 SI 16210 SI SI1 16210 1.100000 28.08600
16211 SI 16211 SI SI1 16211 1.100000 28.08600
16212 SI 16212 SI SI1 16212 1.100000 28.08600
16213 SI 16213 SI SI1 16213 1.100000 28.08600
16214 SI 16214 SI SI1 16214 1.100000 28.08600
16215 SI 16215 SI SI1 16215 1.100000 28.08600
16216 SI 16216 SI SI1 16216 1.100000 28.08600
16217 SI 16217 SI SI1 16217 1.100000 28.08600
16218 SI 16218 SI SI1 16218 1.100000 28.08600
16219 SI 16219 SI SI1 16219 1.100000 28.08600
16220 SI 16220 SI SI1 16220 1.100000 28.08600
16221 SI 16221 SI SI1 16221 1.100000 28.08600
16222 SI 16222 SI SI1 16222 1.100000 28.08600
16223 SI 16223 SI SI1 16223 1.100000 28.08600
16224 SI 16224 SI SI1 16224 1.100000 28.08600
16225 SI 16225 SI SI1 16225 1.100000 28.08600
16226 SI 16226 SI SI1 16226 1.100000 28.08600
16227 SI 16227 SI SI1 16227 1.100000 28.08600
16228 SI 16228 SI SI1 16228 1.100000 28.08600
16229 SI 16229 SI SI1 16229 1.100000 28.08600
16230 SI 16230 SI SI1 16230 1.100000 28.08600
16231 SI 16231 SI SI1 16231 1.100000 28.08600
16232 SI 16232 SI SI1 16232 1.100000 28.08600
16233 SI 16233 SI SI1 16233 1.100000 28.08600
16234 SI 16234 SI SI1 16234 1.100000 28.08600
16235 SI 16235 SI SI1 16235 1.100000 28.08600
16236 SI 16236 SI SI1 16236 1.100000 28.08600
16237 SI 16237 SI SI1 16237 1.100000 28.08600
16238 SI 16238 SI SI1 16238 1.100000 28.08600
16239 SI 16239 SI SI1 16239 1.100000 28.08600
16240 SI 16240 SI SI1 16240 1.100000 28.08600
16241 SI 16241 SI SI1 16241 1.100000 28.08600
16242 SI 16242 SI SI1 16242 1.100000 28.08600
16243 SI 16243 SI SI1 16243 1.100000 28.08600
16244 SI 16244 SI SI1 16244 1.100000 28.08600
16245 SI 16245 SI SI1 16245 1.100000 28.08600
16246 SI 16246 SI SI1 16246 1.100000 28.08600
16247 SI 16247 SI SI1 16247 1.100000 28.08600
16248 SI 16248 SI SI1 16248 1.100000 28.08600
16249 SI 16249 SI SI1 16249 1.100000 28.08600
16250 SI 16250 SI SI1 16250 1.100000 28.08600
16251 SI 16251 SI SI1 16251 1.100000 28.08600
16252 SI 16252 SI SI1 16252 1.100000 28.08600
16253 SI 16253 SI SI1 16253 1.100000 28.08600
16254 SI 16254 SI SI1 16254 1.100000 28.08600
16255 SI 16255 SI SI1 16255 1.100000 28.08600
16256 SI 16256 SI SI1 16256 1.100000 28.08600
16257 SI 16257 SI SI1 16257 1.100000 28.08600
16258 SI 16258 SI SI1 16258 1.100000 28.08600
16259 SI 16259 SI SI1 16259 1.100000 28.08600
16260 SI 16260 SI SI1 16260 1.100000 28.08600
16261 SI 16261 SI SI1 16261 1.100000 28.08600
16262 SI 16262 SI SI1 16262 1.100000 28.08600
16263 SI 16263 SI SI1 16263 1.100000 28.08600
16264 SI 16264 SI SI1 16264 1.100000 28.08600
16265 SI 16265 SI SI1 16265 1.100000 28.08600
16266 SI 16266 SI SI1 16266 1.100000 28.08600
16267 SI 16267 SI SI1 16267 1.100000 28.08600
16268 SI 16268 SI SI1 16268 1.100000 28.08600
16269 SI 16269 SI SI1 16269 1.100000 28.08600
16270 SI 16270 SI SI1 16270 1.100000 28.08600
16271 SI 16271 SI SI1 16271 1.100000 28.08600
16272 SI 16272 SI SI1 16272 1.100000 28.08600
16273 SI 16273 SI SI1 16273 1.100000 28.08600
16274 SI 16274 SI SI1 16274 1.100000 28.08600
16275 SI 16275 SI SI1 16275 1.100000 28.08600
16276 SI 16276 SI SI1 16276 1.100000 28.08600
16277 SI 16277 SI SI1 16277 1.100000 28.08600
16278 SI 16278 SI SI1 16278 1.100000 28.08600
16279 SI 16279 SI SI1 16279 1.100000 28.08600
16280 SI 16280 SI SI1 16280 1.100000 28.08600
16281 SI 16281 SI SI1 16281 1.100000 28.08600
16282 SI 16282 SI SI1 16282 1.100000 28.08600
16283 SI 16283 SI SI1 16283 1.100000 28.08600
16284 SI 16284 SI SI1 16284 1.100000 28.08600
16285 SI 16285 SI SI1 16285 1.100000 28.08600
16286 SI 16286 SI SI1 16286 1.100000 28.08600
16287 SI 16287 SI SI1 16287 1.100000 28.08600
16288 SI 16288 SI SI1 16288 1.100000 28.08600
16289 SI 16289 SI SI1 16289 1.100000 28.08600
16290 SI 16290 SI SI1 16290 1.100000 28.08600
16291 SI 16291 SI SI1 16291 1.100000 28.08600
16292 SI 16292 SI SI1 16292 1.100000 28.08600
16293 SI 16293 SI SI1 16293 1.100000 28.08600
16294 SI 16294 SI SI1 16294 1.100000 28.08600
16295 SI 16295 SI SI1 16295 1.100000 28.08600
16296 SI 16296 SI SI1 16296 1.100000 28.08600
16297 SI 16297 SI SI1 16297 1.100000 28.08600
16298 SI 16298 SI SI1 16298 1.100000 28.08600
16299 SI 16299 SI SI1 16299 1.100000 28.08600
16300 SI 16300 SI SI1 16300 1.100000 28.08600
16301 SI 16301 SI SI1 16301 1.100000 28.08600
16302 SI 16302 SI SI1 16302 1.100000 28.08600
16303 SI 16303 SI SI1 16303 1.100000 28.08600
16304 SI 16304 SI SI1 16304 1.100000 28.08600
16305 SI 16305 SI SI1 16305 1.100000 28.08600
16306 SI 16306 SI SI1 16306 1.100000 28.08600
16307 SI 16307 SI SI1 16307 1.100000 28.08600
16308 SI 16308 SI SI1 16308 1.100000 28.08600
16309 SI 16309 SI SI1 16309 1.100000 28.08600
16310 SI 16310 SI SI1 16310 1.100000 28.08600
16311 SI 16311 SI SI1 16311 1.100000 28.08600
16312 SI 16312 SI SI1 16312 1.100000 28.08600
16313 SI 16313 SI SI1 16313 1.100000 28.08600
16314 SI 16314 SI SI1 16314 1.100000 28.08600
16315 SI 16315 SI SI1 16315 1.100000 28.08600
16316 SI 16316 SI SI1 16316 1.100000 28.08600
16317 SI 16317 SI SI1 16317 1.100000 28.08600
16318 SI 16318 SI SI1 16318 1.100000 28.08600
16319 SI 16319 SI SI1 16319 1.100000 28.08600
16320 SI 16320 SI SI1 16320 1.100000 28.08600
16321 SI 16321 SI SI1 16321 1.100000 28.08600
16322 SI 16322 SI SI1 16322 1.100000 28.08600
16323 SI 16323 SI SI1 16323 1.100000 28.08600
16324 SI 16324 SI SI1 16324 1.100000 28.08600
16325 SI 16325 SI SI1 16325 1.100000 28.08600
16326 SI 16326 SI SI1 16326 1.100000 28.08600
16327 SI 16327 SI SI1 16327 1.100000 28.08600
16328 SI 16328 SI SI1 16328 1.100000 28.08600
16329 SI 16329 SI SI1 16329 1.100000 28.08600
16330 SI 16330 SI SI1 16330 1.100000 28.08600
16331 SI 16331 SI SI1 16331 1.100000 28.08600
16332 SI 16332 SI SI1 16332 1.100000 28.08600
16333 SI 16333 SI SI1 16333 1.100000 28.08600
16334 SI 16334 SI SI1 16334 1.100000 28.08600
16335 SI 16335 SI SI1 16335 1.100000 28.08600
16336 SI 16336 SI SI1 16336 1.100000 28.08600
16337 SI 16337 SI SI1 16337 1.100000 28.08600
16338 SI 16338 SI SI1 16338 1.100000 28.08600
16339 SI 16339 SI SI1 16339 1.100000 28.08600
16340 SI 16340 SI SI1 16340 1.100000 28.08600
16341 SI 16341 SI SI1 16341 1.100000 28.08600
16342 SI 16342 SI SI1 16342 1.100000 28.08600
16343 SI 16343 SI SI1 16343 1.100000 28.08600
16344 SI 16344 SI SI1 16344 1.100000 28.08600
16345 SI 16345 SI SI1 16345 1.100000 28.08600
16346 SI 16346 SI SI1 16346 1.100000 28.08600
16347 SI 16347 SI SI1 16347 1.100000 28.08600
16348 SI 16348 SI SI1 16348 1.100000 28.08600
16349 SI 16349 SI SI1 16349 1.100000 28.08600
16350 SI 16350 SI SI1 16350 1.100000 28.08600
16351 SI 16351 SI SI1 16351 1.100000 28.08600
16352 SI 16352 SI SI1 16352 1.100000 28.08600
16353 SI 16353 SI SI1 16353 1.100000 28.08600
16354 SI 16354 SI SI1 16354 1.100000 28.08600
16355 SI 16355 SI SI1 16355 1.100000 28.08600
16356 SI 16356 SI SI1 16356 1.100000 28.08600
16357 SI 16357 SI SI1 16357 1.100000 28.08600
16358 SI 16358 SI SI1 16358 1.100000 28.08600
16359 SI 16359 SI SI1 16359 1.100000 28.08600
16360 SI 16360 SI SI1 16360 1.100000 28.08600
16361 SI 16361 SI SI1 16361 1.100000 28.08600
16362 SI 16362 SI SI1 16362 1.100000 28.08600
16363 SI 16363 SI SI1 16363 1.100000 28.08600
16364 SI 16364 SI SI1 16364 1.100000 28.08600
16365 SI 16365 SI SI1 16365 1.100000 28.08600
16366 SI 16366 SI SI1 16366 1.100000 28.08600
16367 SI 16367 SI SI1 16367 1.100000 28.08600
16368 SI 16368 SI SI1 16368 1.100000 28.08600
16369 SI 16369 SI SI1 16369 1.100000 28.08600
16370 SI 16370 SI SI1 16370 1.100000 28.08600
16371 SI 16371 SI SI1 16371 1.100000 28.08600
16372 SI 16372 SI SI1 16372 1.100000 28.08600
16373 SI 16373 SI SI1 16373 1.100000 28.08600
16374 SI 16374 SI SI1 16374 1.100000 28.08600
16375 SI 16375 SI SI1 16375 1.100000 28.08600
16376 SI 16376 SI SI1 16376 1.100000 28.08600
16377 SI 16377 SI SI1 16377 1.100000 28.08600
16378 SI 16378 SI SI1 16378 1.100000 28.08600
16379 SI 16379 SI SI1 16379 1.100000 28.08600
16380 SI 16380 SI SI1 16380 1.100000 28.08600
16381 SI 16381 SI SI1 16381 1.100000 28.08600
16382 SI 16382 SI SI1 16382 1.100000 28.08600
16383 SI 16383 SI SI1 16383 1.100000 28.08600
16384 SI 16384 SI SI1 16384 1.100000 28.08600
16385 SI 16385 SI SI1 16385 1.100000 28.08600
16386 SI 16386 SI SI1 16386 1.100000 28.08600
16387 SI 16387 SI SI1 16387 1.100000 28.08600
16388 SI 16388 SI SI1 16388 1.100000 28.08600
16389 SI 16389 SI SI1 16389 1.100000 28.08600
16390 SI 16390 SI SI1 16390 1.100000 28.08600
16391 SI 16391 SI SI1 16391 1.100000 28.08600
16392 SI 16392 SI SI1 16392 1.100000 28.08600
16393 SI 16393 SI SI1 16393 1.100000 28.08600
16394 SI 16394 SI SI1 16394 1.100000 28.08600
16395 SI 16395 SI SI1 16395 1.100000 28.08600
16396 SI 16396 SI SI1 16396 1.100000 28.08600
16397 SI 16397 SI SI1 16397 1.100000 28.08600
16398 SI 16398 SI SI1 16398 1.100000 28.08600
16399 SI 16399 SI SI1 16399 1.100000 28.08600
16400 SI 16400 SI SI1 16400 1.100000 28.08600
16401 SI 16401 SI SI1 16401 1.100000 28.08600
16402 SI 16402 SI SI1 16402 1.100000 28.08600
16403 SI 16403 SI SI1 16403 1.100000 28.08600
16404 SI 16404 SI SI1 16404 1.100000 28.08600
16405 SI 16405 SI SI1 16405 1.100000 28.08600
16406 SI 16406 SI SI1 16406 1.100000 28.08600
16407 SI 16407 SI SI1 16407 1.100000 28.08600
16408 SI 16408 SI SI1 16408 1.100000 28.08600
16409 SI 16409 SI SI1 16409 1.100000 28.08600
16410 SI 16410 SI SI1 16410 1.100000 28.08600
16411 SI 16411 SI SI1 16411 1.100000 28.08600
16412 SI 16412 SI SI1 16412 1.100000 28.08600
16413 SI 16413 SI SI1 16413 1.100000 28.08600
16414 SI 16414 SI SI1 16414 1.100000 28.08600
16415 SI 16415 SI SI1 16415 1.100000 28.08600
16416 SI 16416 SI SI1 16416 1.100000 28.08600
16417 SI 16417 SI SI1 16417 1.100000 28.08600
16418 SI 16418 SI SI1 16418 1.100000 28.08600
16419 SI 16419 SI SI1 16419 1.100000 28.08600
16420 SI 16420 SI SI1 16420 1.100000 28.08600
16421 SI 16421 SI SI1 16421 1.100000 28.08600
16422 SI 16422 SI SI1 16422 1.100000 28.08600
16423 SI 16423 SI SI1 16423 1.100000 28.08600
16424 SI 16424 SI SI1 16424 1.100000 28.08600
16425 SI 16425 SI SI1 16425 1.100000 28.08600
16426 SI 16426 SI SI1 16426 1.100000 28.08600
16427 SI 16427 SI SI1 16427 1.100000 28.08600
16428 SI 16428 SI SI1 16428 1.100000 28.08600
16429 SI 16429 SI SI1 16429 1.100000 28.08600
16430 SI 16430 SI SI1 16430 1.100000 28.08600
16431 SI 16431 SI SI1 16431 1.100000 28.08600
16432 SI 16432 SI SI1 16432 1.100000 28.08600
16433 SI 16433 SI SI1 16433 1.100000 28.08600
16434 SI 16434 SI SI1 16434 1.100000 28.08600
16435 SI 16435 SI SI1 16435 1.100000 28.08600
16436 SI 16436 SI SI1 16436 1.100000 28.08600
16437 SI 16437 SI SI1 16437 1.100000 28.08600
16438 SI 16438 SI SI1 16438 1.100000 28.08600
16439 SI 16439 SI SI1 16439 1.100000 28.08600
16440 SI 16440 SI SI1 16440 1.100000 28.08600
16441 SI 16441 SI SI1 16441 1.100000 28.08600
16442 SI 16442 SI SI1 16442 1.100000 28.08600
16443 SI 16443 SI SI1 16443 1.100000 28.08600
16444 SI 16444 SI SI1 16444 1.100000 28.08600
16445 SI 16445 SI SI1 16445 1.100000 28.08600
16446 SI 16446 SI SI1 16446 1.100000 28.08600
16447 SI 16447 SI SI1 16447 1.100000 28.08600
16448 SI 16448 SI SI1 16448 1.100000 28.08600
16449 SI 16449 SI SI1 16449 1.100000 28.08600
16450 SI 16450 SI SI1 16450 1.100000 28.08600
16451 SI 16451 SI SI1 16451 1.100000 28.08600
16452 SI 16452 SI SI1 16452 1.100000 28.08600
16453 SI 16453 SI SI1 16453 1.100000 28.08600
16454 SI 16454 SI SI1 16454 1.100000 28.08600
16455 SI 16455 SI SI1 16455 1.100000 28.08600
16456 SI 16456 SI SI1 16456 1.100000 28.08600
16457 SI 16457 SI SI1 16457 1.100000 28.08600
16458 SI 16458 SI SI1 16458 1.100000 28.08600
16459 SI 16459 SI SI1 16459 1.100000 28.08600
16460 SI 16460 SI SI1 16460 1.100000 28.08600
16461 SI 16461 SI SI1 16461 1.100000 28.08600
16462 SI 16462 SI SI1 16462 1.100000 28.08600
16463 SI 16463 SI SI1 16463 1.100000 28.08600
16464 SI 16464 SI SI1 16464 1.100000 28.08600
16465 SI 16465 SI SI1 16465 1.100000 28.08600
16466 SI 16466 SI SI1 16466 1.100000 28.08600
16467 SI 16467 SI SI1 16467 1.100000 28.08600
16468 SI 16468 SI SI1 16468 1.100000 28.08600
16469 SI 16469 SI SI1 16469 1.100000 28.08600
16470 SI 16470 SI SI1 16470 1.100000 28.08600
16471 SI 16471 SI SI1 16471 1.100000 28.08600
16472 SI 16472 SI SI1 16472 1.100000 28.08600
16473 SI 16473 SI SI1 16473 1.100000 28.08600
16474 SI 16474 SI SI1 16474 1.100000 28.08600
16475 SI 16475 SI SI1 16475 1.100000 28.08600
16476 SI 16476 SI SI1 16476 1.100000 28.08600
16477 SI 16477 SI SI1 16477 1.100000 28.08600
16478 SI 16478 SI SI1 16478 1.100000 28.08600
16479 SI 16479 SI SI1 16479 1.100000 28.08600
16480 SI 16480 SI SI1 16480 1.100000 28.08600
16481 SI 16481 SI SI1 16481 1.100000 28.08600
16482 SI 16482 SI SI1 16482 1.100000 28.08600
16483 SI 16483 SI SI1 16483 1.100000 28.08600
16484 SI 16484 SI SI1 16484 1.100000 28.08600
16485 SI 16485 SI SI1 16485 1.100000 28.08600
16486 SI 16486 SI SI1 16486 1.100000 28.08600
16487 SI 16487 SI SI1 16487 1.100000 28.08600
16488 SI 16488 SI SI1 16488 1.100000 28.08600
16489 SI 16489 SI SI1 16489 1.100000 28.08600
16490 SI 16490 SI SI1 16490 1.100000 28.08600
16491 SI 16491 SI SI1 16491 1.100000 28.08600
16492 SI 16492 SI SI1 16492 1.100000 28.08600
16493 SI 16493 SI SI1 16493 1.100000 28.08600
16494 SI 16494 SI SI1 16494 1.100000 28.08600
16495 SI 16495 SI SI1 16495 1.100000 28.08600
16496 SI 16496 SI SI1 16496 1.100000 28.08600
16497 SI 16497 SI SI1 16497 1.100000 28.08600
16498 SI 16498 SI SI1 16498 1.100000 28.08600
16499 SI 16499 SI SI1 16499 1.100000 28.08600
16500 SI 16500 SI SI1 16500 1.100000 28.08600
16501 SI 16501 SI SI1 16501 1.100000 28.08600
16502 SI 16502 SI SI1 16502 1.100000 28.08600
16503 SI 16503 SI SI1 16503 1.100000 28.08600
16504 SI 16504 SI SI1 16504 1.100000 28.08600
16505 SI 16505 SI SI1 16505 1.100000 28.08600
16506 SI 16506 SI SI1 16506 1.100000 28.08600
16507 SI 16507 SI SI1 16507 1.100000 28.08600
16508 SI 16508 SI SI1 16508 1.100000 28.08600
16509 SI 16509 SI SI1 16509 1.100000 28.08600
16510 SI 16510 SI SI1 16510 1.100000 28.08600
16511 SI 16511 SI SI1 16511 1.100000 28.08600
16512 SI 16512 SI SI1 16512 1.100000 28.08600
16513 SI 16513 SI SI1 16513 1.100000 28.08600
16514 SI 16514 SI SI1 16514 1.100000 28.08600
16515 SI 16515 SI SI1 16515 1.100000 28.08600
16516 SI 16516 SI SI1 16516 1.100000 28.08600
16517 SI 16517 SI SI1 16517 1.100000 28.08600
16518 SI 16518 SI SI1 16518 1.100000 28.08600
16519 SI 16519 SI SI1 16519 1.100000 28.08600
16520 SI 16520 SI SI1 16520 1.100000 28.08600
16521 SI 16521 SI SI1 16521 1.100000 28.08600
16522 SI 16522 SI SI1 16522 1.100000 28.08600
16523 SI 16523 SI SI1 16523 1.100000 28.08600
16524 SI 16524 SI SI1 16524 1.100000 28.08600
16525 SI 16525 SI SI1 16525 1.100000 28.08600
16526 SI 16526 SI SI1 16526 1.100000 28.08600
16527 SI 16527 SI SI1 16527 1.100000 28.08600
16528 SI 16528 SI SI1 16528 1.100000 28.08600
16529 SI 16529 SI SI1 16529 1.100000 28.08600
16530 SI 16530 SI SI1 16530 1.100000 28.08600
16531 SI 16531 SI SI1 16531 1.100000 28.08600
16532 SI 16532 SI SI1 16532 1.100000 28.08600
16533 SI 16533 SI SI1 16533 1.100000 28.08600
16534 SI 16534 SI SI1 16534 1.100000 28.08600
16535 SI 16535 SI SI1 16535 1.100000 28.08600
16536 SI 16536 SI SI1 16536 1.100000 28.08600
16537 SI 16537 SI SI1 16537 1.100000 28.08600
16538 SI 16538 SI SI1 16538 1.100000 28.08600
16539 SI 16539 SI SI1 16539 1.100000 28.08600
16540 SI 16540 SI SI1 16540 1.100000 28.08600
16541 SI 16541 SI SI1 16541 1.100000 28.08600
16542 SI 16542 SI SI1 16542 1.100000 28.08600
16543 SI 16543 SI SI1 16543 1.100000 28.08600
16544 SI 16544 SI SI1 16544 1.100000 28.08600
16545 SI 16545 SI SI1 16545 1.100000 28.08600
16546 SI 16546 SI SI1 16546 1.100000 28.08600
16547 SI 16547 SI SI1 16547 1.100000 28.08600
16548 SI 16548 SI SI1 16548 1.100000 28.08600
16549 SI 16549 SI SI1 16549 1.100000 28.08600
16550 SI 16550 SI SI1 16550 1.100000 28.08600
16551 SI 16551 SI SI1 16551 1.100000 28.08600
16552 SI 16552 SI SI1 16552 1.100000 28.08600
16553 SI 16553 SI SI1 16553 1.100000 28.08600
16554 SI 16554 SI SI1 16554 1.100000 28.08600
16555 SI 16555 SI SI1 16555 1.100000 28.08600
16556 SI 16556 SI SI1 16556 1.100000 28.08600
16557 SI 16557 SI SI1 16557 1.100000 28.08600
16558 SI 16558 SI SI1 16558 1.100000 28.08600
16559 SI 16559 SI SI1 16559 1.100000 28.08600
16560 SI 16560 SI SI1 16560 1.100000 28.08600
16561 SI 16561 SI SI1 16561 1.100000 28.08600
16562 SI 16562 SI SI1 16562 1.100000 28.08600
16563 SI 16563 SI SI1 16563 1.100000 28.08600
16564 SI 16564 SI SI1 16564 1.100000 28.08600
16565 SI 16565 SI SI1 16565 1.100000 28.08600
16566 SI 16566 SI SI1 16566 1.100000 28.08600
16567 SI 16567 SI SI1 16567 1.100000 28.08600
16568 SI 16568 SI SI1 16568 1.100000 28.08600
16569 SI 16569 SI SI1 16569 1.100000 28.08600
16570 SI 16570 SI SI1 16570 1.100000 28.08600
16571 SI 16571 SI SI1 16571 1.100000 28.08600
16572 SI 16572 SI SI1 16572 1.100000 28.08600
16573 SI 16573 SI SI1 16573 1.100000 28.08600
16574 SI 16574 SI SI1 16574 1.100000 28.08600
16575 SI 16575 SI SI1 16575 1.100000 28.08600
16576 SI 16576 SI SI1 16576 1.100000 28.08600
16577 SI 16577 SI SI1 16577 1.100000 28.08600
16578 SI 16578 SI SI1 16578 1.100000 28.08600
16579 SI 16579 SI SI1 16579 1.100000 28.08600
16580 SI 16580 SI SI1 16580 1.100000 28.08600
16581 SI 16581 SI SI1 16581 1.100000 28.08600
16582 SI 16582 SI SI1 16582 1.100000 28.08600
16583 SI 16583 SI SI1 16583 1.100000 28.08600
16584 SI 16584 SI SI1 16584 1.100000 28.08600
16585 SI 16585 SI SI1 16585 1.100000 28.08600
16586 SI 16586 SI SI1 16586 1.100000 28.08600
16587 SI 16587 SI SI1 16587 1.100000 28.08600
16588 SI 16588 SI SI1 16588 1.100000 28.08600
16589 SI 16589 SI SI1 16589 1.100000 28.08600
16590 SI 16590 SI SI1 16590 1.100000 28.08600
16591 SI 16591 SI SI1 16591 1.100000 28.08600
16592 SI 16592 SI SI1 16592 1.100000 28.08600
16593 SI 16593 SI SI1 16593 1.100000 28.08600
16594 SI 16594 SI SI1 16594 1.100000 28.08600
16595 SI 16595 SI SI1 16595 1.100000 28.08600
16596 SI 16596 SI SI1 16596 1.100000 28.08600
16597 SI 16597 SI SI1 16597 1.100000 28.08600
16598 SI 16598 SI SI1 16598 1.100000 28.08600
16599 SI 16599 SI SI1 16599 1.100000 28.08600
16600 SI 16600 SI SI1 16600 1.100000 28.08600
16601 SI 16601 SI SI1 16601 1.100000 28.08600
16602 SI 16602 SI SI1 16602 1.100000 28.08600
16603 SI 16603 SI SI1 16603 1.100000 28.08600
16604 SI 16604 SI SI1 16604 1.100000 28.08600
16605 SI 16605 SI SI1 16605 1.100000 28.08600
16606 SI 16606 SI SI1 16606 1.100000 28.08600
16607 SI 16607 SI SI1 16607 1.100000 28.08600
16608 SI 16608 SI SI1 16608 1.100000 28.08600
16609 SI 16609 SI SI1 16609 1.100000 28.08600
16610 SI 16610 SI SI1 16610 1.100000 28.08600
16611 SI 16611 SI SI1 16611 1.100000 28.08600
16612 SI 16612 SI SI1 16612 1.100000 28.08600
16613 SI 16613 SI SI1 16613 1.100000 28.08600
16614 SI 16614 SI SI1 16614 1.100000 28.08600
16615 SI 16615 SI SI1 16615 1.100000 28.08600
16616 SI 16616 SI SI1 16616 1.100000 28.08600
16617 SI 16617 SI SI1 16617 1.100000 28.08600
16618 SI 16618 SI SI1 16618 1.100000 28.08600
16619 SI 16619 SI SI1 16619 1.100000 28.08600
16620 SI 16620 SI SI1 16620 1.100000 28.08600
16621 SI 16621 SI SI1 16621 1.100000 28.08600
16622 SI 16622 SI SI1 16622 1.100000 28.08600
16623 SI 16623 SI SI1 16623 1.100000 28.08600
16624 SI 16624 SI SI1 16624 1.100000 28.08600
16625 SI 16625 SI SI1 16625 1.100000 28.08600
16626 SI 16626 SI SI1 16626 1.100000 28.08600
16627 SI 16627 SI SI1 16627 1.100000 28.08600
16628 SI 16628 SI SI1 16628 1.100000 28.08600
16629 SI 16629 SI SI1 16629 1.100000 28.08600
16630 SI 16630 SI SI1 16630 1.100000 28.08600
16631 SI 16631 SI SI1 16631 1.100000 28.08600
16632 SI 16632 SI SI1 16632 1.100000 28.08600
16633 SI 16633 SI SI1 16633 1.100000 28.08600
16634 SI 16634 SI SI1 16634 1.100000 28.08600
16635 SI 16635 SI SI1 16635 1.100000 28.08600
16636 SI 16636 SI SI1 16636 1.100000 28.08600
16637 SI 16637 SI SI1 16637 1.100000 28.08600
16638 SI 16638 SI SI1 16638 1.100000 28.08600
16639 SI 16639 SI SI1 16639 1.100000 28.08600
16640 SI 16640 SI SI1 16640 1.100000 28.08600
16641 SI 16641 SI SI1 16641 1.100000 28.08600
16642 SI 16642 SI SI1 16642 1.100000 28.08600
16643 SI 16643 SI SI1 16643 1.100000 28.08600
16644 SI 16644 SI SI1 16644 1.100000 28.08600
16645 SI 16645 SI SI1 16645 1.100000 28.08600
16646 SI 16646 SI SI1 16646 1.100000 28.08600
16647 SI 16647 SI SI1 16647 1.100000 28.08600
16648 SI 16648 SI SI1 16648 1.100000 28.08600
16649 SI 16649 SI SI1 16649 1.100000 28.08600
16650 SI 16650 SI SI1 16650 1.100000 28.08600
16651 SI 16651 SI SI1 16651 1.100000 28.08600
16652 SI 16652 SI SI1 16652 1.100000 28.08600
16653 SI 16653 SI SI1 16653 1.100000 28.08600
16654 SI 16654 SI SI1 16654 1.100000 28.08600
16655 SI 16655 SI SI1 16655 1.100000 28.08600
16656 SI 16656 SI SI1 16656 1.100000 28.08600
16657 SI 16657 SI SI1 16657 1.100000 28.08600
16658 SI 16658 SI SI1 16658 1.100000 28.08600
16659 SI 16659 SI SI1 16659 1.100000 28.08600
16660 SI 16660 SI SI1 16660 1.100000 28.08600
16661 SI 16661 SI SI1 16661 1.100000 28.08600
16662 SI 16662 SI SI1 16662 1.100000 28.08600
16663 SI 16663 SI SI1 16663 1.100000 28.08600
16664 SI 16664 SI SI1 16664 1.100000 28.08600
16665 SI 16665 SI SI1 16665 1.100000 28.08600
16666 SI 16666 SI SI1 16666 1.100000 28.08600
16667 SI 16667 SI SI1 16667 1.100000 28.08600
16668 SI 16668 SI SI1 16668 1.100000 28.08600
16669 SI 16669 SI SI1 16669 1.100000 28.08600
16670 SI 16670 SI SI1 16670 1.100000 28.08600
16671 SI 16671 SI SI1 16671 1.100000 28.08600
16672 SI 16672 SI SI1 16672 1.100000 28.08600
16673 SI 16673 SI SI1 16673 1.100000 28.08600
16674 SI 16674 SI SI1 16674 1.100000 28.08600
16675 SI 16675 SI SI1 16675 1.100000 28.08600
16676 SI 16676 SI SI1 16676 1.100000 28.08600
16677 SI 16677 SI SI1 16677 1.100000 28.08600
16678 SI 16678 SI SI1 16678 1.100000 28.08600
16679 SI 16679 SI SI1 16679 1.100000 28.08600
16680 SI 16680 SI SI1 16680 1.100000 28.08600
16681 SI 16681 SI SI1 16681 1.100000 28.08600
16682 SI 16682 SI SI1 16682 1.100000 28.08600
16683 SI 16683 SI SI1 16683 1.100000 28.08600
16684 SI 16684 SI SI1 16684 1.100000 28.08600
16685 SI 16685 SI SI1 16685 1.100000 28.08600
16686 SI 16686 SI SI1 16686 1.100000 28.08600
16687 SI 16687 SI SI1 16687 1.100000 28.08600
16688 SI 16688 SI SI1 16688 1.100000 28.08600
16689 SI 16689 SI SI1 16689 1.100000 28.08600
16690 SI 16690 SI SI1 16690 1.100000 28.08600
16691 SI 16691 SI SI1 16691 1.100000 28.08600
16692 SI 16692 SI SI1 16692 1.100000 28.08600
16693 SI 16693 SI SI1 16693 1.100000 28.08600
16694 SI 16694 SI SI1 16694 1.100000 28.08600
16695 SI 16695 SI SI1 16695 1.100000 28.08600
16696 SI 16696 SI SI1 16696 1.100000 28.08600
16697 SI 16697 SI SI1 16697 1.100000 28.08600
16698 SI 16698 SI SI1 16698 1.100000 28.08600
16699 SI 16699 SI SI1 16699 1.100000 28.08600
16700 SI 16700 SI SI1 16700 1.100000 28.08600
16701 SI 16701 SI SI1 16701 1.100000 28.08600
16702 SI 16702 SI SI1 16702 1.100000 28.08600
16703 SI 16703 SI SI1 16703 1.100000 28.08600
16704 SI 16704 SI SI1 16704 1.100000 28.08600
16705 SI 16705 SI SI1 16705 1.100000 28.08600
16706 SI 16706 SI SI1 16706 1.100000 28.08600
16707 SI 16707 SI SI1 16707 1.100000 28.08600
16708 SI 16708 SI SI1 16708 1.100000 28.08600
16709 SI 16709 SI SI1 16709 1.100000 28.08600
16710 SI 16710 SI SI1 16710 1.100000 28.08600
16711 SI 16711 SI SI1 16711 1.100000 28.08600
16712 SI 16712 SI SI1 16712 1.100000 28.08600
16713 SI 16713 SI SI1 16713 1.100000 28.08600
16714 SI 16714 SI SI1 16714 1.100000 28.08600
16715 SI 16715 SI SI1 16715 1.100000 28.08600
16716 SI 16716 SI SI1 16716 1.100000 28.08600
16717 SI 16717 SI SI1 16717 1.100000 28.08600
16718 SI 16718 SI SI1 16718 1.100000 28.08600
16719 SI 16719 SI SI1 16719 1.100000 28.08600
16720 SI 16720 SI SI1 16720 1.100000 28.08600
16721 SI 16721 SI SI1 16721 1.100000 28.08600
16722 SI 16722 SI SI1 16722 1.100000 28.08600
16723 SI 16723 SI SI1 16723 1.100000 28.08600
16724 SI 16724 SI SI1 16724 1.100000 28.08600
16725 SI 16725 SI SI1 16725 1.100000 28.08600
16726 SI 16726 SI SI1 16726 1.100000 28.08600
16727 SI 16727 SI SI1 16727 1.100000 28.08600
16728 SI 16728 SI SI1 16728 1.100000 28.08600
16729 SI 16729 SI SI1 16729 1.100000 28.08600
16730 SI 16730 SI SI1 16730 1.100000 28.08600
16731 SI 16731 SI SI1 16731 1.100000 28.08600
16732 SI 16732 SI SI1 16732 1.100000 28.08600
16733 SI 16733 SI SI1 16733 1.100000 28.08600
16734 SI 16734 SI SI1 16734 1.100000 28.08600
16735 SI 16735 SI SI1 16735 1.100000 28.08600
16736 SI 16736 SI SI1 16736 1.100000 28.08600
16737 SI 16737 SI SI1 16737 1.100000 28.08600
16738 SI 16738 SI SI1 16738 1.100000 28.08600
16739 SI 16739 SI SI1 16739 1.100000 28.08600
16740 SI 16740 SI SI1 16740 1.100000 28.08600
16741 SI 16741 SI SI1 16741 1.100000 28.08600
16742 SI 16742 SI SI1 16742 1.100000 28.08600
16743 SI 16743 SI SI1 16743 1.100000 28.08600
16744 SI 16744 SI SI1 16744 1.100000 28.08600
16745 SI 16745 SI SI1 16745 1.100000 28.08600
16746 SI 16746 SI SI1 16746 1.100000 28.08600
16747 SI 16747 SI SI1 16747 1.100000 28.08600
16748 SI 16748 SI SI1 16748 1.100000 28.08600
16749 SI 16749 SI SI1 16749 1.100000 28.08600
16750 SI 16750 SI SI1 16750 1.100000 28.08600
16751 SI 16751 SI SI1 16751 1.100000 28.08600
16752 SI 16752 SI SI1 16752 1.100000 28.08600
16753 SI 16753 SI SI1 16753 1.100000 28.08600
16754 SI 16754 SI SI1 16754 1.100000 28.08600
16755 SI 16755 SI SI1 16755 1.100000 28.08600
16756 SI 16756 SI SI1 16756 1.100000 28.08600
16757 SI 16757 SI SI1 16757 1.100000 28.08600
16758 SI 16758 SI SI1 16758 1.100000 28.08600
16759 SI 16759 SI SI1 16759 1.100000 28.08600
16760 SI 16760 SI SI1 16760 1.100000 28.08600
16761 SI 16761 SI SI1 16761 1.100000 28.08600
16762 SI 16762 SI SI1 16762 1.100000 28.08600
16763 SI 16763 SI SI1 16763 1.100000 28.08600
16764 SI 16764 SI SI1 16764 1.100000 28.08600
16765 SI 16765 SI SI1 16765 1.100000 28.08600
16766 SI 16766 SI SI1 16766 1.100000 28.08600
16767 SI 16767 SI SI1 16767 1.100000 28.08600
16768 SI 16768 SI SI1 16768 1.100000 28.08600
16769 SI 16769 SI SI1 16769 1.100000 28.08600
16770 SI 16770 SI SI1 16770 1.100000 28.08600
16771 SI 16771 SI SI1 16771 1.100000 28.08600
16772 SI 16772 SI SI1 16772 1.100000 28.08600
16773 SI 16773 SI SI1 16773 1.100000 28.08600
16774 SI 16774 SI SI1 16774 1.100000 28.08600
16775 SI 16775 SI SI1 16775 1.100000 28.08600
16776 SI 16776 SI SI1 16776 1.100000 28.08600
16777 SI 16777 SI SI1 16777 1.100000 28.08600
16778 SI 16778 SI SI1 16778 1.100000 28.08600
16779 SI 16779 SI SI1 16779 1.100000 28.08600
16780 SI 16780 SI SI1 16780 1.100000 28.08600
16781 SI 16781 SI SI1 16781 1.100000 28.08600
16782 SI 16782 SI SI1 16782 1.100000 28.08600
16783 SI 16783 SI SI1 16783 1.100000 28.08600
16784 SI 16784 SI SI1 16784 1.100000 28.08600
16785 SI 16785 SI SI1 16785 1.100000 28.08600
16786 SI 16786 SI SI1 16786 1.100000 28.08600
16787 SI 16787 SI SI1 16787 1.100000 28.08600
16788 SI 16788 SI SI1 16788 1.100000 28.08600
16789 SI 16789 SI SI1 16789 1.100000 28.08600
16790 SI 16790 SI SI1 16790 1.100000 28.08600
16791 SI 16791 SI SI1 16791 1.100000 28.08600
16792 SI 16792 SI SI1 16792 1.100000 28.08600
16793 SI 16793 SI SI1 16793 1.100000 28.08600
16794 SI 16794 SI SI1 16794 1.100000 28.08600
16795 SI 16795 SI SI1 16795 1.100000 28.08600
16796 SI 16796 SI SI1 16796 1.100000 28.08600
16797 SI 16797 SI SI1 16797 1.100000 28.08600
16798 SI 16798 SI SI1 16798 1.100000 28.08600
16799 SI 16799 SI SI1 16799 1.100000 28.08600
16800 SI 16800 SI SI1 16800 1.100000 28.08600
16801 SI 16801 SI SI1 16801 1.100000 28.08600
16802 SI 16802 SI SI1 16802 1.100000 28.08600
16803 SI 16803 SI SI1 16803 1.100000 28.08600
16804 SI 16804 SI SI1 16804 1.100000 28.08600
16805 SI 16805 SI SI1 16805 1.100000 28.08600
16806 SI 16806 SI SI1 16806 1.100000 28.08600
16807 SI 16807 SI SI1 16807 1.100000 28.08600
16808 SI 16808 SI SI1 16808 1.100000 28.08600
16809 SI 16809 SI SI1 16809 1.100000 28.08600
16810 SI 16810 SI SI1 16810 1.100000 28.08600
16811 SI 16811 SI SI1 16811 1.100000 28.08600
16812 SI 16812 SI SI1 16812 1.100000 28.08600
16813 SI 16813 SI SI1 16813 1.100000 28.08600
16814 SI 16814 SI SI1 16814 1.100000 28.08600
16815 SI 16815 SI SI1 16815 1.100000 28.08600
16816 SI 16816 SI SI1 16816 1.100000 28.08600
16817 SI 16817 SI SI1 16817 1.100000 28.08600
16818 SI 16818 SI SI1 16818 1.100000 28.08600
16819 SI 16819 SI SI1 16819 1.100000 28.08600
16820 SI 16820 SI SI1 16820 1.100000 28.08600
16821 SI 16821 SI SI1 16821 1.100000 28.08600
16822 SI 16822 SI SI1 16822 1.100000 28.08600
16823 SI 16823 SI SI1 16823 1.100000 28.08600
16824 SI 16824 SI SI1 16824 1.100000 28.08600
16825 SI 16825 SI SI1 16825 1.100000 28.08600
16826 SI 16826 SI SI1 16826 1.100000 28.08600
16827 SI 16827 SI SI1 16827 1.100000 28.08600
16828 SI 16828 SI SI1 16828 1.100000 28.08600
16829 SI 16829 SI SI1 16829 1.100000 28.08600
16830 SI 16830 SI SI1 16830 1.100000 28.08600
16831 SI 16831 SI SI1 16831 1.100000 28.08600
16832 SI 16832 SI SI1 16832 1.100000 28.08600
16833 SI 16833 SI SI1 16833 1.100000 28.08600
16834 SI 16834 SI SI1 16834 1.100000 28.08600
16835 SI 16835 SI SI1 16835 1.100000 28.08600
16836 SI 16836 SI SI1 16836 1.100000 28.08600
16837 SI 16837 SI SI1 16837 1.100000 28.08600
16838 SI 16838 SI SI1 16838 1.100000 28.08600
16839 SI 16839 SI SI1 16839 1.100000 28.08600
16840 SI 16840 SI SI1 16840 1.100000 28.08600
16841 SI 16841 SI SI1 16841 1.100000 28.08600
16842 SI 16842 SI SI1 16842 1.100000 28.08600
16843 SI 16843 SI SI1 16843 1.100000 28.08600
16844 SI 16844 SI SI1 16844 1.100000 28.08600
16845 SI 16845 SI SI1 16845 1.100000 28.08600
16846 SI 16846 SI SI1 16846 1.100000 28.08600
16847 SI 16847 SI SI1 16847 1.100000 28.08600
16848 SI 16848 SI SI1 16848 1.100000 28.08600
16849 SI 16849 SI SI1 16849 1.100000 28.08600
16850 SI 16850 SI SI1 16850 1.100000 28.08600
16851 SI 16851 SI SI1 16851 1.100000 28.08600
16852 SI 16852 SI SI1 16852 1.100000 28.08600
16853 SI 16853 SI SI1 16853 1.100000 28.08600
16854 SI 16854 SI SI1 16854 1.100000 28.08600
16855 SI 16855 SI SI1 16855 1.100000 28.08600
16856 SI 16856 SI SI1 16856 1.100000 28.08600
16857 SI 16857 SI SI1 16857 1.100000 28.08600
16858 SI 16858 SI SI1 16858 1.100000 28.08600
16859 SI 16859 SI SI1 16859 1.100000 28.08600
16860 SI 16860 SI SI1 16860 1.100000 28.08600
16861 SI 16861 SI SI1 16861 1.100000 28.08600
16862 SI 16862 SI SI1 16862 1.100000 28.08600
16863 SI 16863 SI SI1 16863 1.100000 28.08600
16864 SI 16864 SI SI1 16864 1.100000 28.08600
16865 SI 16865 SI SI1 16865 1.100000 28.08600
16866 SI 16866 SI SI1 16866 1.100000 28.08600
16867 SI 16867 SI SI1 16867 1.100000 28.08600
16868 SI 16868 SI SI1 16868 1.100000 28.08600
16869 SI 16869 SI SI1 16869 1.100000 28.08600
16870 SI 16870 SI SI1 16870 1.100000 28.08600
16871 SI 16871 SI SI1 16871 1.100000 28.08600
16872 SI 16872 SI SI1 16872 1.100000 28.08600
16873 SI 16873 SI SI1 16873 1.100000 28.08600
16874 SI 16874 SI SI1 16874 1.100000 28.08600
16875 SI 16875 SI SI1 16875 1.100000 28.08600
16876 SI 16876 SI SI1 16876 1.100000 28.08600
16877 SI 16877 SI SI1 16877 1.100000 28.08600
16878 SI 16878 SI SI1 16878 1.100000 28.08600
16879 SI 16879 SI SI1 16879 1.100000 28.08600
16880 SI 16880 SI SI1 16880 1.100000 28.08600
16881 SI 16881 SI SI1 16881 1.100000 28.08600
16882 SI 16882 SI SI1 16882 1.100000 28.08600
16883 SI 16883 SI SI1 16883 1.100000 28.08600
16884 SI 16884 SI SI1 16884 1.100000 28.08600
16885 SI 16885 SI SI1 16885 1.100000 28.08600
16886 SI 16886 SI SI1 16886 1.100000 28.08600
16887 SI 16887 SI SI1 16887 1.100000 28.08600
16888 SI 16888 SI SI1 16888 1.100000 28.08600
16889 SI 16889 SI SI1 16889 1.100000 28.08600
16890 SI 16890 SI SI1 16890 1.100000 28.08600
16891 SI 16891 SI SI1 16891 1.100000 28.08600
16892 SI 16892 SI SI1 16892 1.100000 28.08600
16893 SI 16893 SI SI1 16893 1.100000 28.08600
16894 SI 16894 SI SI1 16894 1.100000 28.08600
16895 SI 16895 SI SI1 16895 1.100000 28.08600
16896 SI 16896 SI SI1 16896 1.100000 28.08600
16897 SI 16897 SI SI1 16897 1.100000 28.08600
16898 SI 16898 SI SI1 16898 1.100000 28.08600
16899 SI 16899 SI SI1 16899 1.100000 28.08600
16900 SI 16900 SI SI1 16900 1.100000 28.08600
16901 SI 16901 SI SI1 16901 1.100000 28.08600
16902 SI 16902 SI SI1 16902 1.100000 28.08600
16903 SI 16903 SI SI1 16903 1.100000 28.08600
16904 SI 16904 SI SI1 16904 1.100000 28.08600
16905 SI 16905 SI SI1 16905 1.100000 28.08600
16906 SI 16906 SI SI1 16906 1.100000 28.08600
16907 SI 16907 SI SI1 16907 1.100000 28.08600
16908 SI 16908 SI SI1 16908 1.100000 28.08600
16909 SI 16909 SI SI1 16909 1.100000 28.08600
16910 SI 16910 SI SI1 16910 1.100000 28.08600
16911 SI 16911 SI SI1 16911 1.100000 28.08600
16912 SI 16912 SI SI1 16912 1.100000 28.08600
16913 SI 16913 SI SI1 16913 1.100000 28.08600
16914 SI 16914 SI SI1 16914 1.100000 28.08600
16915 SI 16915 SI SI1 16915 1.100000 28.08600
16916 SI 16916 SI SI1 16916 1.100000 28.08600
16917 SI 16917 SI SI1 16917 1.100000 28.08600
16918 SI 16918 SI SI1 16918 1.100000 28.08600
16919 SI 16919 SI SI1 16919 1.100000 28.08600
16920 SI 16920 SI SI1 16920 1.100000 28.08600
16921 SI 16921 SI SI1 16921 1.100000 28.08600
16922 SI 16922 SI SI1 16922 1.100000 28.08600
16923 SI 16923 SI SI1 16923 1.100000 28.08600
16924 SI 16924 SI SI1 16924 1.100000 28.08600
16925 SI 16925 SI SI1 16925 1.100000 28.08600
16926 SI 16926 SI SI1 16926 1.100000 28.08600
16927 SI 16927 SI SI1 16927 1.100000 28.08600
16928 SI 16928 SI SI1 16928 1.100000 28.08600
16929 SI 16929 SI SI1 16929 1.100000 28.08600
16930 SI 16930 SI SI1 16930 1.100000 28.08600
16931 SI 16931 SI SI1 16931 1.100000 28.08600
16932 SI 16932 SI SI1 16932 1.100000 28.08600
16933 SI 16933 SI SI1 16933 1.100000 28.08600
16934 SI 16934 SI SI1 16934 1.100000 28.08600
16935 SI 16935 SI SI1 16935 1.100000 28.08600
16936 SI 16936 SI SI1 16936 1.100000 28.08600
16937 SI 16937 SI SI1 16937 1.100000 28.08600
16938 SI 16938 SI SI1 16938 1.100000 28.08600
16939 SI 16939 SI SI1 16939 1.100000 28.08600
16940 SI 16940 SI SI1 16940 1.100000 28.08600
16941 SI 16941 SI SI1 16941 1.100000 28.08600
16942 SI 16942 SI SI1 16942 1.100000 28.08600
16943 SI 16943 SI SI1 16943 1.100000 28.08600
16944 SI 16944 SI SI1 16944 1.100000 28.08600
16945 SI 16945 SI SI1 16945 1.100000 28.08600
16946 SI 16946 SI SI1 16946 1.100000 28.08600
16947 SI 16947 SI SI1 16947 1.100000 28.08600
16948 SI 16948 SI SI1 16948 1.100000 28.08600
16949 SI 16949 SI SI1 16949 1.100000 28.08600
16950 SI 16950 SI SI1 16950 1.100000 28.08600
16951 SI 16951 SI SI1 16951 1.100000 28.08600
16952 SI 16952 SI SI1 16952 1.100000 28.08600
16953 SI 16953 SI SI1 16953 1.100000 28.08600
16954 SI 16954 SI SI1 16954 1.100000 28.08600
16955 SI 16955 SI SI1 16955 1.100000 28.08600
16956 SI 16956 SI SI1 16956 1.100000 28.08600
16957 SI 16957 SI SI1 16957 1.100000 28.08600
16958 SI 16958 SI SI1 16958 1.100000 28.08600
16959 SI 16959 SI SI1 16959 1.100000 28.08600
16960 SI 16960 SI SI1 16960 1.100000 28.08600
16961 SI 16961 SI SI1 16961 1.100000 28.08600
16962 SI 16962 SI SI1 16962 1.100000 28.08600
16963 SI 16963 SI SI1 16963 1.100000 28.08600
16964 SI 16964 SI SI1 16964 1.100000 28.08600
16965 SI 16965 SI SI1 16965 1.100000 28.08600
16966 SI 16966 SI SI1 16966 1.100000 28.08600
16967 SI 16967 SI SI1 16967 1.100000 28.08600
16968 SI 16968 SI SI1 16968 1.100000 28.08600
16969 SI 16969 SI SI1 16969 1.100000 28.08600
16970 SI 16970 SI SI1 16970 1.100000 28.08600
16971 SI 16971 SI SI1 16971 1.100000 28.08600
16972 SI 16972 SI SI1 16972 1.100000 28.08600
16973 SI 16973 SI SI1 16973 1.100000 28.08600
16974 SI 16974 SI SI1 16974 1.100000 28.08600
16975 SI 16975 SI SI1 16975 1.100000 28.08600
16976 SI 16976 SI SI1 16976 1.100000 28.08600
16977 SI 16977 SI SI1 16977 1.100000 28.08600
16978 SI 16978 SI SI1 16978 1.100000 28.08600
16979 SI 16979 SI SI1 16979 1.100000 28.08600
16980 SI 16980 SI SI1 16980 1.100000 28.08600
16981 SI 16981 SI SI1 16981 1.100000 28.08600
16982 SI 16982 SI SI1 16982 1.100000 28.08600
16983 SI 16983 SI SI1 16983 1.100000 28.08600
16984 SI 16984 SI SI1 16984 1.100000 28.08600
16985 SI 16985 SI SI1 16985 1.100000 28.08600
16986 SI 16986 SI SI1 16986 1.100000 28.08600
16987 SI 16987 SI SI1 16987 1.100000 28.08600
16988 SI 16988 SI SI1 16988 1.100000 28.08600
16989 SI 16989 SI SI1 16989 1.100000 28.08600
16990 SI 16990 SI SI1 16990 1.100000 28.08600
16991 SI 16991 SI SI1 16991 1.100000 28.08600
16992 SI 16992 SI SI1 16992 1.100000 28.08600
16993 SI 16993 SI SI1 16993 1.100000 28.08600
16994 SI 16994 SI SI1 16994 1.100000 28.08600
16995 SI 16995 SI SI1 16995 1.100000 28.08600
16996 SI 16996 SI SI1 16996 1.100000 28.08600
16997 SI 16997 SI SI1 16997 1.100000 28.08600
16998 SI 16998 SI SI1 16998 1.100000 28.08600
16999 SI 16999 SI SI1 16999 1.100000 28.08600
17000 SI 17000 SI SI1 17000 1.100000 28.08600
17001 SI 17001 SI SI1 17001 1.100000 28.08600
17002 SI 17002 SI SI1 17002 1.100000 28.08600
17003 SI 17003 SI SI1 17003 1.100000 28.08600
17004 SI 17004 SI SI1 17004 1.100000 28.08600
17005 SI 17005 SI SI1 17005 1.100000 28.08600
17006 SI 17006 SI SI1 17006 1.100000 28.08600
17007 SI 17007 SI SI1 17007 1.100000 28.08600
17008 SI 17008 SI SI1 17008 1.100000 28.08600
17009 SI 17009 SI SI1 17009 1.100000 28.08600
17010 SI 17010 SI SI1 17010 1.100000 28.08600
17011 SI 17011 SI SI1 17011 1.100000 28.08600
17012 SI 17012 SI SI1 17012 1.100000 28.08600
17013 SI 17013 SI SI1 17013 1.100000 28.08600
17014 SI 17014 SI SI1 17014 1.100000 28.08600
17015 SI 17015 SI SI1 17015 1.100000 28.08600
17016 SI 17016 SI SI1 17016 1.100000 28.08600
17017 SI 17017 SI SI1 17017 1.100000 28.08600
17018 SI 17018 SI SI1 17018 1.100000 28.08600
17019 SI 17019 SI SI1 17019 1.100000 28.08600
17020 SI 17020 SI SI1 17020 1.100000 28.08600
17021 SI 17021 SI SI1 17021 1.100000 28.08600
17022 SI 17022 SI SI1 17022 1.100000 28.08600
17023 SI 17023 SI SI1 17023 1.100000 28.08600
17024 SI 17024 SI SI1 17024 1.100000 28.08600
17025 SI 17025 SI SI1 17025 1.100000 28.08600
17026 SI 17026 SI SI1 17026 1.100000 28.08600
17027 SI 17027 SI SI1 17027 1.100000 28.08600
17028 SI 17028 SI SI1 17028 1.100000 28.08600
17029 SI 17029 SI SI1 17029 1.100000 28.08600
17030 SI 17030 SI SI1 17030 1.100000 28.08600
17031 SI 17031 SI SI1 17031 1.100000 28.08600
17032 SI 17032 SI SI1 17032 1.100000 28.08600
17033 SI 17033 SI SI1 17033 1.100000 28.08600
17034 SI 17034 SI SI1 17034 1.100000 28.08600
17035 SI 17035 SI SI1 17035 1.100000 28.08600
17036 SI 17036 SI SI1 17036 1.100000 28.08600
17037 SI 17037 SI SI1 17037 1.100000 28.08600
17038 SI 17038 SI SI1 17038 1.100000 28.08600
17039 SI 17039 SI SI1 17039 1.100000 28.08600
17040 SI 17040 SI SI1 17040 1.100000 28.08600
17041 SI 17041 SI SI1 17041 1.100000 28.08600
17042 SI 17042 SI SI1 17042 1.100000 28.08600
17043 SI 17043 SI SI1 17043 1.100000 28.08600
17044 SI 17044 SI SI1 17044 1.100000 28.08600
17045 SI 17045 SI SI1 17045 1.100000 28.08600
17046 SI 17046 SI SI1 17046 1.100000 28.08600
17047 SI 17047 SI SI1 17047 1.100000 28.08600
17048 SI 17048 SI SI1 17048 1.100000 28.08600
17049 SI 17049 SI SI1 17049 1.100000 28.08600
17050 SI 17050 SI SI1 17050 1.100000 28.08600
17051 SI 17051 SI SI1 17051 1.100000 28.08600
17052 SI 17052 SI SI1 17052 1.100000 28.08600
17053 SI 17053 SI SI1 17053 1.100000 28.08600
17054 SI 17054 SI SI1 17054 1.100000 28.08600
17055 SI 17055 SI SI1 17055 1.100000 28.08600
17056 SI 17056 SI SI1 17056 1.100000 28.08600
17057 SI 17057 SI SI1 17057 1.100000 28.08600
17058 SI 17058 SI SI1 17058 1.100000 28.08600
17059 SI 17059 SI SI1 17059 1.100000 28.08600
17060 SI 17060 SI SI1 17060 1.100000 28.08600
17061 SI 17061 SI SI1 17061 1.100000 28.08600
17062 SI 17062 SI SI1 17062 1.100000 28.08600
17063 SI 17063 SI SI1 17063 1.100000 28.08600
17064 SI 17064 SI SI1 17064 1.100000 28.08600
17065 SI 17065 SI SI1 17065 1.100000 28.08600
17066 SI 17066 SI SI1 17066 1.100000 28.08600
17067 SI 17067 SI SI1 17067 1.100000 28.08600
17068 SI 17068 SI SI1 17068 1.100000 28.08600
17069 SI 17069 SI SI1 17069 1.100000 28.08600
17070 SI 17070 SI SI1 17070 1.100000 28.08600
17071 SI 17071 SI SI1 17071 1.100000 28.08600
17072 SI 17072 SI SI1 17072 1.100000 28.08600
17073 SI 17073 SI SI1 17073 1.100000 28.08600
17074 SI 17074 SI SI1 17074 1.100000 28.08600
17075 SI 17075 SI SI1 17075 1.100000 28.08600
17076 SI 17076 SI SI1 17076 1.100000 28.08600
17077 SI 17077 SI SI1 17077 1.100000 28.08600
17078 SI 17078 SI SI1 17078 1.100000 28.08600
17079 SI 17079 SI SI1 17079 1.100000 28.08600
17080 SI 17080 SI SI1 17080 1.100000 28.08600
17081 SI 17081 SI SI1 17081 1.100000 28.08600
17082 SI 17082 SI SI1 17082 1.100000 28.08600
17083 SI 17083 SI SI1 17083 1.100000 28.08600
17084 SI 17084 SI SI1 17084 1.100000 28.08600
17085 SI 17085 SI SI1 17085 1.100000 28.08600
17086 SI 17086 SI SI1 17086 1.100000 28.08600
17087 SI 17087 SI SI1 17087 1.100000 28.08600
17088 SI 17088 SI SI1 17088 1.100000 28.08600
17089 SI 17089 SI SI1 17089 1.100000 28.08600
17090 SI 17090 SI SI1 17090 1.100000 28.08600
17091 SI 17091 SI SI1 17091 1.100000 28.08600
17092 SI 17092 SI SI1 17092 1.100000 28.08600
17093 SI 17093 SI SI1 17093 1.100000 28.08600
17094 SI 17094 SI SI1 17094 1.100000 28.08600
17095 SI 17095 SI SI1 17095 1.100000 28.08600
17096 SI 17096 SI SI1 17096 1.100000 28.08600
17097 SI 17097 SI SI1 17097 1.100000 28.08600
17098 SI 17098 SI SI1 17098 1.100000 28.08600
17099 SI 17099 SI SI1 17099 1.100000 28.08600
17100 SI 17100 SI SI1 17100 1.100000 28.08600
17101 SI 17101 SI SI1 17101 1.100000 28.08600
17102 SI 17102 SI SI1 17102 1.100000 28.08600
17103 SI 17103 SI SI1 17103 1.100000 28.08600
17104 SI 17104 SI SI1 17104 1.100000 28.08600
17105 SI 17105 SI SI1 17105 1.100000 28.08600
17106 SI 17106 SI SI1 17106 1.100000 28.08600
17107 SI 17107 SI SI1 17107 1.100000 28.08600
17108 SI 17108 SI SI1 17108 1.100000 28.08600
17109 SI 17109 SI SI1 17109 1.100000 28.08600
17110 SI 17110 SI SI1 17110 1.100000 28.08600
17111 SI 17111 SI SI1 17111 1.100000 28.08600
17112 SI 17112 SI SI1 17112 1.100000 28.08600
17113 SI 17113 SI SI1 17113 1.100000 28.08600
17114 SI 17114 SI SI1 17114 1.100000 28.08600
17115 SI 17115 SI SI1 17115 1.100000 28.08600
17116 SI 17116 SI SI1 17116 1.100000 28.08600
17117 SI 17117 SI SI1 17117 1.100000 28.08600
17118 SI 17118 SI SI1 17118 1.100000 28.08600
17119 SI 17119 SI SI1 17119 1.100000 28.08600
17120 SI 17120 SI SI1 17120 1.100000 28.08600
17121 SI 17121 SI SI1 17121 1.100000 28.08600
17122 SI 17122 SI SI1 17122 1.100000 28.08600
17123 SI 17123 SI SI1 17123 1.100000 28.08600
17124 SI 17124 SI SI1 17124 1.100000 28.08600
17125 SI 17125 SI SI1 17125 1.100000 28.08600
17126 SI 17126 SI SI1 17126 1.100000 28.08600
17127 SI 17127 SI SI1 17127 1.100000 28.08600
17128 SI 17128 SI SI1 17128 1.100000 28.08600
17129 SI 17129 SI SI1 17129 1.100000 28.08600
17130 SI 17130 SI SI1 17130 1.100000 28.08600
17131 SI 17131 SI SI1 17131 1.100000 28.08600
17132 SI 17132 SI SI1 17132 1.100000 28.08600
17133 SI 17133 SI SI1 17133 1.100000 28.08600
17134 SI 17134 SI SI1 17134 1.100000 28.08600
17135 SI 17135 SI SI1 17135 1.100000 28.08600
17136 SI 17136 SI SI1 17136 1.100000 28.08600
17137 SI 17137 SI SI1 17137 1.100000 28.08600
17138 SI 17138 SI SI1 17138 1.100000 28.08600
17139 SI 17139 SI SI1 17139 1.100000 28.08600
17140 SI 17140 SI SI1 17140 1.100000 28.08600
17141 SI 17141 SI SI1 17141 1.100000 28.08600
17142 SI 17142 SI SI1 17142 1.100000 28.08600
17143 SI 17143 SI SI1 17143 1.100000 28.08600
17144 SI 17144 SI SI1 17144 1.100000 28.08600
17145 SI 17145 SI SI1 17145 1.100000 28.08600
17146 SI 17146 SI SI1 17146 1.100000 28.08600
17147 SI 17147 SI SI1 17147 1.100000 28.08600
17148 SI 17148 SI SI1 17148 1.100000 28.08600
17149 SI 17149 SI SI1 17149 1.100000 28.08600
17150 SI 17150 SI SI1 17150 1.100000 28.08600
17151 SI 17151 SI SI1 17151 1.100000 28.08600
17152 SI 17152 SI SI1 17152 1.100000 28.08600
17153 SI 17153 SI SI1 17153 1.100000 28.08600
17154 SI 17154 SI SI1 17154 1.100000 28.08600
17155 SI 17155 SI SI1 17155 1.100000 28.08600
17156 SI 17156 SI SI1 17156 1.100000 28.08600
17157 SI 17157 SI SI1 17157 1.100000 28.08600
17158 SI 17158 SI SI1 17158 1.100000 28.08600
17159 SI 17159 SI SI1 17159 1.100000 28.08600
17160 SI 17160 SI SI1 17160 1.100000 28.08600
17161 SI 17161 SI SI1 17161 1.100000 28.08600
17162 SI 17162 SI SI1 17162 1.100000 28.08600
17163 SI 17163 SI SI1 17163 1.100000 28.08600
17164 SI 17164 SI SI1 17164 1.100000 28.08600
17165 SI 17165 SI SI1 17165 1.100000 28.08600
17166 SI 17166 SI SI1 17166 1.100000 28.08600
17167 SI 17167 SI SI1 17167 1.100000 28.08600
17168 SI 17168 SI SI1 17168 1.100000 28.08600
17169 SI 17169 SI SI1 17169 1.100000 28.08600
17170 SI 17170 SI SI1 17170 1.100000 28.08600
17171 SI 17171 SI SI1 17171 1.100000 28.08600
17172 SI 17172 SI SI1 17172 1.100000 28.08600
17173 SI 17173 SI SI1 17173 1.100000 28.08600
17174 SI 17174 SI SI1 17174 1.100000 28.08600
17175 SI 17175 SI SI1 17175 1.100000 28.08600
17176 SI 17176 SI SI1 17176 1.100000 28.08600
17177 SI 17177 SI SI1 17177 1.100000 28.08600
17178 SI 17178 SI SI1 17178 1.100000 28.08600
17179 SI 17179 SI SI1 17179 1.100000 28.08600
17180 SI 17180 SI SI1 17180 1.100000 28.08600
17181 SI 17181 SI SI1 17181 1.100000 28.08600
17182 SI 17182 SI SI1 17182 1.100000 28.08600
17183 SI 17183 SI SI1 17183 1.100000 28.08600
17184 SI 17184 SI SI1 17184 1.100000 28.08600
17185 SI 17185 SI SI1 17185 1.100000 28.08600
17186 SI 17186 SI SI1 17186 1.100000 28.08600
17187 SI 17187 SI SI1 17187 1.100000 28.08600
17188 SI 17188 SI SI1 17188 1.100000 28.08600
17189 SI 17189 SI SI1 17189 1.100000 28.08600
17190 SI 17190 SI SI1 17190 1.100000 28.08600
17191 SI 17191 SI SI1 17191 1.100000 28.08600
17192 SI 17192 SI SI1 17192 1.100000 28.08600
17193 SI 17193 SI SI1 17193 1.100000 28.08600
17194 SI 17194 SI SI1 17194 1.100000 28.08600
17195 SI 17195 SI SI1 17195 1.100000 28.08600
17196 SI 17196 SI SI1 17196 1.100000 28.08600
17197 SI 17197 SI SI1 17197 1.100000 28.08600
17198 SI 17198 SI SI1 17198 1.100000 28.08600
17199 SI 17199 SI SI1 17199 1.100000 28.08600
17200 SI 17200 SL Si1 17200 1.100000 28.08600
17201 OA 17200 SL O1 17201 -0.675000 15.99940
17202 HG 17200 SL H1 17202 0.400000 2.01600
17203 SI 17201 SL Si1 17203 1.100000 28.08600
17204 OA 17201 SL O1 17204 -0.675000 15.99940
17205 HG 17201 SL H1 17205 0.400000 2.01600
17206 SI 17202 SL Si1 17206 1.100000 28.08600
17207 OA 17202 SL O1 17207 -0.675000 15.99940
17208 HG 17202 SL H1 17208 0.400000 2.01600
17209 SI 17203 SL Si1 17209 1.100000 28.08600
17210 OA 17203 SL O1 17210 -0.675000 15.99940
17211 HG 17203 SL H1 17211 0.400000 2.01600
17212 SI 17204 SL Si1 17212 1.100000 28.08600
17213 OA 17204 SL O1 17213 -0.675000 15.99940
17214 HG 17204 SL H1 17214 0.400000 2.01600
17215 SI 17205 SL Si1 17215 1.100000 28.08600
17216 OA 17205 SL O1 17216 -0.675000 15.99940
17217 HG 17205 SL H1 17217 0.400000 2.01600
17218 SI 17206 SL Si1 17218 1.100000 28.08600
17219 OA 17206 SL O1 17219 -0.675000 15.99940
17220 HG 17206 SL H1 17220 0.400000 2.01600
17221 SI 17207 SL Si1 17221 1.100000 28.08600
17222 OA 17207 SL O1 17222 -0.675000 15.99940
17223 HG 17207 SL H1 17223 0.400000 2.01600
17224 SI 17208 SL Si1 17224 1.100000 28.08600
17225 OA 17208 SL O1 17225 -0.675000 15.99940
17226 HG 17208 SL H1 17226 0.400000 2.01600
17227 SI 17209 SL Si1 17227 1.100000 28.08600
17228 OA 17209 SL O1 17228 -0.675000 15.99940
17229 HG 17209 SL H1 17229 0.400000 2.01600
17230 SI 17210 SL Si1 17230 1.100000 28.08600
17231 OA 17210 SL O1 17231 -0.675000 15.99940
17232 HG 17210 SL H1 17232 0.400000 2.01600
17233 SI 17211 SL Si1 17233 1.100000 28.08600
17234 OA 17211 SL O1 17234 -0.675000 15.99940
17235 HG 17211 SL H1 17235 0.400000 2.01600
17236 SI 17212 SL Si1 17236 1.100000 28.08600
17237 OA 17212 SL O1 17237 -0.675000 15.99940
17238 HG 17212 SL H1 17238 0.400000 2.01600
17239 SI 17213 SL Si1 17239 1.100000 28.08600
17240 OA 17213 SL O1 17240 -0.675000 15.99940
17241 HG 17213 SL H1 17241 0.400000 2.01600
17242 SI 17214 SL Si1 17242 1.100000 28.08600
17243 OA 17214 SL O1 17243 -0.675000 15.99940
17244 HG 17214 SL H1 17244 0.400000 2.01600
17245 SI 17215 SL Si1 17245 1.100000 28.08600
17246 OA 17215 SL O1 17246 -0.675000 15.99940
17247 HG 17215 SL H1 17247 0.400000 2.01600
17248 SI 17216 SL Si1 17248 1.100000 28.08600
17249 OA 17216 SL O1 17249 -0.675000 15.99940
17250 HG 17216 SL H1 17250 0.400000 2.01600
17251 SI 17217 SL Si1 17251 1.100000 28.08600
17252 OA 17217 SL O1 17252 -0.675000 15.99940
17253 HG 17217 SL H1 17253 0.400000 2.01600
17254 SI 17218 SL Si1 17254 1.100000 28.08600
17255 OA 17218 SL O1 17255 -0.675000 15.99940
17256 HG 17218 SL H1 17256 0.400000 2.01600
17257 SI 17219 SL Si1 17257 1.100000 28.08600
17258 OA 17219 SL O1 17258 -0.675000 15.99940
17259 HG 17219 SL H1 17259 0.400000 2.01600
17260 SI 17220 SL Si1 17260 1.100000 28.08600
17261 OA 17220 SL O1 17261 -0.675000 15.99940
17262 HG 17220 SL H1 17262 0.400000 2.01600
17263 SI 17221 SL Si1 17263 1.100000 28.08600
17264 OA 17221 SL O1 17264 -0.675000 15.99940
17265 HG 17221 SL H1 17265 0.400000 2.01600
17266 SI 17222 SL Si1 17266 1.100000 28.08600
17267 OA 17222 SL O1 17267 -0.675000 15.99940
17268 HG 17222 SL H1 17268 0.400000 2.01600
17269 SI 17223 SL Si1 17269 1.100000 28.08600
17270 OA 17223 SL O1 17270 -0.675000 15.99940
17271 HG 17223 SL H1 17271 0.400000 2.01600
17272 SI 17224 SL Si1 17272 1.100000 28.08600
17273 OA 17224 SL O1 17273 -0.675000 15.99940
17274 HG 17224 SL H1 17274 0.400000 2.01600
17275 SI 17225 SL Si1 17275 1.100000 28.08600
17276 OA 17225 SL O1 17276 -0.675000 15.99940
17277 HG 17225 SL H1 17277 0.400000 2.01600
17278 SI 17226 SL Si1 17278 1.100000 28.08600
17279 OA 17226 SL O1 17279 -0.675000 15.99940
17280 HG 17226 SL H1 17280 0.400000 2.01600
17281 SI 17227 SL Si1 17281 1.100000 28.08600
17282 OA 17227 SL O1 17282 -0.675000 15.99940
17283 HG 17227 SL H1 17283 0.400000 2.01600
17284 SI 17228 SL Si1 17284 1.100000 28.08600
17285 OA 17228 SL O1 17285 -0.675000 15.99940
17286 HG 17228 SL H1 17286 0.400000 2.01600
17287 SI 17229 SL Si1 17287 1.100000 28.08600
17288 OA 17229 SL O1 17288 -0.675000 15.99940
17289 HG 17229 SL H1 17289 0.400000 2.01600
17290 SI 17230 SL Si1 17290 1.100000 28.08600
17291 OA 17230 SL O1 17291 -0.675000 15.99940
17292 HG 17230 SL H1 17292 0.400000 2.01600
17293 SI 17231 SL Si1 17293 1.100000 28.08600
17294 OA 17231 SL O1 17294 -0.675000 15.99940
17295 HG 17231 SL H1 17295 0.400000 2.01600
17296 SI 17232 SL Si1 17296 1.100000 28.08600
17297 OA 17232 SL O1 17297 -0.675000 15.99940
17298 HG 17232 SL H1 17298 0.400000 2.01600
17299 SI 17233 SL Si1 17299 1.100000 28.08600
17300 OA 17233 SL O1 17300 -0.675000 15.99940
17301 HG 17233 SL H1 17301 0.400000 2.01600
17302 SI 17234 SL Si1 17302 1.100000 28.08600
17303 OA 17234 SL O1 17303 -0.675000 15.99940
17304 HG 17234 SL H1 17304 0.400000 2.01600
17305 SI 17235 SL Si1 17305 1.100000 28.08600
17306 OA 17235 SL O1 17306 -0.675000 15.99940
17307 HG 17235 SL H1 17307 0.400000 2.01600
17308 SI 17236 SL Si1 17308 1.100000 28.08600
17309 OA 17236 SL O1 17309 -0.675000 15.99940
17310 HG 17236 SL H1 17310 0.400000 2.01600
17311 SI 17237 SL Si1 17311 1.100000 28.08600
17312 OA 17237 SL O1 17312 -0.675000 15.99940
17313 HG 17237 SL H1 17313 0.400000 2.01600
17314 SI 17238 SL Si1 17314 1.100000 28.08600
17315 OA 17238 SL O1 17315 -0.675000 15.99940
17316 HG 17238 SL H1 17316 0.400000 2.01600
17317 SI 17239 SL Si1 17317 1.100000 28.08600
17318 OA 17239 SL O1 17318 -0.675000 15.99940
17319 HG 17239 SL H1 17319 0.400000 2.01600
17320 SI 17240 SL Si1 17320 1.100000 28.08600
17321 OA 17240 SL O1 17321 -0.675000 15.99940
17322 HG 17240 SL H1 17322 0.400000 2.01600
17323 SI 17241 SL Si1 17323 1.100000 28.08600
17324 OA 17241 SL O1 17324 -0.675000 15.99940
17325 HG 17241 SL H1 17325 0.400000 2.01600
17326 SI 17242 SL Si1 17326 1.100000 28.08600
17327 OA 17242 SL O1 17327 -0.675000 15.99940
17328 HG 17242 SL H1 17328 0.400000 2.01600
17329 SI 17243 SL Si1 17329 1.100000 28.08600
17330 OA 17243 SL O1 17330 -0.675000 15.99940
17331 HG 17243 SL H1 17331 0.400000 2.01600
17332 SI 17244 SL Si1 17332 1.100000 28.08600
17333 OA 17244 SL O1 17333 -0.675000 15.99940
17334 HG 17244 SL H1 17334 0.400000 2.01600
17335 SI 17245 SL Si1 17335 1.100000 28.08600
17336 OA 17245 SL O1 17336 -0.675000 15.99940
17337 HG 17245 SL H1 17337 0.400000 2.01600
17338 SI 17246 SL Si1 17338 1.100000 28.08600
17339 OA 17246 SL O1 17339 -0.675000 15.99940
17340 HG 17246 SL H1 17340 0.400000 2.01600
17341 SI 17247 SL Si1 17341 1.100000 28.08600
17342 OA 17247 SL O1 17342 -0.675000 15.99940
17343 HG 17247 SL H1 17343 0.400000 2.01600
17344 SI 17248 SL Si1 17344 1.100000 28.08600
17345 OA 17248 SL O1 17345 -0.675000 15.99940
17346 HG 17248 SL H1 17346 0.400000 2.01600
17347 SI 17249 SL Si1 17347 1.100000 28.08600
17348 OA 17249 SL O1 17348 -0.675000 15.99940
17349 HG 17249 SL H1 17349 0.400000 2.01600
17350 SI 17250 SL Si1 17350 1.100000 28.08600
17351 OA 17250 SL O1 17351 -0.675000 15.99940
17352 HG 17250 SL H1 17352 0.400000 2.01600
17353 SI 17251 SL Si1 17353 1.100000 28.08600
17354 OA 17251 SL O1 17354 -0.675000 15.99940
17355 HG 17251 SL H1 17355 0.400000 2.01600
17356 SI 17252 SL Si1 17356 1.100000 28.08600
17357 OA 17252 SL O1 17357 -0.675000 15.99940
17358 HG 17252 SL H1 17358 0.400000 2.01600
17359 SI 17253 SL Si1 17359 1.100000 28.08600
17360 OA 17253 SL O1 17360 -0.675000 15.99940
17361 HG 17253 SL H1 17361 0.400000 2.01600
17362 SI 17254 SL Si1 17362 1.100000 28.08600
17363 OA 17254 SL O1 17363 -0.675000 15.99940
17364 HG 17254 SL H1 17364 0.400000 2.01600
17365 SI 17255 SL Si1 17365 1.100000 28.08600
17366 OA 17255 SL O1 17366 -0.675000 15.99940
17367 HG 17255 SL H1 17367 0.400000 2.01600
17368 SI 17256 SL Si1 17368 1.100000 28.08600
17369 OA 17256 SL O1 17369 -0.675000 15.99940
17370 HG 17256 SL H1 17370 0.400000 2.01600
17371 SI 17257 SL Si1 17371 1.100000 28.08600
17372 OA 17257 SL O1 17372 -0.675000 15.99940
17373 HG 17257 SL H1 17373 0.400000 2.01600
17374 SI 17258 SL Si1 17374 1.100000 28.08600
17375 OA 17258 SL O1 17375 -0.675000 15.99940
17376 HG 17258 SL H1 17376 0.400000 2.01600
17377 SI 17259 SL Si1 17377 1.100000 28.08600
17378 OA 17259 SL O1 17378 -0.675000 15.99940
17379 HG 17259 SL H1 17379 0.400000 2.01600
17380 SI 17260 SL Si1 17380 1.100000 28.08600
17381 OA 17260 SL O1 17381 -0.675000 15.99940
17382 HG 17260 SL H1 17382 0.400000 2.01600
17383 SI 17261 SL Si1 17383 1.100000 28.08600
17384 OA 17261 SL O1 17384 -0.675000 15.99940
17385 HG 17261 SL H1 17385 0.400000 2.01600
17386 SI 17262 SL Si1 17386 1.100000 28.08600
17387 OA 17262 SL O1 17387 -0.675000 15.99940
17388 HG 17262 SL H1 17388 0.400000 2.01600
17389 SI 17263 SL Si1 17389 1.100000 28.08600
17390 OA 17263 SL O1 17390 -0.675000 15.99940
17391 HG 17263 SL H1 17391 0.400000 2.01600
17392 SI 17264 SL Si1 17392 1.100000 28.08600
17393 OA 17264 SL O1 17393 -0.675000 15.99940
17394 HG 17264 SL H1 17394 0.400000 2.01600
17395 SI 17265 SL Si1 17395 1.100000 28.08600
17396 OA 17265 SL O1 17396 -0.675000 15.99940
17397 HG 17265 SL H1 17397 0.400000 2.01600
17398 SI 17266 SL Si1 17398 1.100000 28.08600
17399 OA 17266 SL O1 17399 -0.675000 15.99940
17400 HG 17266 SL H1 17400 0.400000 2.01600
17401 SI 17267 SL Si1 17401 1.100000 28.08600
17402 OA 17267 SL O1 17402 -0.675000 15.99940
17403 HG 17267 SL H1 17403 0.400000 2.01600
17404 SI 17268 SL Si1 17404 1.100000 28.08600
17405 OA 17268 SL O1 17405 -0.675000 15.99940
17406 HG 17268 SL H1 17406 0.400000 2.01600
17407 SI 17269 SL Si1 17407 1.100000 28.08600
17408 OA 17269 SL O1 17408 -0.675000 15.99940
17409 HG 17269 SL H1 17409 0.400000 2.01600
17410 SI 17270 SL Si1 17410 1.100000 28.08600
17411 OA 17270 SL O1 17411 -0.675000 15.99940
17412 HG 17270 SL H1 17412 0.400000 2.01600
17413 SI 17271 SL Si1 17413 1.100000 28.08600
17414 OA 17271 SL O1 17414 -0.675000 15.99940
17415 HG 17271 SL H1 17415 0.400000 2.01600
17416 SI 17272 SL Si1 17416 1.100000 28.08600
17417 OA 17272 SL O1 17417 -0.675000 15.99940
17418 HG 17272 SL H1 17418 0.400000 2.01600
17419 SI 17273 SL Si1 17419 1.100000 28.08600
17420 OA 17273 SL O1 17420 -0.675000 15.99940
17421 HG 17273 SL H1 17421 0.400000 2.01600
17422 SI 17274 SL Si1 17422 1.100000 28.08600
17423 OA 17274 SL O1 17423 -0.675000 15.99940
17424 HG 17274 SL H1 17424 0.400000 2.01600
17425 SI 17275 SL Si1 17425 1.100000 28.08600
17426 OA 17275 SL O1 17426 -0.675000 15.99940
17427 HG 17275 SL H1 17427 0.400000 2.01600
17428 SI 17276 SL Si1 17428 1.100000 28.08600
17429 OA 17276 SL O1 17429 -0.675000 15.99940
17430 HG 17276 SL H1 17430 0.400000 2.01600
17431 SI 17277 SL Si1 17431 1.100000 28.08600
17432 OA 17277 SL O1 17432 -0.675000 15.99940
17433 HG 17277 SL H1 17433 0.400000 2.01600
17434 SI 17278 SL Si1 17434 1.100000 28.08600
17435 OA 17278 SL O1 17435 -0.675000 15.99940
17436 HG 17278 SL H1 17436 0.400000 2.01600
17437 SI 17279 SL Si1 17437 1.100000 28.08600
17438 OA 17279 SL O1 17438 -0.675000 15.99940
17439 HG 17279 SL H1 17439 0.400000 2.01600
17440 SI 17280 SL Si1 17440 1.100000 28.08600
17441 OA 17280 SL O1 17441 -0.675000 15.99940
17442 HG 17280 SL H1 17442 0.400000 2.01600
17443 SI 17281 SL Si1 17443 1.100000 28.08600
17444 OA 17281 SL O1 17444 -0.675000 15.99940
17445 HG 17281 SL H1 17445 0.400000 2.01600
17446 SI 17282 SL Si1 17446 1.100000 28.08600
17447 OA 17282 SL O1 17447 -0.675000 15.99940
17448 HG 17282 SL H1 17448 0.400000 2.01600
17449 SI 17283 SL Si1 17449 1.100000 28.08600
17450 OA 17283 SL O1 17450 -0.675000 15.99940
17451 HG 17283 SL H1 17451 0.400000 2.01600
17452 SI 17284 SL Si1 17452 1.100000 28.08600
17453 OA 17284 SL O1 17453 -0.675000 15.99940
17454 HG 17284 SL H1 17454 0.400000 2.01600
17455 SI 17285 SL Si1 17455 1.100000 28.08600
17456 OA 17285 SL O1 17456 -0.675000 15.99940
17457 HG 17285 SL H1 17457 0.400000 2.01600
17458 SI 17286 SL Si1 17458 1.100000 28.08600
17459 OA 17286 SL O1 17459 -0.675000 15.99940
17460 HG 17286 SL H1 17460 0.400000 2.01600
17461 SI 17287 SL Si1 17461 1.100000 28.08600
17462 OA 17287 SL O1 17462 -0.675000 15.99940
17463 HG 17287 SL H1 17463 0.400000 2.01600
17464 SI 17288 SL Si1 17464 1.100000 28.08600
17465 OA 17288 SL O1 17465 -0.675000 15.99940
17466 HG 17288 SL H1 17466 0.400000 2.01600
17467 SI 17289 SL Si1 17467 1.100000 28.08600
17468 OA 17289 SL O1 17468 -0.675000 15.99940
17469 HG 17289 SL H1 17469 0.400000 2.01600
17470 SI 17290 SL Si1 17470 1.100000 28.08600
17471 OA 17290 SL O1 17471 -0.675000 15.99940
17472 HG 17290 SL H1 17472 0.400000 2.01600
17473 SI 17291 SL Si1 17473 1.100000 28.08600
17474 OA 17291 SL O1 17474 -0.675000 15.99940
17475 HG 17291 SL H1 17475 0.400000 2.01600
17476 SI 17292 SL Si1 17476 1.100000 28.08600
17477 OA 17292 SL O1 17477 -0.675000 15.99940
17478 HG 17292 SL H1 17478 0.400000 2.01600
17479 SI 17293 SL Si1 17479 1.100000 28.08600
17480 OA 17293 SL O1 17480 -0.675000 15.99940
17481 HG 17293 SL H1 17481 0.400000 2.01600
17482 SI 17294 SL Si1 17482 1.100000 28.08600
17483 OA 17294 SL O1 17483 -0.675000 15.99940
17484 HG 17294 SL H1 17484 0.400000 2.01600
17485 SI 17295 SL Si1 17485 1.100000 28.08600
17486 OA 17295 SL O1 17486 -0.675000 15.99940
17487 HG 17295 SL H1 17487 0.400000 2.01600
17488 SI 17296 SL Si1 17488 1.100000 28.08600
17489 OA 17296 SL O1 17489 -0.675000 15.99940
17490 HG 17296 SL H1 17490 0.400000 2.01600
17491 SI 17297 SL Si1 17491 1.100000 28.08600
17492 OA 17297 SL O1 17492 -0.675000 15.99940
17493 HG 17297 SL H1 17493 0.400000 2.01600
17494 SI 17298 SL Si1 17494 1.100000 28.08600
17495 OA 17298 SL O1 17495 -0.675000 15.99940
17496 HG 17298 SL H1 17496 0.400000 2.01600
17497 SI 17299 SL Si1 17497 1.100000 28.08600
17498 OA 17299 SL O1 17498 -0.675000 15.99940
17499 HG 17299 SL H1 17499 0.400000 2.01600
17500 SI 17300 SL Si1 17500 1.100000 28.08600
17501 OA 17300 SL O1 17501 -0.675000 15.99940
17502 HG 17300 SL H1 17502 0.400000 2.01600
17503 SI 17301 SL Si1 17503 1.100000 28.08600
17504 OA 17301 SL O1 17504 -0.675000 15.99940
17505 HG 17301 SL H1 17505 0.400000 2.01600
17506 SI 17302 SL Si1 17506 1.100000 28.08600
17507 OA 17302 SL O1 17507 -0.675000 15.99940
17508 HG 17302 SL H1 17508 0.400000 2.01600
17509 SI 17303 SL Si1 17509 1.100000 28.08600
17510 OA 17303 SL O1 17510 -0.675000 15.99940
17511 HG 17303 SL H1 17511 0.400000 2.01600
17512 SI 17304 SL Si1 17512 1.100000 28.08600
17513 OA 17304 SL O1 17513 -0.675000 15.99940
17514 HG 17304 SL H1 17514 0.400000 2.01600
17515 SI 17305 SL Si1 17515 1.100000 28.08600
17516 OA 17305 SL O1 17516 -0.675000 15.99940
17517 HG 17305 SL H1 17517 0.400000 2.01600
17518 SI 17306 SL Si1 17518 1.100000 28.08600
17519 OA 17306 SL O1 17519 -0.675000 15.99940
17520 HG 17306 SL H1 17520 0.400000 2.01600
17521 SI 17307 SL Si1 17521 1.100000 28.08600
17522 OA 17307 SL O1 17522 -0.675000 15.99940
17523 HG 17307 SL H1 17523 0.400000 2.01600
17524 SI 17308 SL Si1 17524 1.100000 28.08600
17525 OA 17308 SL O1 17525 -0.675000 15.99940
17526 HG 17308 SL H1 17526 0.400000 2.01600
17527 SI 17309 SL Si1 17527 1.100000 28.08600
17528 OA 17309 SL O1 17528 -0.675000 15.99940
17529 HG 17309 SL H1 17529 0.400000 2.01600
17530 SI 17310 SL Si1 17530 1.100000 28.08600
17531 OA 17310 SL O1 17531 -0.675000 15.99940
17532 HG 17310 SL H1 17532 0.400000 2.01600
17533 SI 17311 SL Si1 17533 1.100000 28.08600
17534 OA 17311 SL O1 17534 -0.675000 15.99940
17535 HG 17311 SL H1 17535 0.400000 2.01600
17536 SI 17312 SL Si1 17536 1.100000 28.08600
17537 OA 17312 SL O1 17537 -0.675000 15.99940
17538 HG 17312 SL H1 17538 0.400000 2.01600
17539 SI 17313 SL Si1 17539 1.100000 28.08600
17540 OA 17313 SL O1 17540 -0.675000 15.99940
17541 HG 17313 SL H1 17541 0.400000 2.01600
17542 SI 17314 SL Si1 17542 1.100000 28.08600
17543 OA 17314 SL O1 17543 -0.675000 15.99940
17544 HG 17314 SL H1 17544 0.400000 2.01600
17545 SI 17315 SL Si1 17545 1.100000 28.08600
17546 OA 17315 SL O1 17546 -0.675000 15.99940
17547 HG 17315 SL H1 17547 0.400000 2.01600
17548 SI 17316 SL Si1 17548 1.100000 28.08600
17549 OA 17316 SL O1 17549 -0.675000 15.99940
17550 HG 17316 SL H1 17550 0.400000 2.01600
17551 SI 17317 SL Si1 17551 1.100000 28.08600
17552 OA 17317 SL O1 17552 -0.675000 15.99940
17553 HG 17317 SL H1 17553 0.400000 2.01600
17554 SI 17318 SL Si1 17554 1.100000 28.08600
17555 OA 17318 SL O1 17555 -0.675000 15.99940
17556 HG 17318 SL H1 17556 0.400000 2.01600
17557 SI 17319 SL Si1 17557 1.100000 28.08600
17558 OA 17319 SL O1 17558 -0.675000 15.99940
17559 HG 17319 SL H1 17559 0.400000 2.01600
17560 SI 17320 SL Si1 17560 1.100000 28.08600
17561 OA 17320 SL O1 17561 -0.675000 15.99940
17562 HG 17320 SL H1 17562 0.400000 2.01600
17563 SI 17321 SL Si1 17563 1.100000 28.08600
17564 OA 17321 SL O1 17564 -0.675000 15.99940
17565 HG 17321 SL H1 17565 0.400000 2.01600
17566 SI 17322 SL Si1 17566 1.100000 28.08600
17567 OA 17322 SL O1 17567 -0.675000 15.99940
17568 HG 17322 SL H1 17568 0.400000 2.01600
17569 SI 17323 SL Si1 17569 1.100000 28.08600
17570 OA 17323 SL O1 17570 -0.675000 15.99940
17571 HG 17323 SL H1 17571 0.400000 2.01600
17572 SI 17324 SL Si1 17572 1.100000 28.08600
17573 OA 17324 SL O1 17573 -0.675000 15.99940
17574 HG 17324 SL H1 17574 0.400000 2.01600
17575 SI 17325 SL Si1 17575 1.100000 28.08600
17576 OA 17325 SL O1 17576 -0.675000 15.99940
17577 HG 17325 SL H1 17577 0.400000 2.01600
17578 SI 17326 SL Si1 17578 1.100000 28.08600
17579 OA 17326 SL O1 17579 -0.675000 15.99940
17580 HG 17326 SL H1 17580 0.400000 2.01600
17581 SI 17327 SL Si1 17581 1.100000 28.08600
17582 OA 17327 SL O1 17582 -0.675000 15.99940
17583 HG 17327 SL H1 17583 0.400000 2.01600
17584 SI 17328 SL Si1 17584 1.100000 28.08600
17585 OA 17328 SL O1 17585 -0.675000 15.99940
17586 HG 17328 SL H1 17586 0.400000 2.01600
17587 SI 17329 SL Si1 17587 1.100000 28.08600
17588 OA 17329 SL O1 17588 -0.675000 15.99940
17589 HG 17329 SL H1 17589 0.400000 2.01600
17590 SI 17330 SL Si1 17590 1.100000 28.08600
17591 OA 17330 SL O1 17591 -0.675000 15.99940
17592 HG 17330 SL H1 17592 0.400000 2.01600
17593 SI 17331 SL Si1 17593 1.100000 28.08600
17594 OA 17331 SL O1 17594 -0.675000 15.99940
17595 HG 17331 SL H1 17595 0.400000 2.01600
17596 SI 17332 SL Si1 17596 1.100000 28.08600
17597 OA 17332 SL O1 17597 -0.675000 15.99940
17598 HG 17332 SL H1 17598 0.400000 2.01600
17599 SI 17333 SL Si1 17599 1.100000 28.08600
17600 OA 17333 SL O1 17600 -0.675000 15.99940
17601 HG 17333 SL H1 17601 0.400000 2.01600
17602 SI 17334 SL Si1 17602 1.100000 28.08600
17603 OA 17334 SL O1 17603 -0.675000 15.99940
17604 HG 17334 SL H1 17604 0.400000 2.01600
17605 SI 17335 SL Si1 17605 1.100000 28.08600
17606 OA 17335 SL O1 17606 -0.675000 15.99940
17607 HG 17335 SL H1 17607 0.400000 2.01600
17608 SI 17336 SL Si1 17608 1.100000 28.08600
17609 OA 17336 SL O1 17609 -0.675000 15.99940
17610 HG 17336 SL H1 17610 0.400000 2.01600
17611 SI 17337 SL Si1 17611 1.100000 28.08600
17612 OA 17337 SL O1 17612 -0.675000 15.99940
17613 HG 17337 SL H1 17613 0.400000 2.01600
17614 SI 17338 SL Si1 17614 1.100000 28.08600
17615 OA 17338 SL O1 17615 -0.675000 15.99940
17616 HG 17338 SL H1 17616 0.400000 2.01600
17617 SI 17339 SL Si1 17617 1.100000 28.08600
17618 OA 17339 SL O1 17618 -0.675000 15.99940
17619 HG 17339 SL H1 17619 0.400000 2.01600
17620 SI 17340 SL Si1 17620 1.100000 28.08600
17621 OA 17340 SL O1 17621 -0.675000 15.99940
17622 HG 17340 SL H1 17622 0.400000 2.01600
17623 SI 17341 SL Si1 17623 1.100000 28.08600
17624 OA 17341 SL O1 17624 -0.675000 15.99940
17625 HG 17341 SL H1 17625 0.400000 2.01600
17626 SI 17342 SL Si1 17626 1.100000 28.08600
17627 OA 17342 SL O1 17627 -0.675000 15.99940
17628 HG 17342 SL H1 17628 0.400000 2.01600
17629 SI 17343 SL Si1 17629 1.100000 28.08600
17630 OA 17343 SL O1 17630 -0.675000 15.99940
17631 HG 17343 SL H1 17631 0.400000 2.01600
17632 SI 17344 SL Si1 17632 1.100000 28.08600
17633 OA 17344 SL O1 17633 -0.675000 15.99940
17634 HG 17344 SL H1 17634 0.400000 2.01600
17635 SI 17345 SL Si1 17635 1.100000 28.08600
17636 OA 17345 SL O1 17636 -0.675000 15.99940
17637 HG 17345 SL H1 17637 0.400000 2.01600
17638 SI 17346 SL Si1 17638 1.100000 28.08600
17639 OA 17346 SL O1 17639 -0.675000 15.99940
17640 HG 17346 SL H1 17640 0.400000 2.01600
17641 SI 17347 SL Si1 17641 1.100000 28.08600
17642 OA 17347 SL O1 17642 -0.675000 15.99940
17643 HG 17347 SL H1 17643 0.400000 2.01600
17644 SI 17348 SL Si1 17644 1.100000 28.08600
17645 OA 17348 SL O1 17645 -0.675000 15.99940
17646 HG 17348 SL H1 17646 0.400000 2.01600
17647 SI 17349 SL Si1 17647 1.100000 28.08600
17648 OA 17349 SL O1 17648 -0.675000 15.99940
17649 HG 17349 SL H1 17649 0.400000 2.01600
17650 SI 17350 SL Si1 17650 1.100000 28.08600
17651 OA 17350 SL O1 17651 -0.675000 15.99940
17652 HG 17350 SL H1 17652 0.400000 2.01600
17653 SI 17351 SL Si1 17653 1.100000 28.08600
17654 OA 17351 SL O1 17654 -0.675000 15.99940
17655 HG 17351 SL H1 17655 0.400000 2.01600
17656 SI 17352 SL Si1 17656 1.100000 28.08600
17657 OA 17352 SL O1 17657 -0.675000 15.99940
17658 HG 17352 SL H1 17658 0.400000 2.01600
17659 SI 17353 SL Si1 17659 1.100000 28.08600
17660 OA 17353 SL O1 17660 -0.675000 15.99940
17661 HG 17353 SL H1 17661 0.400000 2.01600
17662 SI 17354 SL Si1 17662 1.100000 28.08600
17663 OA 17354 SL O1 17663 -0.675000 15.99940
17664 HG 17354 SL H1 17664 0.400000 2.01600
17665 SI 17355 SL Si1 17665 1.100000 28.08600
17666 OA 17355 SL O1 17666 -0.675000 15.99940
17667 HG 17355 SL H1 17667 0.400000 2.01600
17668 SI 17356 SL Si1 17668 1.100000 28.08600
17669 OA 17356 SL O1 17669 -0.675000 15.99940
17670 HG 17356 SL H1 17670 0.400000 2.01600
17671 SI 17357 SL Si1 17671 1.100000 28.08600
17672 OA 17357 SL O1 17672 -0.675000 15.99940
17673 HG 17357 SL H1 17673 0.400000 2.01600
17674 SI 17358 SL Si1 17674 1.100000 28.08600
17675 OA 17358 SL O1 17675 -0.675000 15.99940
17676 HG 17358 SL H1 17676 0.400000 2.01600
17677 SI 17359 SL Si1 17677 1.100000 28.08600
17678 OA 17359 SL O1 17678 -0.675000 15.99940
17679 HG 17359 SL H1 17679 0.400000 2.01600
17680 SI 17360 SL Si1 17680 1.100000 28.08600
17681 OA 17360 SL O1 17681 -0.675000 15.99940
17682 HG 17360 SL H1 17682 0.400000 2.01600
17683 SI 17361 SL Si1 17683 1.100000 28.08600
17684 OA 17361 SL O1 17684 -0.675000 15.99940
17685 HG 17361 SL H1 17685 0.400000 2.01600
17686 SI 17362 SL Si1 17686 1.100000 28.08600
17687 OA 17362 SL O1 17687 -0.675000 15.99940
17688 HG 17362 SL H1 17688 0.400000 2.01600
17689 SI 17363 SL Si1 17689 1.100000 28.08600
17690 OA 17363 SL O1 17690 -0.675000 15.99940
17691 HG 17363 SL H1 17691 0.400000 2.01600
17692 SI 17364 SL Si1 17692 1.100000 28.08600
17693 OA 17364 SL O1 17693 -0.675000 15.99940
17694 HG 17364 SL H1 17694 0.400000 2.01600
17695 SI 17365 SL Si1 17695 1.100000 28.08600
17696 OA 17365 SL O1 17696 -0.675000 15.99940
17697 HG 17365 SL H1 17697 0.400000 2.01600
17698 SI 17366 SL Si1 17698 1.100000 28.08600
17699 OA 17366 SL O1 17699 -0.675000 15.99940
17700 HG 17366 SL H1 17700 0.400000 2.01600
17701 SI 17367 SL Si1 17701 1.100000 28.08600
17702 OA 17367 SL O1 17702 -0.675000 15.99940
17703 HG 17367 SL H1 17703 0.400000 2.01600
17704 SI 17368 SL Si1 17704 1.100000 28.08600
17705 OA 17368 SL O1 17705 -0.675000 15.99940
17706 HG 17368 SL H1 17706 0.400000 2.01600
17707 SI 17369 SL Si1 17707 1.100000 28.08600
17708 OA 17369 SL O1 17708 -0.675000 15.99940
17709 HG 17369 SL H1 17709 0.400000 2.01600
17710 SI 17370 SL Si1 17710 1.100000 28.08600
17711 OA 17370 SL O1 17711 -0.675000 15.99940
17712 HG 17370 SL H1 17712 0.400000 2.01600
17713 SI 17371 SL Si1 17713 1.100000 28.08600
17714 OA 17371 SL O1 17714 -0.675000 15.99940
17715 HG 17371 SL H1 17715 0.400000 2.01600
17716 SI 17372 SL Si1 17716 1.100000 28.08600
17717 OA 17372 SL O1 17717 -0.675000 15.99940
17718 HG 17372 SL H1 17718 0.400000 2.01600
17719 SI 17373 SL Si1 17719 1.100000 28.08600
17720 OA 17373 SL O1 17720 -0.675000 15.99940
17721 HG 17373 SL H1 17721 0.400000 2.01600
17722 SI 17374 SL Si1 17722 1.100000 28.08600
17723 OA 17374 SL O1 17723 -0.675000 15.99940
17724 HG 17374 SL H1 17724 0.400000 2.01600
17725 SI 17375 SL Si1 17725 1.100000 28.08600
17726 OA 17375 SL O1 17726 -0.675000 15.99940
17727 HG 17375 SL H1 17727 0.400000 2.01600
17728 SI 17376 SL Si1 17728 1.100000 28.08600
17729 OA 17376 SL O1 17729 -0.675000 15.99940
17730 HG 17376 SL H1 17730 0.400000 2.01600
17731 SI 17377 SL Si1 17731 1.100000 28.08600
17732 OA 17377 SL O1 17732 -0.675000 15.99940
17733 HG 17377 SL H1 17733 0.400000 2.01600
17734 SI 17378 SL Si1 17734 1.100000 28.08600
17735 OA 17378 SL O1 17735 -0.675000 15.99940
17736 HG 17378 SL H1 17736 0.400000 2.01600
17737 SI 17379 SL Si1 17737 1.100000 28.08600
17738 OA 17379 SL O1 17738 -0.675000 15.99940
17739 HG 17379 SL H1 17739 0.400000 2.01600
17740 SI 17380 SL Si1 17740 1.100000 28.08600
17741 OA 17380 SL O1 17741 -0.675000 15.99940
17742 HG 17380 SL H1 17742 0.400000 2.01600
17743 SI 17381 SL Si1 17743 1.100000 28.08600
17744 OA 17381 SL O1 17744 -0.675000 15.99940
17745 HG 17381 SL H1 17745 0.400000 2.01600
17746 SI 17382 SL Si1 17746 1.100000 28.08600
17747 OA 17382 SL O1 17747 -0.675000 15.99940
17748 HG 17382 SL H1 17748 0.400000 2.01600
17749 SI 17383 SL Si1 17749 1.100000 28.08600
17750 OA 17383 SL O1 17750 -0.675000 15.99940
17751 HG 17383 SL H1 17751 0.400000 2.01600
17752 SI 17384 SL Si1 17752 1.100000 28.08600
17753 OA 17384 SL O1 17753 -0.675000 15.99940
17754 HG 17384 SL H1 17754 0.400000 2.01600
17755 SI 17385 SL Si1 17755 1.100000 28.08600
17756 OA 17385 SL O1 17756 -0.675000 15.99940
17757 HG 17385 SL H1 17757 0.400000 2.01600
17758 SI 17386 SL Si1 17758 1.100000 28.08600
17759 OA 17386 SL O1 17759 -0.675000 15.99940
17760 HG 17386 SL H1 17760 0.400000 2.01600
17761 SI 17387 SL Si1 17761 1.100000 28.08600
17762 OA 17387 SL O1 17762 -0.675000 15.99940
17763 HG 17387 SL H1 17763 0.400000 2.01600
17764 SI 17388 SL Si1 17764 1.100000 28.08600
17765 OA 17388 SL O1 17765 -0.675000 15.99940
17766 HG 17388 SL H1 17766 0.400000 2.01600
17767 SI 17389 SL Si1 17767 1.100000 28.08600
17768 OA 17389 SL O1 17768 -0.675000 15.99940
17769 HG 17389 SL H1 17769 0.400000 2.01600
17770 SI 17390 SL Si1 17770 1.100000 28.08600
17771 OA 17390 SL O1 17771 -0.675000 15.99940
17772 HG 17390 SL H1 17772 0.400000 2.01600
17773 SI 17391 SL Si1 17773 1.100000 28.08600
17774 OA 17391 SL O1 17774 -0.675000 15.99940
17775 HG 17391 SL H1 17775 0.400000 2.01600
17776 SI 17392 SL Si1 17776 1.100000 28.08600
17777 OA 17392 SL O1 17777 -0.675000 15.99940
17778 HG 17392 SL H1 17778 0.400000 2.01600
17779 SI 17393 SL Si1 17779 1.100000 28.08600
17780 OA 17393 SL O1 17780 -0.675000 15.99940
17781 HG 17393 SL H1 17781 0.400000 2.01600
17782 SI 17394 SL Si1 17782 1.100000 28.08600
17783 OA 17394 SL O1 17783 -0.675000 15.99940
17784 HG 17394 SL H1 17784 0.400000 2.01600
17785 SI 17395 SL Si1 17785 1.100000 28.08600
17786 OA 17395 SL O1 17786 -0.675000 15.99940
17787 HG 17395 SL H1 17787 0.400000 2.01600
17788 SI 17396 SL Si1 17788 1.100000 28.08600
17789 OA 17396 SL O1 17789 -0.675000 15.99940
17790 HG 17396 SL H1 17790 0.400000 2.01600
17791 SI 17397 SL Si1 17791 1.100000 28.08600
17792 OA 17397 SL O1 17792 -0.675000 15.99940
17793 HG 17397 SL H1 17793 0.400000 2.01600
17794 SI 17398 SL Si1 17794 1.100000 28.08600
17795 OA 17398 SL O1 17795 -0.675000 15.99940
17796 HG 17398 SL H1 17796 0.400000 2.01600
17797 SI 17399 SL Si1 17797 1.100000 28.08600
17798 OA 17399 SL O1 17798 -0.675000 15.99940
17799 HG 17399 SL H1 17799 0.400000 2.01600
17800 SI 17400 SL Si1 17800 1.100000 28.08600
17801 OA 17400 SL O1 17801 -0.675000 15.99940
17802 HG 17400 SL H1 17802 0.400000 2.01600
17803 SI 17401 SL Si1 17803 1.100000 28.08600
17804 OA 17401 SL O1 17804 -0.675000 15.99940
17805 HG 17401 SL H1 17805 0.400000 2.01600
17806 SI 17402 SL Si1 17806 1.100000 28.08600
17807 OA 17402 SL O1 17807 -0.675000 15.99940
17808 HG 17402 SL H1 17808 0.400000 2.01600
17809 SI 17403 SL Si1 17809 1.100000 28.08600
17810 OA 17403 SL O1 17810 -0.675000 15.99940
17811 HG 17403 SL H1 17811 0.400000 2.01600
17812 SI 17404 SL Si1 17812 1.100000 28.08600
17813 OA 17404 SL O1 17813 -0.675000 15.99940
17814 HG 17404 SL H1 17814 0.400000 2.01600
17815 SI 17405 SL Si1 17815 1.100000 28.08600
17816 OA 17405 SL O1 17816 -0.675000 15.99940
17817 HG 17405 SL H1 17817 0.400000 2.01600
17818 SI 17406 SL Si1 17818 1.100000 28.08600
17819 OA 17406 SL O1 17819 -0.675000 15.99940
17820 HG 17406 SL H1 17820 0.400000 2.01600
17821 SI 17407 SL Si1 17821 1.100000 28.08600
17822 OA 17407 SL O1 17822 -0.675000 15.99940
17823 HG 17407 SL H1 17823 0.400000 2.01600
17824 SI 17408 SL Si1 17824 1.100000 28.08600
17825 OA 17408 SL O1 17825 -0.675000 15.99940
17826 HG 17408 SL H1 17826 0.400000 2.01600
17827 SI 17409 SL Si1 17827 1.100000 28.08600
17828 OA 17409 SL O1 17828 -0.675000 15.99940
17829 HG 17409 SL H1 17829 0.400000 2.01600
17830 SI 17410 SL Si1 17830 1.100000 28.08600
17831 OA 17410 SL O1 17831 -0.675000 15.99940
17832 HG 17410 SL H1 17832 0.400000 2.01600
17833 SI 17411 SL Si1 17833 1.100000 28.08600
17834 OA 17411 SL O1 17834 -0.675000 15.99940
17835 HG 17411 SL H1 17835 0.400000 2.01600
17836 SI 17412 SL Si1 17836 1.100000 28.08600
17837 OA 17412 SL O1 17837 -0.675000 15.99940
17838 HG 17412 SL H1 17838 0.400000 2.01600
17839 SI 17413 SL Si1 17839 1.100000 28.08600
17840 OA 17413 SL O1 17840 -0.675000 15.99940
17841 HG 17413 SL H1 17841 0.400000 2.01600
17842 SI 17414 SL Si1 17842 1.100000 28.08600
17843 OA 17414 SL O1 17843 -0.675000 15.99940
17844 HG 17414 SL H1 17844 0.400000 2.01600
17845 SI 17415 SL Si1 17845 1.100000 28.08600
17846 OA 17415 SL O1 17846 -0.675000 15.99940
17847 HG 17415 SL H1 17847 0.400000 2.01600
17848 SI 17416 SL Si1 17848 1.100000 28.08600
17849 OA 17416 SL O1 17849 -0.675000 15.99940
17850 HG 17416 SL H1 17850 0.400000 2.01600
17851 SI 17417 SL Si1 17851 1.100000 28.08600
17852 OA 17417 SL O1 17852 -0.675000 15.99940
17853 HG 17417 SL H1 17853 0.400000 2.01600
17854 SI 17418 SL Si1 17854 1.100000 28.08600
17855 OA 17418 SL O1 17855 -0.675000 15.99940
17856 HG 17418 SL H1 17856 0.400000 2.01600
17857 SI 17419 SL Si1 17857 1.100000 28.08600
17858 OA 17419 SL O1 17858 -0.675000 15.99940
17859 HG 17419 SL H1 17859 0.400000 2.01600
17860 SI 17420 SL Si1 17860 1.100000 28.08600
17861 OA 17420 SL O1 17861 -0.675000 15.99940
17862 HG 17420 SL H1 17862 0.400000 2.01600
17863 SI 17421 SL Si1 17863 1.100000 28.08600
17864 OA 17421 SL O1 17864 -0.675000 15.99940
17865 HG 17421 SL H1 17865 0.400000 2.01600
17866 SI 17422 SL Si1 17866 1.100000 28.08600
17867 OA 17422 SL O1 17867 -0.675000 15.99940
17868 HG 17422 SL H1 17868 0.400000 2.01600
17869 SI 17423 SL Si1 17869 1.100000 28.08600
17870 OA 17423 SL O1 17870 -0.675000 15.99940
17871 HG 17423 SL H1 17871 0.400000 2.01600
17872 SI 17424 SL Si1 17872 1.100000 28.08600
17873 OA 17424 SL O1 17873 -0.675000 15.99940
17874 HG 17424 SL H1 17874 0.400000 2.01600
17875 SI 17425 SL Si1 17875 1.100000 28.08600
17876 OA 17425 SL O1 17876 -0.675000 15.99940
17877 HG 17425 SL H1 17877 0.400000 2.01600
17878 SI 17426 SL Si1 17878 1.100000 28.08600
17879 OA 17426 SL O1 17879 -0.675000 15.99940
17880 HG 17426 SL H1 17880 0.400000 2.01600
17881 SI 17427 SL Si1 17881 1.100000 28.08600
17882 OA 17427 SL O1 17882 -0.675000 15.99940
17883 HG 17427 SL H1 17883 0.400000 2.01600
17884 SI 17428 SL Si1 17884 1.100000 28.08600
17885 OA 17428 SL O1 17885 -0.675000 15.99940
17886 HG 17428 SL H1 17886 0.400000 2.01600
17887 SI 17429 SL Si1 17887 1.100000 28.08600
17888 OA 17429 SL O1 17888 -0.675000 15.99940
17889 HG 17429 SL H1 17889 0.400000 2.01600
17890 SI 17430 SL Si1 17890 1.100000 28.08600
17891 OA 17430 SL O1 17891 -0.675000 15.99940
17892 HG 17430 SL H1 17892 0.400000 2.01600
17893 SI 17431 SL Si1 17893 1.100000 28.08600
17894 OA 17431 SL O1 17894 -0.675000 15.99940
17895 HG 17431 SL H1 17895 0.400000 2.01600
17896 SI 17432 SL Si1 17896 1.100000 28.08600
17897 OA 17432 SL O1 17897 -0.675000 15.99940
17898 HG 17432 SL H1 17898 0.400000 2.01600
17899 SI 17433 SL Si1 17899 1.100000 28.08600
17900 OA 17433 SL O1 17900 -0.675000 15.99940
17901 HG 17433 SL H1 17901 0.400000 2.01600
17902 SI 17434 SL Si1 17902 1.100000 28.08600
17903 OA 17434 SL O1 17903 -0.675000 15.99940
17904 HG 17434 SL H1 17904 0.400000 2.01600
17905 SI 17435 SL Si1 17905 1.100000 28.08600
17906 OA 17435 SL O1 17906 -0.675000 15.99940
17907 HG 17435 SL H1 17907 0.400000 2.01600
17908 SI 17436 SL Si1 17908 1.100000 28.08600
17909 OA 17436 SL O1 17909 -0.675000 15.99940
17910 HG 17436 SL H1 17910 0.400000 2.01600
17911 SI 17437 SL Si1 17911 1.100000 28.08600
17912 OA 17437 SL O1 17912 -0.675000 15.99940
17913 HG 17437 SL H1 17913 0.400000 2.01600
17914 SI 17438 SL Si1 17914 1.100000 28.08600
17915 OA 17438 SL O1 17915 -0.675000 15.99940
17916 HG 17438 SL H1 17916 0.400000 2.01600
17917 SI 17439 SL Si1 17917 1.100000 28.08600
17918 OA 17439 SL O1 17918 -0.675000 15.99940
17919 HG 17439 SL H1 17919 0.400000 2.01600
17920 SI 17440 SL Si1 17920 1.100000 28.08600
17921 OA 17440 SL O1 17921 -0.675000 15.99940
17922 HG 17440 SL H1 17922 0.400000 2.01600
17923 SI 17441 SL Si1 17923 1.100000 28.08600
17924 OA 17441 SL O1 17924 -0.675000 15.99940
17925 HG 17441 SL H1 17925 0.400000 2.01600
17926 SI 17442 SL Si1 17926 1.100000 28.08600
17927 OA 17442 SL O1 17927 -0.675000 15.99940
17928 HG 17442 SL H1 17928 0.400000 2.01600
17929 SI 17443 SL Si1 17929 1.100000 28.08600
17930 OA 17443 SL O1 17930 -0.675000 15.99940
17931 HG 17443 SL H1 17931 0.400000 2.01600
17932 SI 17444 SL Si1 17932 1.100000 28.08600
17933 OA 17444 SL O1 17933 -0.675000 15.99940
17934 HG 17444 SL H1 17934 0.400000 2.01600
17935 SI 17445 SL Si1 17935 1.100000 28.08600
17936 OA 17445 SL O1 17936 -0.675000 15.99940
17937 HG 17445 SL H1 17937 0.400000 2.01600
17938 SI 17446 SL Si1 17938 1.100000 28.08600
17939 OA 17446 SL O1 17939 -0.675000 15.99940
17940 HG 17446 SL H1 17940 0.400000 2.01600
17941 SI 17447 SL Si1 17941 1.100000 28.08600
17942 OA 17447 SL O1 17942 -0.675000 15.99940
17943 HG 17447 SL H1 17943 0.400000 2.01600
17944 SI 17448 SL Si1 17944 1.100000 28.08600
17945 OA 17448 SL O1 17945 -0.675000 15.99940
17946 HG 17448 SL H1 17946 0.400000 2.01600
17947 SI 17449 SL Si1 17947 1.100000 28.08600
17948 OA 17449 SL O1 17948 -0.675000 15.99940
17949 HG 17449 SL H1 17949 0.400000 2.01600
17950 SI 17450 SL Si1 17950 1.100000 28.08600
17951 OA 17450 SL O1 17951 -0.675000 15.99940
17952 HG 17450 SL H1 17952 0.400000 2.01600
17953 SI 17451 SL Si1 17953 1.100000 28.08600
17954 OA 17451 SL O1 17954 -0.675000 15.99940
17955 HG 17451 SL H1 17955 0.400000 2.01600
17956 SI 17452 SL Si1 17956 1.100000 28.08600
17957 OA 17452 SL O1 17957 -0.675000 15.99940
17958 HG 17452 SL H1 17958 0.400000 2.01600
17959 SI 17453 SL Si1 17959 1.100000 28.08600
17960 OA 17453 SL O1 17960 -0.675000 15.99940
17961 HG 17453 SL H1 17961 0.400000 2.01600
17962 SI 17454 SL Si1 17962 1.100000 28.08600
17963 OA 17454 SL O1 17963 -0.675000 15.99940
17964 HG 17454 SL H1 17964 0.400000 2.01600
17965 SI 17455 SL Si1 17965 1.100000 28.08600
17966 OA 17455 SL O1 17966 -0.675000 15.99940
17967 HG 17455 SL H1 17967 0.400000 2.01600
17968 SI 17456 SL Si1 17968 1.100000 28.08600
17969 OA 17456 SL O1 17969 -0.675000 15.99940
17970 HG 17456 SL H1 17970 0.400000 2.01600
17971 SI 17457 SL Si1 17971 1.100000 28.08600
17972 OA 17457 SL O1 17972 -0.675000 15.99940
17973 HG 17457 SL H1 17973 0.400000 2.01600
17974 SI 17458 SL Si1 17974 1.100000 28.08600
17975 OA 17458 SL O1 17975 -0.675000 15.99940
17976 HG 17458 SL H1 17976 0.400000 2.01600
17977 SI 17459 SL Si1 17977 1.100000 28.08600
17978 OA 17459 SL O1 17978 -0.675000 15.99940
17979 HG 17459 SL H1 17979 0.400000 2.01600
17980 SI 17460 SL Si1 17980 1.100000 28.08600
17981 OA 17460 SL O1 17981 -0.675000 15.99940
17982 HG 17460 SL H1 17982 0.400000 2.01600
17983 SI 17461 SL Si1 17983 1.100000 28.08600
17984 OA 17461 SL O1 17984 -0.675000 15.99940
17985 HG 17461 SL H1 17985 0.400000 2.01600
17986 SI 17462 SL Si1 17986 1.100000 28.08600
17987 OA 17462 SL O1 17987 -0.675000 15.99940
17988 HG 17462 SL H1 17988 0.400000 2.01600
17989 SI 17463 SL Si1 17989 1.100000 28.08600
17990 OA 17463 SL O1 17990 -0.675000 15.99940
17991 HG 17463 SL H1 17991 0.400000 2.01600
17992 SI 17464 SL Si1 17992 1.100000 28.08600
17993 OA 17464 SL O1 17993 -0.675000 15.99940
17994 HG 17464 SL H1 17994 0.400000 2.01600
17995 SI 17465 SL Si1 17995 1.100000 28.08600
17996 OA 17465 SL O1 17996 -0.675000 15.99940
17997 HG 17465 SL H1 17997 0.400000 2.01600
17998 SI 17466 SL Si1 17998 1.100000 28.08600
17999 OA 17466 SL O1 17999 -0.675000 15.99940
18000 HG 17466 SL H1 18000 0.400000 2.01600
18001 SI 17467 SL Si1 18001 1.100000 28.08600
18002 OA 17467 SL O1 18002 -0.675000 15.99940
18003 HG 17467 SL H1 18003 0.400000 2.01600
18004 SI 17468 SLG Si1 18004 1.100000 28.08600
18005 OA 17468 SLG O1 18005 -0.675000 15.99940
18006 HG 17468 SLG H1 18006 0.400000 2.01600
18007 OA 17468 SLG O2 18007 -0.675000 15.99940
18008 HG 17468 SLG H2 18008 0.400000 2.01600
18009 SI 17469 SLG Si1 18009 1.100000 28.08600
18010 OA 17469 SLG O1 18010 -0.675000 15.99940
18011 HG 17469 SLG H1 18011 0.400000 2.01600
18012 OA 17469 SLG O2 18012 -0.675000 15.99940
18013 HG 17469 SLG H2 18013 0.400000 2.01600
18014 SI 17470 SLG Si1 18014 1.100000 28.08600
18015 OA 17470 SLG O1 18015 -0.675000 15.99940
18016 HG 17470 SLG H1 18016 0.400000 2.01600
18017 OA 17470 SLG O2 18017 -0.675000 15.99940
18018 HG 17470 SLG H2 18018 0.400000 2.01600
18019 SI 17471 SLG Si1 18019 1.100000 28.08600
18020 OA 17471 SLG O1 18020 -0.675000 15.99940
18021 HG 17471 SLG H1 18021 0.400000 2.01600
18022 OA 17471 SLG O2 18022 -0.675000 15.99940
18023 HG 17471 SLG H2 18023 0.400000 2.01600
18024 SI 17472 SLG Si1 18024 1.100000 28.08600
18025 OA 17472 SLG O1 18025 -0.675000 15.99940
18026 HG 17472 SLG H1 18026 0.400000 2.01600
18027 OA 17472 SLG O2 18027 -0.675000 15.99940
18028 HG 17472 SLG H2 18028 0.400000 2.01600
18029 SI 17473 SLG Si1 18029 1.100000 28.08600
18030 OA 17473 SLG O1 18030 -0.675000 15.99940
18031 HG 17473 SLG H1 18031 0.400000 2.01600
18032 OA 17473 SLG O2 18032 -0.675000 15.99940
18033 HG 17473 SLG H2 18033 0.400000 2.01600
18034 SI 17474 SLG Si1 18034 1.100000 28.08600
18035 OA 17474 SLG O1 18035 -0.675000 15.99940
18036 HG 17474 SLG H1 18036 0.400000 2.01600
18037 OA 17474 SLG O2 18037 -0.675000 15.99940
18038 HG 17474 SLG H2 18038 0.400000 2.01600
18039 SI 17475 SLG Si1 18039 1.100000 28.08600
18040 OA 17475 SLG O1 18040 -0.675000 15.99940
18041 HG 17475 SLG H1 18041 0.400000 2.01600
18042 OA 17475 SLG O2 18042 -0.675000 15.99940
18043 HG 17475 SLG H2 18043 0.400000 2.01600
18044 SI 17476 SLG Si1 18044 1.100000 28.08600
18045 OA 17476 SLG O1 18045 -0.675000 15.99940
18046 HG 17476 SLG H1 18046 0.400000 2.01600
18047 OA 17476 SLG O2 18047 -0.675000 15.99940
18048 HG 17476 SLG H2 18048 0.400000 2.01600
18049 SI 17477 SLG Si1 18049 1.100000 28.08600
18050 OA 17477 SLG O1 18050 -0.675000 15.99940
18051 HG 17477 SLG H1 18051 0.400000 2.01600
18052 OA 17477 SLG O2 18052 -0.675000 15.99940
18053 HG 17477 SLG H2 18053 0.400000 2.01600
18054 SI 17478 SLG Si1 18054 1.100000 28.08600
18055 OA 17478 SLG O1 18055 -0.675000 15.99940
18056 HG 17478 SLG H1 18056 0.400000 2.01600
18057 OA 17478 SLG O2 18057 -0.675000 15.99940
18058 HG 17478 SLG H2 18058 0.400000 2.01600
18059 SI 17479 SLG Si1 18059 1.100000 28.08600
18060 OA 17479 SLG O1 18060 -0.675000 15.99940
18061 HG 17479 SLG H1 18061 0.400000 2.01600
18062 OA 17479 SLG O2 18062 -0.675000 15.99940
18063 HG 17479 SLG H2 18063 0.400000 2.01600
18064 SI 17480 SLG Si1 18064 1.100000 28.08600
18065 OA 17480 SLG O1 18065 -0.675000 15.99940
18066 HG 17480 SLG H1 18066 0.400000 2.01600
18067 OA 17480 SLG O2 18067 -0.675000 15.99940
18068 HG 17480 SLG H2 18068 0.400000 2.01600
18069 SI 17481 SLG Si1 18069 1.100000 28.08600
18070 OA 17481 SLG O1 18070 -0.675000 15.99940
18071 HG 17481 SLG H1 18071 0.400000 2.01600
18072 OA 17481 SLG O2 18072 -0.675000 15.99940
18073 HG 17481 SLG H2 18073 0.400000 2.01600
18074 SI 17482 SLG Si1 18074 1.100000 28.08600
18075 OA 17482 SLG O1 18075 -0.675000 15.99940
18076 HG 17482 SLG H1 18076 0.400000 2.01600
18077 OA 17482 SLG O2 18077 -0.675000 15.99940
18078 HG 17482 SLG H2 18078 0.400000 2.01600
18079 SI 17483 SLG Si1 18079 1.100000 28.08600
18080 OA 17483 SLG O1 18080 -0.675000 15.99940
18081 HG 17483 SLG H1 18081 0.400000 2.01600
18082 OA 17483 SLG O2 18082 -0.675000 15.99940
18083 HG 17483 SLG H2 18083 0.400000 2.01600
18084 SI 17484 SLG Si1 18084 1.100000 28.08600
18085 OA 17484 SLG O1 18085 -0.675000 15.99940
18086 HG 17484 SLG H1 18086 0.400000 2.01600
18087 OA 17484 SLG O2 18087 -0.675000 15.99940
18088 HG 17484 SLG H2 18088 0.400000 2.01600
18089 SI 17485 SLG Si1 18089 1.100000 28.08600
18090 OA 17485 SLG O1 18090 -0.675000 15.99940
18091 HG 17485 SLG H1 18091 0.400000 2.01600
18092 OA 17485 SLG O2 18092 -0.675000 15.99940
18093 HG 17485 SLG H2 18093 0.400000 2.01600
18094 SI 17486 SLG Si1 18094 1.100000 28.08600
18095 OA 17486 SLG O1 18095 -0.675000 15.99940
18096 HG 17486 SLG H1 18096 0.400000 2.01600
18097 OA 17486 SLG O2 18097 -0.675000 15.99940
18098 HG 17486 SLG H2 18098 0.400000 2.01600
18099 SI 17487 SLG Si1 18099 1.100000 28.08600
18100 OA 17487 SLG O1 18100 -0.675000 15.99940
18101 HG 17487 SLG H1 18101 0.400000 2.01600
18102 OA 17487 SLG O2 18102 -0.675000 15.99940
18103 HG 17487 SLG H2 18103 0.400000 2.01600
18104 SI 17488 SLG Si1 18104 1.100000 28.08600
18105 OA 17488 SLG O1 18105 -0.675000 15.99940
18106 HG 17488 SLG H1 18106 0.400000 2.01600
18107 OA 17488 SLG O2 18107 -0.675000 15.99940
18108 HG 17488 SLG H2 18108 0.400000 2.01600
18109 SI 17489 SLG Si1 18109 1.100000 28.08600
18110 OA 17489 SLG O1 18110 -0.675000 15.99940
18111 HG 17489 SLG H1 18111 0.400000 2.01600
18112 OA 17489 SLG O2 18112 -0.675000 15.99940
18113 HG 17489 SLG H2 18113 0.400000 2.01600
18114 SI 17490 SLG Si1 18114 1.100000 28.08600
18115 OA 17490 SLG O1 18115 -0.675000 15.99940
18116 HG 17490 SLG H1 18116 0.400000 2.01600
18117 OA 17490 SLG O2 18117 -0.675000 15.99940
18118 HG 17490 SLG H2 18118 0.400000 2.01600
18119 SI 17491 SLG Si1 18119 1.100000 28.08600
18120 OA 17491 SLG O1 18120 -0.675000 15.99940
18121 HG 17491 SLG H1 18121 0.400000 2.01600
18122 OA 17491 SLG O2 18122 -0.675000 15.99940
18123 HG 17491 SLG H2 18123 0.400000 2.01600
18124 SI 17492 SLG Si1 18124 1.100000 28.08600
18125 OA 17492 SLG O1 18125 -0.675000 15.99940
18126 HG 17492 SLG H1 18126 0.400000 2.01600
18127 OA 17492 SLG O2 18127 -0.675000 15.99940
18128 HG 17492 SLG H2 18128 0.400000 2.01600
18129 SI 17493 SLG Si1 18129 1.100000 28.08600
18130 OA 17493 SLG O1 18130 -0.675000 15.99940
18131 HG 17493 SLG H1 18131 0.400000 2.01600
18132 OA 17493 SLG O2 18132 -0.675000 15.99940
18133 HG 17493 SLG H2 18133 0.400000 2.01600
18134 SI 17494 SLG Si1 18134 1.100000 28.08600
18135 OA 17494 SLG O1 18135 -0.675000 15.99940
18136 HG 17494 SLG H1 18136 0.400000 2.01600
18137 OA 17494 SLG O2 18137 -0.675000 15.99940
18138 HG 17494 SLG H2 18138 0.400000 2.01600

[ bonds ]
; ai aj funct params
1 11610 1 0.16500 119244.000000
1 15368 1 0.16500 119244.000000
2 11610 1 0.16500 119244.000000
2 16101 1 0.16500 119244.000000
3 11610 1 0.16500 119244.000000
3 16304 1 0.16500 119244.000000
4 11610 1 0.16500 119244.000000
4 11964 1 0.16500 119244.000000
5 11742 1 0.16500 119244.000000
5 17200 1 0.16500 119244.000000
6 17200 1 0.16500 119244.000000
6 17629 1 0.16500 119244.000000
7 11611 1 0.16500 119244.000000
7 16220 1 0.16500 119244.000000
8 11611 1 0.16500 119244.000000
8 17106 1 0.16500 119244.000000
9 11611 1 0.16500 119244.000000
9 12024 1 0.16500 119244.000000
10 11611 1 0.16500 119244.000000
10 12733 1 0.16500 119244.000000
11 11612 1 0.16500 119244.000000
11 12544 1 0.16500 119244.000000
12 11612 1 0.16500 119244.000000
12 12891 1 0.16500 119244.000000
13 11612 1 0.16500 119244.000000
13 13971 1 0.16500 119244.000000
14 11613 1 0.16500 119244.000000
14 11649 1 0.16500 119244.000000
15 11613 1 0.16500 119244.000000
15 13899 1 0.16500 119244.000000
16 11613 1 0.16500 119244.000000
16 14174 1 0.16500 119244.000000
17 11613 1 0.16500 119244.000000
17 12821 1 0.16500 119244.000000
18 12639 1 0.16500 119244.000000
18 17803 1 0.16500 119244.000000
19 11614 1 0.16500 119244.000000
19 15848 1 0.16500 119244.000000
20 11614 1 0.16500 119244.000000
20 14564 1 0.16500 119244.000000
21 11614 1 0.16500 119244.000000
21 14478 1 0.16500 119244.000000
22 11615 1 0.16500 119244.000000
22 15646 1 0.16500 119244.000000
23 11615 1 0.16500 119244.000000
23 16670 1 0.16500 119244.000000
24 11615 1 0.16500 119244.000000
24 18074 1 0.16500 119244.000000
25 11615 1 0.16500 119244.000000
25 13143 1 0.16500 119244.000000
26 11616 1 0.16500 119244.000000
26 12539 1 0.16500 119244.000000
27 11616 1 0.16500 119244.000000
27 14218 1 0.16500 119244.000000
28 11616 1 0.16500 119244.000000
28 15482 1 0.16500 119244.000000
29 11616 1 0.16500 119244.000000
29 16975 1 0.16500 119244.000000
30 11617 1 0.16500 119244.000000
30 17524 1 0.16500 119244.000000
31 11617 1 0.16500 119244.000000
31 15881 1 0.16500 119244.000000
32 11617 1 0.16500 119244.000000
32 14246 1 0.16500 119244.000000
33 11618 1 0.16500 119244.000000
33 14603 1 0.16500 119244.000000
34 11618 1 0.16500 119244.000000
34 16011 1 0.16500 119244.000000
35 11618 1 0.16500 119244.000000
35 13074 1 0.16500 119244.000000
36 11618 1 0.16500 119244.000000
36 15663 1 0.16500 119244.000000
37 11619 1 0.16500 119244.000000
37 14549 1 0.16500 119244.000000
38 11619 1 0.16500 119244.000000
38 13857 1 0.16500 119244.000000
39 11619 1 0.16500 119244.000000
39 12990 1 0.16500 119244.000000
40 11619 1 0.16500 119244.000000
40 14431 1 0.16500 119244.000000
41 11620 1 0.16500 119244.000000
41 15639 1 0.16500 119244.000000
42 11620 1 0.16500 119244.000000
42 14953 1 0.16500 119244.000000
43 11620 1 0.16500 119244.000000
43 16354 1 0.16500 119244.000000
44 11620 1 0.16500 119244.000000
44 16752 1 0.16500 119244.000000
45 11621 1 0.16500 119244.000000
45 15762 1 0.16500 119244.000000
46 11621 1 0.16500 119244.000000
46 17650 1 0.16500 119244.000000
47 11621 1 0.16500 119244.000000
47 14634 1 0.16500 119244.000000
48 11621 1 0.16500 119244.000000
48 16170 1 0.16500 119244.000000
49 11622 1 0.16500 119244.000000
49 14939 1 0.16500 119244.000000
50 11622 1 0.16500 119244.000000
50 15299 1 0.16500 119244.000000
51 11622 1 0.16500 119244.000000
51 14332 1 0.16500 119244.000000
52 11622 1 0.16500 119244.000000
52 12475 1 0.16500 119244.000000
53 11623 1 0.16500 119244.000000
53 14406 1 0.16500 119244.000000
54 11623 1 0.16500 119244.000000
54 12962 1 0.16500 119244.000000
55 11623 1 0.16500 119244.000000
55 16287 1 0.16500 119244.000000
56 11623 1 0.16500 119244.000000
56 12552 1 0.16500 119244.000000
57 11624 1 0.16500 119244.000000
57 14435 1 0.16500 119244.000000
58 11624 1 0.16500 119244.000000
58 14255 1 0.16500 119244.000000
59 11624 1 0.16500 119244.000000
59 12087 1 0.16500 119244.000000
60 11624 1 0.16500 119244.000000
60 15828 1 0.16500 119244.000000
61 11625 1 0.16500 119244.000000
61 18099 1 0.16500 119244.000000
62 11625 1 0.16500 119244.000000
62 12738 1 0.16500 119244.000000
63 11625 1 0.16500 119244.000000
63 11652 1 0.16500 119244.000000
64 11625 1 0.16500 119244.000000
64 12452 1 0.16500 119244.000000
65 11626 1 0.16500 119244.000000
65 11805 1 0.16500 119244.000000
66 11626 1 0.16500 119244.000000
66 16506 1 0.16500 119244.000000
67 11626 1 0.16500 119244.000000
67 16557 1 0.16500 119244.000000
68 17136 1 0.16500 119244.000000
68 17203 1 0.16500 119244.000000
69 15409 1 0.16500 119244.000000
69 17203 1 0.16500 119244.000000
70 11627 1 0.16500 119244.000000
70 15709 1 0.16500 119244.000000
71 11627 1 0.16500 119244.000000
71 14203 1 0.16500 119244.000000
72 11627 1 0.16500 119244.000000
72 16877 1 0.16500 119244.000000
73 11627 1 0.16500 119244.000000
73 16432 1 0.16500 119244.000000
74 11628 1 0.16500 119244.000000
74 14783 1 0.16500 119244.000000
75 11628 1 0.16500 119244.000000
75 14736 1 0.16500 119244.000000
76 11628 1 0.16500 119244.000000
76 16276 1 0.16500 119244.000000
77 11628 1 0.16500 119244.000000
77 17164 1 0.16500 119244.000000
78 11629 1 0.16500 119244.000000
78 12740 1 0.16500 119244.000000
79 11629 1 0.16500 119244.000000
79 12037 1 0.16500 119244.000000
80 11629 1 0.16500 119244.000000
80 15591 1 0.16500 119244.000000
81 11629 1 0.16500 119244.000000
81 15112 1 0.16500 119244.000000
82 11630 1 0.16500 119244.000000
82 14173 1 0.16500 119244.000000
83 11630 1 0.16500 119244.000000
83 17167 1 0.16500 119244.000000
84 11630 1 0.16500 119244.000000
84 15132 1 0.16500 119244.000000
85 11630 1 0.16500 119244.000000
85 17012 1 0.16500 119244.000000
86 13917 1 0.16500 119244.000000
86 13946 1 0.16500 119244.000000
87 11631 1 0.16500 119244.000000
87 13519 1 0.16500 119244.000000
88 11631 1 0.16500 119244.000000
88 13946 1 0.16500 119244.000000
89 11631 1 0.16500 119244.000000
89 16281 1 0.16500 119244.000000
90 11632 1 0.16500 119244.000000
90 15951 1 0.16500 119244.000000
91 11632 1 0.16500 119244.000000
91 16393 1 0.16500 119244.000000
92 11632 1 0.16500 119244.000000
92 15955 1 0.16500 119244.000000
93 11633 1 0.16500 119244.000000
93 14134 1 0.16500 119244.000000
94 11633 1 0.16500 119244.000000
94 13876 1 0.16500 119244.000000
95 11633 1 0.16500 119244.000000
95 16715 1 0.16500 119244.000000
96 11633 1 0.16500 119244.000000
96 12938 1 0.16500 119244.000000
97 11634 1 0.16500 119244.000000
97 15992 1 0.16500 119244.000000
98 11634 1 0.16500 119244.000000
98 13303 1 0.16500 119244.000000
99 11634 1 0.16500 119244.000000
99 14245 1 0.16500 119244.000000
100 11634 1 0.16500 119244.000000
100 16575 1 0.16500 119244.000000
101 11635 1 0.16500 119244.000000
101 11890 1 0.16500 119244.000000
102 11635 1 0.16500 119244.000000
102 14348 1 0.16500 119244.000000
103 11635 1 0.16500 119244.000000
103 12704 1 0.16500 119244.000000
104 11635 1 0.16500 119244.000000
104 16724 1 0.16500 119244.000000
105 11636 1 0.16500 119244.000000
105 12374 1 0.16500 119244.000000
106 11636 1 0.16500 119244.000000
106 17114 1 0.16500 119244.000000
107 11636 1 0.16500 119244.000000
107 16467 1 0.16500 119244.000000
108 11636 1 0.16500 119244.000000
108 16727 1 0.16500 119244.000000
109 11637 1 0.16500 119244.000000
109 15098 1 0.16500 119244.000000
110 11637 1 0.16500 119244.000000
110 16645 1 0.16500 119244.000000
111 11637 1 0.16500 119244.000000
111 13887 1 0.16500 119244.000000
112 11637 1 0.16500 119244.000000
112 16327 1 0.16500 119244.000000
113 11638 1 0.16500 119244.000000
113 12027 1 0.16500 119244.000000
114 11638 1 0.16500 119244.000000
114 12838 1 0.16500 119244.000000
115 11638 1 0.16500 119244.000000
115 16632 1 0.16500 119244.000000
116 11638 1 0.16500 119244.000000
116 12091 1 0.16500 119244.000000
117 11639 1 0.16500 119244.000000
117 14754 1 0.16500 119244.000000
118 11639 1 0.16500 119244.000000
118 12088 1 0.16500 119244.000000
119 11639 1 0.16500 119244.000000
119 15578 1 0.16500 119244.000000
120 11639 1 0.16500 119244.000000
120 12912 1 0.16500 119244.000000
121 11640 1 0.16500 119244.000000
121 17136 1 0.16500 119244.000000
122 11640 1 0.16500 119244.000000
122 17995 1 0.16500 119244.000000
123 11735 1 0.16500 119244.000000
123 17206 1 0.16500 119244.000000
124 17045 1 0.16500 119244.000000
124 17206 1 0.16500 119244.000000
125 17206 1 0.16500 119244.000000
125 17344 1 0.16500 119244.000000
126 11641 1 0.16500 119244.000000
126 12096 1 0.16500 119244.000000
127 11641 1 0.16500 119244.000000
127 11643 1 0.16500 119244.000000
128 11641 1 0.16500 119244.000000
128 12103 1 0.16500 119244.000000
129 11641 1 0.16500 119244.000000
129 11987 1 0.16500 119244.000000
130 11642 1 0.16500 119244.000000
130 13169 1 0.16500 119244.000000
131 11642 1 0.16500 119244.000000
131 14103 1 0.16500 119244.000000
132 11642 1 0.16500 119244.000000
132 14017 1 0.16500 119244.000000
133 11642 1 0.16500 119244.000000
133 16052 1 0.16500 119244.000000
134 11643 1 0.16500 119244.000000
134 13558 1 0.16500 119244.000000
135 11643 1 0.16500 119244.000000
135 13862 1 0.16500 119244.000000
136 11643 1 0.16500 119244.000000
136 15697 1 0.16500 119244.000000
137 11644 1 0.16500 119244.000000
137 17242 1 0.16500 119244.000000
138 11644 1 0.16500 119244.000000
138 15682 1 0.16500 119244.000000
139 11644 1 0.16500 119244.000000
139 12495 1 0.16500 119244.000000
140 11645 1 0.16500 119244.000000
140 12917 1 0.16500 119244.000000
141 11645 1 0.16500 119244.000000
141 14063 1 0.16500 119244.000000
142 11645 1 0.16500 119244.000000
142 12221 1 0.16500 119244.000000
143 11645 1 0.16500 119244.000000
143 12121 1 0.16500 119244.000000
144 11646 1 0.16500 119244.000000
144 15678 1 0.16500 119244.000000
145 11646 1 0.16500 119244.000000
145 12994 1 0.16500 119244.000000
146 11646 1 0.16500 119244.000000
146 12504 1 0.16500 119244.000000
147 11646 1 0.16500 119244.000000
147 12892 1 0.16500 119244.000000
148 14221 1 0.16500 119244.000000
148 15488 1 0.16500 119244.000000
149 11647 1 0.16500 119244.000000
149 15272 1 0.16500 119244.000000
150 11647 1 0.16500 119244.000000
150 15488 1 0.16500 119244.000000
151 11647 1 0.16500 119244.000000
151 11902 1 0.16500 119244.000000
152 11648 1 0.16500 119244.000000
152 15022 1 0.16500 119244.000000
153 11648 1 0.16500 119244.000000
153 12048 1 0.16500 119244.000000
154 11648 1 0.16500 119244.000000
154 15147 1 0.16500 119244.000000
155 11648 1 0.16500 119244.000000
155 12108 1 0.16500 119244.000000
156 11649 1 0.16500 119244.000000
156 12390 1 0.16500 119244.000000
157 11649 1 0.16500 119244.000000
157 13805 1 0.16500 119244.000000
158 11649 1 0.16500 119244.000000
158 14436 1 0.16500 119244.000000
159 13931 1 0.16500 119244.000000
159 14052 1 0.16500 119244.000000
160 11650 1 0.16500 119244.000000
160 11934 1 0.16500 119244.000000
161 11650 1 0.16500 119244.000000
161 13006 1 0.16500 119244.000000
162 11650 1 0.16500 119244.000000
162 15636 1 0.16500 119244.000000
163 11651 1 0.16500 119244.000000
163 13555 1 0.16500 119244.000000
164 11651 1 0.16500 119244.000000
164 13791 1 0.16500 119244.000000
165 11651 1 0.16500 119244.000000
165 16656 1 0.16500 119244.000000
166 11651 1 0.16500 119244.000000
166 15091 1 0.16500 119244.000000
167 11652 1 0.16500 119244.000000
167 14064 1 0.16500 119244.000000
168 11652 1 0.16500 119244.000000
168 12754 1 0.16500 119244.000000
169 11652 1 0.16500 119244.000000
169 14509 1 0.16500 119244.000000
170 11653 1 0.16500 119244.000000
170 16727 1 0.16500 119244.000000
171 11653 1 0.16500 119244.000000
171 12348 1 0.16500 119244.000000
172 11653 1 0.16500 119244.000000
172 13781 1 0.16500 119244.000000
173 11653 1 0.16500 119244.000000
173 16067 1 0.16500 119244.000000
174 11654 1 0.16500 119244.000000
174 17518 1 0.16500 119244.000000
175 11654 1 0.16500 119244.000000
175 15541 1 0.16500 119244.000000
176 11654 1 0.16500 119244.000000
176 11786 1 0.16500 119244.000000
177 11654 1 0.16500 119244.000000
177 17189 1 0.16500 119244.000000
178 17209 1 0.16500 119244.000000
178 17806 1 0.16500 119244.000000
179 16687 1 0.16500 119244.000000
179 17209 1 0.16500 119244.000000
180 11655 1 0.16500 119244.000000
180 13029 1 0.16500 119244.000000
181 11655 1 0.16500 119244.000000
181 14200 1 0.16500 119244.000000
182 11655 1 0.16500 119244.000000
182 16558 1 0.16500 119244.000000
183 11655 1 0.16500 119244.000000
183 16627 1 0.16500 119244.000000
184 11656 1 0.16500 119244.000000
184 14888 1 0.16500 119244.000000
185 11656 1 0.16500 119244.000000
185 13641 1 0.16500 119244.000000
186 11656 1 0.16500 119244.000000
186 12925 1 0.16500 119244.000000
187 11656 1 0.16500 119244.000000
187 14143 1 0.16500 119244.000000
188 11657 1 0.16500 119244.000000
188 16191 1 0.16500 119244.000000
189 11657 1 0.16500 119244.000000
189 14039 1 0.16500 119244.000000
190 11657 1 0.16500 119244.000000
190 15847 1 0.16500 119244.000000
191 11657 1 0.16500 119244.000000
191 12357 1 0.16500 119244.000000
192 11658 1 0.16500 119244.000000
192 14487 1 0.16500 119244.000000
193 11659 1 0.16500 119244.000000
193 13324 1 0.16500 119244.000000
194 11659 1 0.16500 119244.000000
194 15154 1 0.16500 119244.000000
195 11659 1 0.16500 119244.000000
195 14974 1 0.16500 119244.000000
196 11659 1 0.16500 119244.000000
196 12766 1 0.16500 119244.000000
197 11660 1 0.16500 119244.000000
197 16910 1 0.16500 119244.000000
198 11660 1 0.16500 119244.000000
198 14358 1 0.16500 119244.000000
199 11660 1 0.16500 119244.000000
199 14658 1 0.16500 119244.000000
200 11660 1 0.16500 119244.000000
200 12683 1 0.16500 119244.000000
201 11661 1 0.16500 119244.000000
201 15736 1 0.16500 119244.000000
202 11661 1 0.16500 119244.000000
202 15519 1 0.16500 119244.000000
203 11661 1 0.16500 119244.000000
203 13649 1 0.16500 119244.000000
204 12782 1 0.16500 119244.000000
204 15519 1 0.16500 119244.000000
205 15109 1 0.16500 119244.000000
205 17623 1 0.16500 119244.000000
206 11662 1 0.16500 119244.000000
206 16426 1 0.16500 119244.000000
207 11662 1 0.16500 119244.000000
207 15109 1 0.16500 119244.000000
208 11662 1 0.16500 119244.000000
208 12021 1 0.16500 119244.000000
209 11663 1 0.16500 119244.000000
209 13318 1 0.16500 119244.000000
210 11663 1 0.16500 119244.000000
210 17091 1 0.16500 119244.000000
211 11663 1 0.16500 119244.000000
211 16230 1 0.16500 119244.000000
212 11663 1 0.16500 119244.000000
212 16900 1 0.16500 119244.000000
213 13420 1 0.16500 119244.000000
213 17077 1 0.16500 119244.000000
214 11664 1 0.16500 119244.000000
214 13420 1 0.16500 119244.000000
215 11664 1 0.16500 119244.000000
215 14617 1 0.16500 119244.000000
216 11664 1 0.16500 119244.000000
216 13581 1 0.16500 119244.000000
217 11665 1 0.16500 119244.000000
217 14634 1 0.16500 119244.000000
218 11665 1 0.16500 119244.000000
218 15988 1 0.16500 119244.000000
219 11665 1 0.16500 119244.000000
219 12574 1 0.16500 119244.000000
220 11665 1 0.16500 119244.000000
220 16175 1 0.16500 119244.000000
221 13464 1 0.16500 119244.000000
221 17212 1 0.16500 119244.000000
222 13400 1 0.16500 119244.000000
222 17212 1 0.16500 119244.000000
223 16914 1 0.16500 119244.000000
223 17212 1 0.16500 119244.000000
224 11666 1 0.16500 119244.000000
224 17070 1 0.16500 119244.000000
225 11666 1 0.16500 119244.000000
225 14214 1 0.16500 119244.000000
226 11666 1 0.16500 119244.000000
226 12025 1 0.16500 119244.000000
227 11666 1 0.16500 119244.000000
227 16941 1 0.16500 119244.000000
228 11667 1 0.16500 119244.000000
228 13780 1 0.16500 119244.000000
229 11667 1 0.16500 119244.000000
229 14408 1 0.16500 119244.000000
230 11667 1 0.16500 119244.000000
230 12284 1 0.16500 119244.000000
231 11667 1 0.16500 119244.000000
231 16584 1 0.16500 119244.000000
232 17215 1 0.16500 119244.000000
232 17710 1 0.16500 119244.000000
233 16676 1 0.16500 119244.000000
233 17215 1 0.16500 119244.000000
234 15647 1 0.16500 119244.000000
234 17215 1 0.16500 119244.000000
235 14467 1 0.16500 119244.000000
235 16809 1 0.16500 119244.000000
236 14467 1 0.16500 119244.000000
236 14949 1 0.16500 119244.000000
237 11668 1 0.16500 119244.000000
237 14467 1 0.16500 119244.000000
238 13610 1 0.16500 119244.000000
238 14467 1 0.16500 119244.000000
239 16172 1 0.16500 119244.000000
239 17218 1 0.16500 119244.000000
240 16334 1 0.16500 119244.000000
240 17218 1 0.16500 119244.000000
241 15510 1 0.16500 119244.000000
241 17218 1 0.16500 119244.000000
242 16524 1 0.16500 119244.000000
242 17221 1 0.16500 119244.000000
243 13818 1 0.16500 119244.000000
243 17221 1 0.16500 119244.000000
244 15318 1 0.16500 119244.000000
244 17221 1 0.16500 119244.000000
245 11669 1 0.16500 119244.000000
245 17956 1 0.16500 119244.000000
246 11670 1 0.16500 119244.000000
246 13205 1 0.16500 119244.000000
247 11670 1 0.16500 119244.000000
247 17028 1 0.16500 119244.000000
248 11670 1 0.16500 119244.000000
248 13255 1 0.16500 119244.000000
249 11670 1 0.16500 119244.000000
249 11745 1 0.16500 119244.000000
250 12057 1 0.16500 119244.000000
250 13997 1 0.16500 119244.000000
251 11671 1 0.16500 119244.000000
251 15603 1 0.16500 119244.000000
252 11671 1 0.16500 119244.000000
252 14653 1 0.16500 119244.000000
253 11671 1 0.16500 119244.000000
253 13997 1 0.16500 119244.000000
254 12156 1 0.16500 119244.000000
254 17224 1 0.16500 119244.000000
255 17224 1 0.16500 119244.000000
255 17296 1 0.16500 119244.000000
256 11672 1 0.16500 119244.000000
256 14398 1 0.16500 119244.000000
257 11672 1 0.16500 119244.000000
257 14184 1 0.16500 119244.000000
258 11672 1 0.16500 119244.000000
258 15250 1 0.16500 119244.000000
259 11672 1 0.16500 119244.000000
259 14466 1 0.16500 119244.000000
260 11673 1 0.16500 119244.000000
260 12256 1 0.16500 119244.000000
261 11673 1 0.16500 119244.000000
261 12377 1 0.16500 119244.000000
262 11673 1 0.16500 119244.000000
262 16346 1 0.16500 119244.000000
263 11673 1 0.16500 119244.000000
263 17230 1 0.16500 119244.000000
264 11674 1 0.16500 119244.000000
264 16515 1 0.16500 119244.000000
265 11674 1 0.16500 119244.000000
265 14890 1 0.16500 119244.000000
266 11674 1 0.16500 119244.000000
266 17138 1 0.16500 119244.000000
267 11674 1 0.16500 119244.000000
267 12571 1 0.16500 119244.000000
268 11675 1 0.16500 119244.000000
268 13159 1 0.16500 119244.000000
269 11675 1 0.16500 119244.000000
269 13298 1 0.16500 119244.000000
270 11675 1 0.16500 119244.000000
270 16112 1 0.16500 119244.000000
271 11675 1 0.16500 119244.000000
271 11712 1 0.16500 119244.000000
272 11676 1 0.16500 119244.000000
272 16455 1 0.16500 119244.000000
273 11676 1 0.16500 119244.000000
273 14503 1 0.16500 119244.000000
274 11676 1 0.16500 119244.000000
274 12983 1 0.16500 119244.000000
275 11677 1 0.16500 119244.000000
275 15200 1 0.16500 119244.000000
276 11677 1 0.16500 119244.000000
276 16117 1 0.16500 119244.000000
277 11677 1 0.16500 119244.000000
277 12451 1 0.16500 119244.000000
278 11677 1 0.16500 119244.000000
278 14888 1 0.16500 119244.000000
279 11678 1 0.16500 119244.000000
279 13801 1 0.16500 119244.000000
280 11678 1 0.16500 119244.000000
280 12269 1 0.16500 119244.000000
281 11678 1 0.16500 119244.000000
281 15796 1 0.16500 119244.000000
282 11678 1 0.16500 119244.000000
282 14324 1 0.16500 119244.000000
283 15316 1 0.16500 119244.000000
283 17227 1 0.16500 119244.000000
284 13423 1 0.16500 119244.000000
284 17227 1 0.16500 119244.000000
285 17227 1 0.16500 119244.000000
285 18059 1 0.16500 119244.000000
286 11679 1 0.16500 119244.000000
286 12591 1 0.16500 119244.000000
287 11679 1 0.16500 119244.000000
287 13413 1 0.16500 119244.000000
288 11679 1 0.16500 119244.000000
288 14975 1 0.16500 119244.000000
289 11679 1 0.16500 119244.000000
289 11687 1 0.16500 119244.000000
290 11680 1 0.16500 119244.000000
290 12147 1 0.16500 119244.000000
291 11680 1 0.16500 119244.000000
291 12517 1 0.16500 119244.000000
292 11680 1 0.16500 119244.000000
292 11766 1 0.16500 119244.000000
293 12147 1 0.16500 119244.000000
293 13097 1 0.16500 119244.000000
294 11681 1 0.16500 119244.000000
294 15048 1 0.16500 119244.000000
295 11681 1 0.16500 119244.000000
295 16540 1 0.16500 119244.000000
296 11681 1 0.16500 119244.000000
296 13874 1 0.16500 119244.000000
297 13874 1 0.16500 119244.000000
297 14213 1 0.16500 119244.000000
298 11682 1 0.16500 119244.000000
298 15887 1 0.16500 119244.000000
299 11682 1 0.16500 119244.000000
299 16024 1 0.16500 119244.000000
300 11682 1 0.16500 119244.000000
300 12372 1 0.16500 119244.000000
301 11682 1 0.16500 119244.000000
301 12355 1 0.16500 119244.000000
302 11683 1 0.16500 119244.000000
302 14879 1 0.16500 119244.000000
303 11683 1 0.16500 119244.000000
303 12436 1 0.16500 119244.000000
304 11683 1 0.16500 119244.000000
304 14686 1 0.16500 119244.000000
305 11683 1 0.16500 119244.000000
305 16113 1 0.16500 119244.000000
306 11684 1 0.16500 119244.000000
306 17695 1 0.16500 119244.000000
307 11684 1 0.16500 119244.000000
307 13437 1 0.16500 119244.000000
308 11684 1 0.16500 119244.000000
308 15014 1 0.16500 119244.000000
309 11684 1 0.16500 119244.000000
309 16693 1 0.16500 119244.000000
310 11685 1 0.16500 119244.000000
310 12872 1 0.16500 119244.000000
311 11685 1 0.16500 119244.000000
311 11955 1 0.16500 119244.000000
312 11685 1 0.16500 119244.000000
312 15807 1 0.16500 119244.000000
313 11685 1 0.16500 119244.000000
313 17101 1 0.16500 119244.000000
314 17230 1 0.16500 119244.000000
314 17728 1 0.16500 119244.000000
315 13185 1 0.16500 119244.000000
315 17230 1 0.16500 119244.000000
316 11686 1 0.16500 119244.000000
316 11919 1 0.16500 119244.000000
317 11686 1 0.16500 119244.000000
317 13123 1 0.16500 119244.000000
318 11686 1 0.16500 119244.000000
318 14600 1 0.16500 119244.000000
319 11686 1 0.16500 119244.000000
319 16298 1 0.16500 119244.000000
320 16441 1 0.16500 119244.000000
320 17308 1 0.16500 119244.000000
321 11687 1 0.16500 119244.000000
321 15793 1 0.16500 119244.000000
322 11687 1 0.16500 119244.000000
322 12357 1 0.16500 119244.000000
323 11687 1 0.16500 119244.000000
323 16759 1 0.16500 119244.000000
324 11688 1 0.16500 119244.000000
324 15550 1 0.16500 119244.000000
325 11688 1 0.16500 119244.000000
325 14633 1 0.16500 119244.000000
326 11688 1 0.16500 119244.000000
326 15941 1 0.16500 119244.000000
327 11688 1 0.16500 119244.000000
327 14302 1 0.16500 119244.000000
328 11689 1 0.16500 119244.000000
328 12039 1 0.16500 119244.000000
329 11689 1 0.16500 119244.000000
329 15164 1 0.16500 119244.000000
330 11689 1 0.16500 119244.000000
330 17113 1 0.16500 119244.000000
331 11689 1 0.16500 119244.000000
331 11860 1 0.16500 119244.000000
332 11690 1 0.16500 119244.000000
332 16200 1 0.16500 119244.000000
333 11690 1 0.16500 119244.000000
333 12515 1 0.16500 119244.000000
334 11690 1 0.16500 119244.000000
334 12392 1 0.16500 119244.000000
335 11690 1 0.16500 119244.000000
335 14328 1 0.16500 119244.000000
336 13144 1 0.16500 119244.000000
336 15963 1 0.16500 119244.000000
337 15564 1 0.16500 119244.000000
337 15963 1 0.16500 119244.000000
338 11691 1 0.16500 119244.000000
338 17023 1 0.16500 119244.000000
339 11981 1 0.16500 119244.000000
339 15963 1 0.16500 119244.000000
340 11692 1 0.16500 119244.000000
340 12995 1 0.16500 119244.000000
341 11692 1 0.16500 119244.000000
341 14307 1 0.16500 119244.000000
342 11692 1 0.16500 119244.000000
342 13100 1 0.16500 119244.000000
343 11692 1 0.16500 119244.000000
343 15011 1 0.16500 119244.000000
344 11693 1 0.16500 119244.000000
344 15219 1 0.16500 119244.000000
345 11693 1 0.16500 119244.000000
345 12031 1 0.16500 119244.000000
346 11693 1 0.16500 119244.000000
346 15574 1 0.16500 119244.000000
347 11693 1 0.16500 119244.000000
347 11754 1 0.16500 119244.000000
348 13198 1 0.16500 119244.000000
348 17908 1 0.16500 119244.000000
349 14533 1 0.16500 119244.000000
349 17908 1 0.16500 119244.000000
350 11694 1 0.16500 119244.000000
350 17908 1 0.16500 119244.000000
351 11694 1 0.16500 119244.000000
351 14817 1 0.16500 119244.000000
352 11695 1 0.16500 119244.000000
352 16453 1 0.16500 119244.000000
353 11695 1 0.16500 119244.000000
353 14062 1 0.16500 119244.000000
354 11695 1 0.16500 119244.000000
354 14894 1 0.16500 119244.000000
355 11695 1 0.16500 119244.000000
355 16903 1 0.16500 119244.000000
356 11696 1 0.16500 119244.000000
356 17437 1 0.16500 119244.000000
357 11696 1 0.16500 119244.000000
357 16182 1 0.16500 119244.000000
358 11696 1 0.16500 119244.000000
358 15593 1 0.16500 119244.000000
359 11696 1 0.16500 119244.000000
359 14394 1 0.16500 119244.000000
360 11697 1 0.16500 119244.000000
360 13085 1 0.16500 119244.000000
361 11697 1 0.16500 119244.000000
361 16428 1 0.16500 119244.000000
362 11697 1 0.16500 119244.000000
362 11806 1 0.16500 119244.000000
363 11697 1 0.16500 119244.000000
363 12811 1 0.16500 119244.000000
364 11698 1 0.16500 119244.000000
364 17032 1 0.16500 119244.000000
365 11698 1 0.16500 119244.000000
365 16783 1 0.16500 119244.000000
366 11698 1 0.16500 119244.000000
366 13041 1 0.16500 119244.000000
367 11698 1 0.16500 119244.000000
367 14804 1 0.16500 119244.000000
368 14247 1 0.16500 119244.000000
368 16819 1 0.16500 119244.000000
369 16819 1 0.16500 119244.000000
369 17233 1 0.16500 119244.000000
370 12691 1 0.16500 119244.000000
370 16819 1 0.16500 119244.000000
371 13492 1 0.16500 119244.000000
371 15296 1 0.16500 119244.000000
372 11699 1 0.16500 119244.000000
372 13492 1 0.16500 119244.000000
373 13492 1 0.16500 119244.000000
373 16029 1 0.16500 119244.000000
374 11699 1 0.16500 119244.000000
374 18009 1 0.16500 119244.000000
375 11765 1 0.16500 119244.000000
375 12120 1 0.16500 119244.000000
376 12120 1 0.16500 119244.000000
376 13073 1 0.16500 119244.000000
377 11700 1 0.16500 119244.000000
377 12217 1 0.16500 119244.000000
378 11700 1 0.16500 119244.000000
378 12120 1 0.16500 119244.000000
379 11701 1 0.16500 119244.000000
379 12972 1 0.16500 119244.000000
380 11701 1 0.16500 119244.000000
380 14016 1 0.16500 119244.000000
381 11701 1 0.16500 119244.000000
381 14568 1 0.16500 119244.000000
382 11701 1 0.16500 119244.000000
382 17024 1 0.16500 119244.000000
383 11702 1 0.16500 119244.000000
383 14128 1 0.16500 119244.000000
384 11702 1 0.16500 119244.000000
384 15838 1 0.16500 119244.000000
385 11702 1 0.16500 119244.000000
385 16389 1 0.16500 119244.000000
386 11702 1 0.16500 119244.000000
386 14862 1 0.16500 119244.000000
387 11703 1 0.16500 119244.000000
387 15968 1 0.16500 119244.000000
388 11703 1 0.16500 119244.000000
388 11773 1 0.16500 119244.000000
389 11703 1 0.16500 119244.000000
389 13307 1 0.16500 119244.000000
390 11703 1 0.16500 119244.000000
390 11929 1 0.16500 119244.000000
391 11704 1 0.16500 119244.000000
391 13747 1 0.16500 119244.000000
392 11704 1 0.16500 119244.000000
392 13474 1 0.16500 119244.000000
393 11704 1 0.16500 119244.000000
393 12149 1 0.16500 119244.000000
394 11704 1 0.16500 119244.000000
394 12900 1 0.16500 119244.000000
395 17236 1 0.16500 119244.000000
395 17740 1 0.16500 119244.000000
396 12112 1 0.16500 119244.000000
396 17236 1 0.16500 119244.000000
397 11705 1 0.16500 119244.000000
397 14649 1 0.16500 119244.000000
398 11875 1 0.16500 119244.000000
398 14843 1 0.16500 119244.000000
399 11705 1 0.16500 119244.000000
399 12914 1 0.16500 119244.000000
400 11705 1 0.16500 119244.000000
400 14843 1 0.16500 119244.000000
401 11706 1 0.16500 119244.000000
401 11783 1 0.16500 119244.000000
402 11706 1 0.16500 119244.000000
402 14555 1 0.16500 119244.000000
403 11706 1 0.16500 119244.000000
403 17117 1 0.16500 119244.000000
404 11706 1 0.16500 119244.000000
404 11815 1 0.16500 119244.000000
405 11707 1 0.16500 119244.000000
405 16173 1 0.16500 119244.000000
406 11707 1 0.16500 119244.000000
406 13399 1 0.16500 119244.000000
407 13982 1 0.16500 119244.000000
407 15788 1 0.16500 119244.000000
408 11707 1 0.16500 119244.000000
408 15788 1 0.16500 119244.000000
409 11708 1 0.16500 119244.000000
409 12753 1 0.16500 119244.000000
410 11708 1 0.16500 119244.000000
410 13342 1 0.16500 119244.000000
411 11708 1 0.16500 119244.000000
411 14576 1 0.16500 119244.000000
412 11708 1 0.16500 119244.000000
412 16843 1 0.16500 119244.000000
413 11709 1 0.16500 119244.000000
413 13484 1 0.16500 119244.000000
414 11709 1 0.16500 119244.000000
414 17137 1 0.16500 119244.000000
415 11709 1 0.16500 119244.000000
415 12901 1 0.16500 119244.000000
416 11709 1 0.16500 119244.000000
416 16005 1 0.16500 119244.000000
417 11710 1 0.16500 119244.000000
417 17872 1 0.16500 119244.000000
418 11710 1 0.16500 119244.000000
418 13619 1 0.16500 119244.000000
419 11710 1 0.16500 119244.000000
419 16990 1 0.16500 119244.000000
420 11711 1 0.16500 119244.000000
420 13580 1 0.16500 119244.000000
421 11711 1 0.16500 119244.000000
421 14476 1 0.16500 119244.000000
422 11711 1 0.16500 119244.000000
422 14371 1 0.16500 119244.000000
423 11711 1 0.16500 119244.000000
423 13526 1 0.16500 119244.000000
424 11712 1 0.16500 119244.000000
424 14708 1 0.16500 119244.000000
425 11712 1 0.16500 119244.000000
425 13074 1 0.16500 119244.000000
426 11712 1 0.16500 119244.000000
426 11745 1 0.16500 119244.000000
427 11713 1 0.16500 119244.000000
427 16388 1 0.16500 119244.000000
428 11713 1 0.16500 119244.000000
428 17003 1 0.16500 119244.000000
429 11713 1 0.16500 119244.000000
429 14607 1 0.16500 119244.000000
430 11713 1 0.16500 119244.000000
430 11821 1 0.16500 119244.000000
431 11714 1 0.16500 119244.000000
431 13057 1 0.16500 119244.000000
432 11714 1 0.16500 119244.000000
432 13139 1 0.16500 119244.000000
433 11714 1 0.16500 119244.000000
433 13821 1 0.16500 119244.000000
434 11714 1 0.16500 119244.000000
434 16275 1 0.16500 119244.000000
435 12362 1 0.16500 119244.000000
435 14778 1 0.16500 119244.000000
436 11715 1 0.16500 119244.000000
436 12362 1 0.16500 119244.000000
437 11715 1 0.16500 119244.000000
437 13460 1 0.16500 119244.000000
438 11715 1 0.16500 119244.000000
438 14350 1 0.16500 119244.000000
439 11716 1 0.16500 119244.000000
439 13851 1 0.16500 119244.000000
440 11716 1 0.16500 119244.000000
440 12454 1 0.16500 119244.000000
441 11717 1 0.16500 119244.000000
441 16245 1 0.16500 119244.000000
442 11717 1 0.16500 119244.000000
442 17704 1 0.16500 119244.000000
443 11717 1 0.16500 119244.000000
443 15740 1 0.16500 119244.000000
444 11717 1 0.16500 119244.000000
444 16284 1 0.16500 119244.000000
445 11718 1 0.16500 119244.000000
445 11770 1 0.16500 119244.000000
446 11718 1 0.16500 119244.000000
446 13054 1 0.16500 119244.000000
447 11718 1 0.16500 119244.000000
447 14461 1 0.16500 119244.000000
448 11718 1 0.16500 119244.000000
448 15204 1 0.16500 119244.000000
449 11719 1 0.16500 119244.000000
449 13476 1 0.16500 119244.000000
450 11719 1 0.16500 119244.000000
450 12195 1 0.16500 119244.000000
451 11720 1 0.16500 119244.000000
451 13887 1 0.16500 119244.000000
452 11720 1 0.16500 119244.000000
452 16440 1 0.16500 119244.000000
453 11720 1 0.16500 119244.000000
453 14777 1 0.16500 119244.000000
454 11720 1 0.16500 119244.000000
454 13161 1 0.16500 119244.000000
455 11721 1 0.16500 119244.000000
455 14863 1 0.16500 119244.000000
456 11721 1 0.16500 119244.000000
456 12155 1 0.16500 119244.000000
457 11721 1 0.16500 119244.000000
457 12687 1 0.16500 119244.000000
458 11721 1 0.16500 119244.000000
458 17365 1 0.16500 119244.000000
459 16926 1 0.16500 119244.000000
459 17239 1 0.16500 119244.000000
460 17239 1 0.16500 119244.000000
460 17404 1 0.16500 119244.000000
461 11722 1 0.16500 119244.000000
461 16040 1 0.16500 119244.000000
462 11722 1 0.16500 119244.000000
462 13730 1 0.16500 119244.000000
463 11722 1 0.16500 119244.000000
463 15331 1 0.16500 119244.000000
464 11722 1 0.16500 119244.000000
464 16053 1 0.16500 119244.000000
465 11723 1 0.16500 119244.000000
465 17060 1 0.16500 119244.000000
466 11723 1 0.16500 119244.000000
466 16840 1 0.16500 119244.000000
467 11723 1 0.16500 119244.000000
467 14292 1 0.16500 119244.000000
468 11723 1 0.16500 119244.000000
468 13351 1 0.16500 119244.000000
469 11724 1 0.16500 119244.000000
469 15507 1 0.16500 119244.000000
470 11724 1 0.16500 119244.000000
470 12377 1 0.16500 119244.000000
471 11724 1 0.16500 119244.000000
471 16084 1 0.16500 119244.000000
472 11724 1 0.16500 119244.000000
472 14874 1 0.16500 119244.000000
473 11725 1 0.16500 119244.000000
473 13473 1 0.16500 119244.000000
474 11725 1 0.16500 119244.000000
474 15436 1 0.16500 119244.000000
475 11726 1 0.16500 119244.000000
475 14281 1 0.16500 119244.000000
476 11726 1 0.16500 119244.000000
476 15249 1 0.16500 119244.000000
477 11726 1 0.16500 119244.000000
477 15352 1 0.16500 119244.000000
478 11726 1 0.16500 119244.000000
478 13708 1 0.16500 119244.000000
479 11727 1 0.16500 119244.000000
479 16026 1 0.16500 119244.000000
480 12775 1 0.16500 119244.000000
480 14399 1 0.16500 119244.000000
481 16901 1 0.16500 119244.000000
481 17743 1 0.16500 119244.000000
482 11727 1 0.16500 119244.000000
482 17743 1 0.16500 119244.000000
483 11728 1 0.16500 119244.000000
483 13281 1 0.16500 119244.000000
484 11728 1 0.16500 119244.000000
484 13202 1 0.16500 119244.000000
485 11728 1 0.16500 119244.000000
485 15019 1 0.16500 119244.000000
486 11728 1 0.16500 119244.000000
486 14580 1 0.16500 119244.000000
487 11729 1 0.16500 119244.000000
487 12250 1 0.16500 119244.000000
488 11729 1 0.16500 119244.000000
488 11840 1 0.16500 119244.000000
489 11729 1 0.16500 119244.000000
489 16747 1 0.16500 119244.000000
490 11729 1 0.16500 119244.000000
490 13601 1 0.16500 119244.000000
491 11730 1 0.16500 119244.000000
491 13588 1 0.16500 119244.000000
492 11730 1 0.16500 119244.000000
492 14407 1 0.16500 119244.000000
493 11730 1 0.16500 119244.000000
493 17137 1 0.16500 119244.000000
494 11730 1 0.16500 119244.000000
494 16368 1 0.16500 119244.000000
495 14069 1 0.16500 119244.000000
495 16715 1 0.16500 119244.000000
496 11731 1 0.16500 119244.000000
496 16118 1 0.16500 119244.000000
497 11731 1 0.16500 119244.000000
497 14069 1 0.16500 119244.000000
498 11731 1 0.16500 119244.000000
498 15907 1 0.16500 119244.000000
499 13605 1 0.16500 119244.000000
499 15326 1 0.16500 119244.000000
500 11732 1 0.16500 119244.000000
500 15336 1 0.16500 119244.000000
501 11732 1 0.16500 119244.000000
501 12135 1 0.16500 119244.000000
502 11732 1 0.16500 119244.000000
502 15641 1 0.16500 119244.000000
503 11732 1 0.16500 119244.000000
503 11741 1 0.16500 119244.000000
504 11733 1 0.16500 119244.000000
504 15718 1 0.16500 119244.000000
505 11733 1 0.16500 119244.000000
505 13594 1 0.16500 119244.000000
506 11733 1 0.16500 119244.000000
506 15111 1 0.16500 119244.000000
507 11733 1 0.16500 119244.000000
507 12733 1 0.16500 119244.000000
508 11734 1 0.16500 119244.000000
508 13864 1 0.16500 119244.000000
509 11734 1 0.16500 119244.000000
509 14005 1 0.16500 119244.000000
510 11734 1 0.16500 119244.000000
510 13783 1 0.16500 119244.000000
511 11734 1 0.16500 119244.000000
511 16068 1 0.16500 119244.000000
512 11735 1 0.16500 119244.000000
512 17512 1 0.16500 119244.000000
513 11735 1 0.16500 119244.000000
513 12536 1 0.16500 119244.000000
514 11735 1 0.16500 119244.000000
514 15897 1 0.16500 119244.000000
515 11736 1 0.16500 119244.000000
515 13533 1 0.16500 119244.000000
516 11736 1 0.16500 119244.000000
516 16538 1 0.16500 119244.000000
517 11736 1 0.16500 119244.000000
517 15297 1 0.16500 119244.000000
518 11737 1 0.16500 119244.000000
518 16468 1 0.16500 119244.000000
519 11737 1 0.16500 119244.000000
519 12955 1 0.16500 119244.000000
520 11737 1 0.16500 119244.000000
520 17009 1 0.16500 119244.000000
521 11738 1 0.16500 119244.000000
521 17476 1 0.16500 119244.000000
522 11738 1 0.16500 119244.000000
522 15850 1 0.16500 119244.000000
523 13005 1 0.16500 119244.000000
523 17476 1 0.16500 119244.000000
524 11738 1 0.16500 119244.000000
524 12540 1 0.16500 119244.000000
525 11739 1 0.16500 119244.000000
525 16889 1 0.16500 119244.000000
526 11739 1 0.16500 119244.000000
526 17110 1 0.16500 119244.000000
527 11739 1 0.16500 119244.000000
527 16951 1 0.16500 119244.000000
528 11739 1 0.16500 119244.000000
528 12167 1 0.16500 119244.000000
529 11740 1 0.16500 119244.000000
529 12885 1 0.16500 119244.000000
530 11740 1 0.16500 119244.000000
530 16082 1 0.16500 119244.000000
531 11740 1 0.16500 119244.000000
531 11909 1 0.16500 119244.000000
532 11740 1 0.16500 119244.000000
532 16232 1 0.16500 119244.000000
533 11741 1 0.16500 119244.000000
533 12441 1 0.16500 119244.000000
534 11741 1 0.16500 119244.000000
534 15900 1 0.16500 119244.000000
535 11741 1 0.16500 119244.000000
535 13331 1 0.16500 119244.000000
536 11742 1 0.16500 119244.000000
536 16331 1 0.16500 119244.000000
537 11742 1 0.16500 119244.000000
537 12694 1 0.16500 119244.000000
538 11742 1 0.16500 119244.000000
538 16434 1 0.16500 119244.000000
539 11743 1 0.16500 119244.000000
539 14381 1 0.16500 119244.000000
540 11743 1 0.16500 119244.000000
540 16229 1 0.16500 119244.000000
541 11743 1 0.16500 119244.000000
541 13942 1 0.16500 119244.000000
542 11743 1 0.16500 119244.000000
542 13210 1 0.16500 119244.000000
543 12605 1 0.16500 119244.000000
543 12925 1 0.16500 119244.000000
544 12925 1 0.16500 119244.000000
544 16864 1 0.16500 119244.000000
545 11744 1 0.16500 119244.000000
545 12925 1 0.16500 119244.000000
546 11745 1 0.16500 119244.000000
546 13228 1 0.16500 119244.000000
547 11745 1 0.16500 119244.000000
547 12776 1 0.16500 119244.000000
548 11746 1 0.16500 119244.000000
548 16611 1 0.16500 119244.000000
549 11746 1 0.16500 119244.000000
549 14739 1 0.16500 119244.000000
550 11746 1 0.16500 119244.000000
550 16102 1 0.16500 119244.000000
551 11746 1 0.16500 119244.000000
551 16391 1 0.16500 119244.000000
552 11747 1 0.16500 119244.000000
552 13602 1 0.16500 119244.000000
553 11747 1 0.16500 119244.000000
553 11897 1 0.16500 119244.000000
554 11747 1 0.16500 119244.000000
554 16303 1 0.16500 119244.000000
555 11897 1 0.16500 119244.000000
555 13395 1 0.16500 119244.000000
556 11748 1 0.16500 119244.000000
556 16783 1 0.16500 119244.000000
557 11748 1 0.16500 119244.000000
557 13832 1 0.16500 119244.000000
558 11748 1 0.16500 119244.000000
558 14331 1 0.16500 119244.000000
559 11749 1 0.16500 119244.000000
559 12818 1 0.16500 119244.000000
560 11749 1 0.16500 119244.000000
560 12058 1 0.16500 119244.000000
561 11749 1 0.16500 119244.000000
561 13132 1 0.16500 119244.000000
562 11750 1 0.16500 119244.000000
562 17092 1 0.16500 119244.000000
563 11750 1 0.16500 119244.000000
563 12696 1 0.16500 119244.000000
564 11750 1 0.16500 119244.000000
564 15548 1 0.16500 119244.000000
565 11750 1 0.16500 119244.000000
565 14479 1 0.16500 119244.000000
566 11751 1 0.16500 119244.000000
566 12397 1 0.16500 119244.000000
567 11751 1 0.16500 119244.000000
567 14475 1 0.16500 119244.000000
568 11751 1 0.16500 119244.000000
568 15471 1 0.16500 119244.000000
569 11751 1 0.16500 119244.000000
569 13575 1 0.16500 119244.000000
570 11752 1 0.16500 119244.000000
570 11881 1 0.16500 119244.000000
571 11752 1 0.16500 119244.000000
571 12851 1 0.16500 119244.000000
572 11752 1 0.16500 119244.000000
572 16961 1 0.16500 119244.000000
573 11752 1 0.16500 119244.000000
573 13777 1 0.16500 119244.000000
574 11753 1 0.16500 119244.000000
574 15214 1 0.16500 119244.000000
575 11753 1 0.16500 119244.000000
575 15946 1 0.16500 119244.000000
576 11753 1 0.16500 119244.000000
576 13663 1 0.16500 119244.000000
577 11753 1 0.16500 119244.000000
577 12721 1 0.16500 119244.000000
578 15044 1 0.16500 119244.000000
578 17242 1 0.16500 119244.000000
579 17242 1 0.16500 119244.000000
579 17326 1 0.16500 119244.000000
580 11754 1 0.16500 119244.000000
580 12391 1 0.16500 119244.000000
581 11754 1 0.16500 119244.000000
581 12229 1 0.16500 119244.000000
582 11754 1 0.16500 119244.000000
582 13993 1 0.16500 119244.000000
583 15114 1 0.16500 119244.000000
583 17245 1 0.16500 119244.000000
584 13698 1 0.16500 119244.000000
584 17245 1 0.16500 119244.000000
585 11755 1 0.16500 119244.000000
585 16629 1 0.16500 119244.000000
586 11755 1 0.16500 119244.000000
586 15949 1 0.16500 119244.000000
587 11755 1 0.16500 119244.000000
587 17028 1 0.16500 119244.000000
588 11755 1 0.16500 119244.000000
588 12537 1 0.16500 119244.000000
589 11756 1 0.16500 119244.000000
589 15055 1 0.16500 119244.000000
590 11756 1 0.16500 119244.000000
590 16876 1 0.16500 119244.000000
591 11756 1 0.16500 119244.000000
591 12665 1 0.16500 119244.000000
592 11756 1 0.16500 119244.000000
592 13459 1 0.16500 119244.000000
593 11757 1 0.16500 119244.000000
593 12476 1 0.16500 119244.000000
594 11757 1 0.16500 119244.000000
594 15073 1 0.16500 119244.000000
595 11757 1 0.16500 119244.000000
595 16135 1 0.16500 119244.000000
596 11757 1 0.16500 119244.000000
596 15254 1 0.16500 119244.000000
597 11758 1 0.16500 119244.000000
597 14845 1 0.16500 119244.000000
598 11758 1 0.16500 119244.000000
598 14835 1 0.16500 119244.000000
599 11758 1 0.16500 119244.000000
599 11809 1 0.16500 119244.000000
600 11758 1 0.16500 119244.000000
600 13597 1 0.16500 119244.000000
601 11759 1 0.16500 119244.000000
601 17641 1 0.16500 119244.000000
602 11759 1 0.16500 119244.000000
602 15966 1 0.16500 119244.000000
603 11759 1 0.16500 119244.000000
603 15205 1 0.16500 119244.000000
604 11760 1 0.16500 119244.000000
604 14901 1 0.16500 119244.000000
605 11760 1 0.16500 119244.000000
605 15138 1 0.16500 119244.000000
606 11760 1 0.16500 119244.000000
606 11761 1 0.16500 119244.000000
607 11760 1 0.16500 119244.000000
607 16669 1 0.16500 119244.000000
608 11761 1 0.16500 119244.000000
608 13148 1 0.16500 119244.000000
609 11761 1 0.16500 119244.000000
609 11887 1 0.16500 119244.000000
610 11761 1 0.16500 119244.000000
610 13037 1 0.16500 119244.000000
611 11762 1 0.16500 119244.000000
611 13996 1 0.16500 119244.000000
612 11762 1 0.16500 119244.000000
612 12597 1 0.16500 119244.000000
613 11762 1 0.16500 119244.000000
613 16256 1 0.16500 119244.000000
614 11762 1 0.16500 119244.000000
614 17173 1 0.16500 119244.000000
615 11763 1 0.16500 119244.000000
615 15401 1 0.16500 119244.000000
616 11763 1 0.16500 119244.000000
616 14864 1 0.16500 119244.000000
617 11763 1 0.16500 119244.000000
617 15745 1 0.16500 119244.000000
618 11763 1 0.16500 119244.000000
618 14584 1 0.16500 119244.000000
619 15366 1 0.16500 119244.000000
619 17248 1 0.16500 119244.000000
620 15922 1 0.16500 119244.000000
620 17248 1 0.16500 119244.000000
621 15015 1 0.16500 119244.000000
621 17248 1 0.16500 119244.000000
622 11764 1 0.16500 119244.000000
622 16051 1 0.16500 119244.000000
623 11764 1 0.16500 119244.000000
623 12942 1 0.16500 119244.000000
624 11764 1 0.16500 119244.000000
624 13759 1 0.16500 119244.000000
625 11764 1 0.16500 119244.000000
625 14187 1 0.16500 119244.000000
626 11765 1 0.16500 119244.000000
626 15632 1 0.16500 119244.000000
627 11765 1 0.16500 119244.000000
627 15952 1 0.16500 119244.000000
628 11765 1 0.16500 119244.000000
628 12300 1 0.16500 119244.000000
629 11766 1 0.16500 119244.000000
629 11773 1 0.16500 119244.000000
630 11766 1 0.16500 119244.000000
630 14195 1 0.16500 119244.000000
631 11766 1 0.16500 119244.000000
631 16199 1 0.16500 119244.000000
632 11767 1 0.16500 119244.000000
632 16279 1 0.16500 119244.000000
633 11767 1 0.16500 119244.000000
633 14386 1 0.16500 119244.000000
634 11767 1 0.16500 119244.000000
634 12713 1 0.16500 119244.000000
635 11767 1 0.16500 119244.000000
635 12368 1 0.16500 119244.000000
636 11768 1 0.16500 119244.000000
636 15917 1 0.16500 119244.000000
637 11768 1 0.16500 119244.000000
637 12439 1 0.16500 119244.000000
638 11768 1 0.16500 119244.000000
638 14708 1 0.16500 119244.000000
639 11768 1 0.16500 119244.000000
639 15663 1 0.16500 119244.000000
640 11769 1 0.16500 119244.000000
640 12077 1 0.16500 119244.000000
641 11769 1 0.16500 119244.000000
641 12607 1 0.16500 119244.000000
642 11769 1 0.16500 119244.000000
642 14492 1 0.16500 119244.000000
643 11769 1 0.16500 119244.000000
643 15640 1 0.16500 119244.000000
644 11770 1 0.16500 119244.000000
644 12595 1 0.16500 119244.000000
645 11770 1 0.16500 119244.000000
645 17191 1 0.16500 119244.000000
646 11770 1 0.16500 119244.000000
646 12046 1 0.16500 119244.000000
647 11771 1 0.16500 119244.000000
647 13068 1 0.16500 119244.000000
648 11771 1 0.16500 119244.000000
648 15056 1 0.16500 119244.000000
649 11771 1 0.16500 119244.000000
649 14557 1 0.16500 119244.000000
650 11771 1 0.16500 119244.000000
650 16107 1 0.16500 119244.000000
651 11772 1 0.16500 119244.000000
651 13987 1 0.16500 119244.000000
652 11772 1 0.16500 119244.000000
652 17944 1 0.16500 119244.000000
653 11772 1 0.16500 119244.000000
653 14582 1 0.16500 119244.000000
654 11772 1 0.16500 119244.000000
654 13064 1 0.16500 119244.000000
655 11773 1 0.16500 119244.000000
655 12402 1 0.16500 119244.000000
656 11773 1 0.16500 119244.000000
656 12184 1 0.16500 119244.000000
657 11774 1 0.16500 119244.000000
657 14109 1 0.16500 119244.000000
658 11774 1 0.16500 119244.000000
658 12815 1 0.16500 119244.000000
659 11774 1 0.16500 119244.000000
659 13672 1 0.16500 119244.000000
660 12815 1 0.16500 119244.000000
660 17180 1 0.16500 119244.000000
661 11775 1 0.16500 119244.000000
661 16619 1 0.16500 119244.000000
662 11775 1 0.16500 119244.000000
662 17100 1 0.16500 119244.000000
663 14964 1 0.16500 119244.000000
663 17100 1 0.16500 119244.000000
664 11775 1 0.16500 119244.000000
664 12845 1 0.16500 119244.000000
665 11776 1 0.16500 119244.000000
665 16296 1 0.16500 119244.000000
666 14941 1 0.16500 119244.000000
666 16296 1 0.16500 119244.000000
667 11776 1 0.16500 119244.000000
667 13596 1 0.16500 119244.000000
668 11776 1 0.16500 119244.000000
668 11943 1 0.16500 119244.000000
669 11777 1 0.16500 119244.000000
669 12606 1 0.16500 119244.000000
670 11777 1 0.16500 119244.000000
670 15474 1 0.16500 119244.000000
671 11778 1 0.16500 119244.000000
671 14515 1 0.16500 119244.000000
672 11778 1 0.16500 119244.000000
672 15504 1 0.16500 119244.000000
673 12634 1 0.16500 119244.000000
673 14515 1 0.16500 119244.000000
674 11778 1 0.16500 119244.000000
674 13139 1 0.16500 119244.000000
675 11779 1 0.16500 119244.000000
675 12841 1 0.16500 119244.000000
676 11779 1 0.16500 119244.000000
676 15797 1 0.16500 119244.000000
677 11779 1 0.16500 119244.000000
677 12126 1 0.16500 119244.000000
678 11780 1 0.16500 119244.000000
678 11822 1 0.16500 119244.000000
679 11780 1 0.16500 119244.000000
679 14299 1 0.16500 119244.000000
680 11780 1 0.16500 119244.000000
680 16962 1 0.16500 119244.000000
681 11822 1 0.16500 119244.000000
681 16339 1 0.16500 119244.000000
682 11781 1 0.16500 119244.000000
682 13205 1 0.16500 119244.000000
683 14470 1 0.16500 119244.000000
683 16112 1 0.16500 119244.000000
684 11781 1 0.16500 119244.000000
684 14073 1 0.16500 119244.000000
685 11781 1 0.16500 119244.000000
685 14470 1 0.16500 119244.000000
686 11782 1 0.16500 119244.000000
686 13548 1 0.16500 119244.000000
687 11782 1 0.16500 119244.000000
687 11928 1 0.16500 119244.000000
688 11782 1 0.16500 119244.000000
688 16326 1 0.16500 119244.000000
689 11782 1 0.16500 119244.000000
689 15539 1 0.16500 119244.000000
690 11783 1 0.16500 119244.000000
690 12290 1 0.16500 119244.000000
691 12067 1 0.16500 119244.000000
691 13324 1 0.16500 119244.000000
692 11783 1 0.16500 119244.000000
692 12067 1 0.16500 119244.000000
693 11784 1 0.16500 119244.000000
693 14063 1 0.16500 119244.000000
694 11784 1 0.16500 119244.000000
694 14354 1 0.16500 119244.000000
695 11784 1 0.16500 119244.000000
695 12320 1 0.16500 119244.000000
696 11784 1 0.16500 119244.000000
696 12221 1 0.16500 119244.000000
697 11785 1 0.16500 119244.000000
697 14074 1 0.16500 119244.000000
698 11785 1 0.16500 119244.000000
698 13863 1 0.16500 119244.000000
699 11785 1 0.16500 119244.000000
699 12358 1 0.16500 119244.000000
700 11785 1 0.16500 119244.000000
700 13095 1 0.16500 119244.000000
701 11786 1 0.16500 119244.000000
701 13289 1 0.16500 119244.000000
702 11786 1 0.16500 119244.000000
702 14726 1 0.16500 119244.000000
703 11786 1 0.16500 119244.000000
703 14990 1 0.16500 119244.000000
704 11787 1 0.16500 119244.000000
704 12802 1 0.16500 119244.000000
705 11787 1 0.16500 119244.000000
705 14488 1 0.16500 119244.000000
706 11787 1 0.16500 119244.000000
706 14567 1 0.16500 119244.000000
707 11787 1 0.16500 119244.000000
707 13794 1 0.16500 119244.000000
708 11788 1 0.16500 119244.000000
708 16591 1 0.16500 119244.000000
709 11788 1 0.16500 119244.000000
709 13041 1 0.16500 119244.000000
710 11788 1 0.16500 119244.000000
710 15137 1 0.16500 119244.000000
711 11788 1 0.16500 119244.000000
711 13723 1 0.16500 119244.000000
712 11789 1 0.16500 119244.000000
712 17166 1 0.16500 119244.000000
713 11789 1 0.16500 119244.000000
713 14991 1 0.16500 119244.000000
714 11789 1 0.16500 119244.000000
714 15110 1 0.16500 119244.000000
715 15110 1 0.16500 119244.000000
715 15576 1 0.16500 119244.000000
716 13711 1 0.16500 119244.000000
716 15966 1 0.16500 119244.000000
717 11790 1 0.16500 119244.000000
717 15966 1 0.16500 119244.000000
718 11790 1 0.16500 119244.000000
718 12730 1 0.16500 119244.000000
719 11791 1 0.16500 119244.000000
719 15610 1 0.16500 119244.000000
720 11791 1 0.16500 119244.000000
720 12576 1 0.16500 119244.000000
721 11791 1 0.16500 119244.000000
721 16764 1 0.16500 119244.000000
722 11792 1 0.16500 119244.000000
722 14760 1 0.16500 119244.000000
723 11827 1 0.16500 119244.000000
723 14414 1 0.16500 119244.000000
724 14414 1 0.16500 119244.000000
724 14760 1 0.16500 119244.000000
725 11793 1 0.16500 119244.000000
725 14075 1 0.16500 119244.000000
726 11793 1 0.16500 119244.000000
726 13954 1 0.16500 119244.000000
727 11793 1 0.16500 119244.000000
727 12694 1 0.16500 119244.000000
728 11793 1 0.16500 119244.000000
728 13299 1 0.16500 119244.000000
729 11794 1 0.16500 119244.000000
729 12564 1 0.16500 119244.000000
730 11794 1 0.16500 119244.000000
730 16567 1 0.16500 119244.000000
731 11794 1 0.16500 119244.000000
731 16808 1 0.16500 119244.000000
732 11794 1 0.16500 119244.000000
732 13011 1 0.16500 119244.000000
733 11795 1 0.16500 119244.000000
733 16103 1 0.16500 119244.000000
734 11795 1 0.16500 119244.000000
734 12351 1 0.16500 119244.000000
735 11795 1 0.16500 119244.000000
735 16837 1 0.16500 119244.000000
736 11795 1 0.16500 119244.000000
736 15254 1 0.16500 119244.000000
737 11796 1 0.16500 119244.000000
737 16198 1 0.16500 119244.000000
738 11796 1 0.16500 119244.000000
738 12684 1 0.16500 119244.000000
739 11796 1 0.16500 119244.000000
739 12678 1 0.16500 119244.000000
740 11796 1 0.16500 119244.000000
740 12822 1 0.16500 119244.000000
741 11797 1 0.16500 119244.000000
741 17305 1 0.16500 119244.000000
742 11797 1 0.16500 119244.000000
742 17452 1 0.16500 119244.000000
743 11797 1 0.16500 119244.000000
743 15261 1 0.16500 119244.000000
744 11797 1 0.16500 119244.000000
744 13932 1 0.16500 119244.000000
745 11798 1 0.16500 119244.000000
745 12587 1 0.16500 119244.000000
746 11798 1 0.16500 119244.000000
746 13973 1 0.16500 119244.000000
747 11798 1 0.16500 119244.000000
747 14552 1 0.16500 119244.000000
748 11798 1 0.16500 119244.000000
748 15354 1 0.16500 119244.000000
749 11799 1 0.16500 119244.000000
749 15910 1 0.16500 119244.000000
750 11799 1 0.16500 119244.000000
750 15220 1 0.16500 119244.000000
751 11799 1 0.16500 119244.000000
751 15777 1 0.16500 119244.000000
752 11799 1 0.16500 119244.000000
752 13910 1 0.16500 119244.000000
753 11800 1 0.16500 119244.000000
753 12920 1 0.16500 119244.000000
754 11800 1 0.16500 119244.000000
754 12902 1 0.16500 119244.000000
755 11800 1 0.16500 119244.000000
755 12590 1 0.16500 119244.000000
756 11800 1 0.16500 119244.000000
756 12319 1 0.16500 119244.000000
757 11801 1 0.16500 119244.000000
757 12837 1 0.16500 119244.000000
758 11801 1 0.16500 119244.000000
758 11896 1 0.16500 119244.000000
759 11801 1 0.16500 119244.000000
759 13262 1 0.16500 119244.000000
760 11781 1 0.16500 119244.000000
760 11801 1 0.16500 119244.000000
761 11802 1 0.16500 119244.000000
761 13407 1 0.16500 119244.000000
762 11802 1 0.16500 119244.000000
762 13368 1 0.16500 119244.000000
763 11802 1 0.16500 119244.000000
763 15475 1 0.16500 119244.000000
764 11802 1 0.16500 119244.000000
764 16283 1 0.16500 119244.000000
765 11803 1 0.16500 119244.000000
765 14290 1 0.16500 119244.000000
766 11803 1 0.16500 119244.000000
766 14939 1 0.16500 119244.000000
767 11803 1 0.16500 119244.000000
767 14397 1 0.16500 119244.000000
768 11803 1 0.16500 119244.000000
768 15148 1 0.16500 119244.000000
769 11804 1 0.16500 119244.000000
769 12320 1 0.16500 119244.000000
770 11691 1 0.16500 119244.000000
770 11804 1 0.16500 119244.000000
771 11804 1 0.16500 119244.000000
771 14538 1 0.16500 119244.000000
772 11804 1 0.16500 119244.000000
772 15124 1 0.16500 119244.000000
773 11805 1 0.16500 119244.000000
773 13944 1 0.16500 119244.000000
774 11805 1 0.16500 119244.000000
774 15776 1 0.16500 119244.000000
775 11805 1 0.16500 119244.000000
775 18079 1 0.16500 119244.000000
776 11806 1 0.16500 119244.000000
776 16536 1 0.16500 119244.000000
777 11806 1 0.16500 119244.000000
777 14203 1 0.16500 119244.000000
778 14203 1 0.16500 119244.000000
778 14844 1 0.16500 119244.000000
779 11807 1 0.16500 119244.000000
779 15877 1 0.16500 119244.000000
780 11807 1 0.16500 119244.000000
780 14212 1 0.16500 119244.000000
781 11807 1 0.16500 119244.000000
781 12770 1 0.16500 119244.000000
782 11807 1 0.16500 119244.000000
782 16975 1 0.16500 119244.000000
783 17251 1 0.16500 119244.000000
783 17737 1 0.16500 119244.000000
784 12562 1 0.16500 119244.000000
784 17251 1 0.16500 119244.000000
785 17251 1 0.16500 119244.000000
785 17986 1 0.16500 119244.000000
786 11808 1 0.16500 119244.000000
786 14820 1 0.16500 119244.000000
787 11808 1 0.16500 119244.000000
787 13598 1 0.16500 119244.000000
788 11808 1 0.16500 119244.000000
788 14693 1 0.16500 119244.000000
789 11808 1 0.16500 119244.000000
789 16596 1 0.16500 119244.000000
790 16908 1 0.16500 119244.000000
790 17254 1 0.16500 119244.000000
791 16710 1 0.16500 119244.000000
791 17254 1 0.16500 119244.000000
792 16123 1 0.16500 119244.000000
792 17254 1 0.16500 119244.000000
793 14906 1 0.16500 119244.000000
793 17818 1 0.16500 119244.000000
794 11809 1 0.16500 119244.000000
794 15919 1 0.16500 119244.000000
795 11809 1 0.16500 119244.000000
795 16497 1 0.16500 119244.000000
796 11809 1 0.16500 119244.000000
796 12888 1 0.16500 119244.000000
797 12971 1 0.16500 119244.000000
797 17257 1 0.16500 119244.000000
798 14500 1 0.16500 119244.000000
798 17257 1 0.16500 119244.000000
799 14661 1 0.16500 119244.000000
799 17257 1 0.16500 119244.000000
800 13381 1 0.16500 119244.000000
800 17260 1 0.16500 119244.000000
801 17260 1 0.16500 119244.000000
801 17338 1 0.16500 119244.000000
802 11810 1 0.16500 119244.000000
802 16221 1 0.16500 119244.000000
803 11810 1 0.16500 119244.000000
803 15741 1 0.16500 119244.000000
804 11810 1 0.16500 119244.000000
804 13146 1 0.16500 119244.000000
805 11810 1 0.16500 119244.000000
805 14028 1 0.16500 119244.000000
806 11811 1 0.16500 119244.000000
806 12153 1 0.16500 119244.000000
807 11811 1 0.16500 119244.000000
807 16752 1 0.16500 119244.000000
808 11811 1 0.16500 119244.000000
808 13551 1 0.16500 119244.000000
809 12153 1 0.16500 119244.000000
809 14426 1 0.16500 119244.000000
810 15262 1 0.16500 119244.000000
810 16352 1 0.16500 119244.000000
811 12056 1 0.16500 119244.000000
811 16352 1 0.16500 119244.000000
812 16352 1 0.16500 119244.000000
812 16804 1 0.16500 119244.000000
813 11812 1 0.16500 119244.000000
813 16352 1 0.16500 119244.000000
814 11813 1 0.16500 119244.000000
814 15955 1 0.16500 119244.000000
815 11813 1 0.16500 119244.000000
815 13678 1 0.16500 119244.000000
816 11813 1 0.16500 119244.000000
816 14278 1 0.16500 119244.000000
817 11813 1 0.16500 119244.000000
817 16926 1 0.16500 119244.000000
818 11814 1 0.16500 119244.000000
818 13535 1 0.16500 119244.000000
819 11814 1 0.16500 119244.000000
819 16695 1 0.16500 119244.000000
820 11814 1 0.16500 119244.000000
820 15303 1 0.16500 119244.000000
821 11814 1 0.16500 119244.000000
821 15710 1 0.16500 119244.000000
822 11815 1 0.16500 119244.000000
822 12622 1 0.16500 119244.000000
823 11815 1 0.16500 119244.000000
823 13893 1 0.16500 119244.000000
824 11815 1 0.16500 119244.000000
824 17019 1 0.16500 119244.000000
825 11816 1 0.16500 119244.000000
825 16984 1 0.16500 119244.000000
826 16492 1 0.16500 119244.000000
826 16984 1 0.16500 119244.000000
827 11816 1 0.16500 119244.000000
827 15911 1 0.16500 119244.000000
828 11816 1 0.16500 119244.000000
828 12338 1 0.16500 119244.000000
829 11817 1 0.16500 119244.000000
829 15551 1 0.16500 119244.000000
830 11817 1 0.16500 119244.000000
830 14664 1 0.16500 119244.000000
831 11817 1 0.16500 119244.000000
831 14931 1 0.16500 119244.000000
832 11817 1 0.16500 119244.000000
832 14542 1 0.16500 119244.000000
833 11818 1 0.16500 119244.000000
833 16762 1 0.16500 119244.000000
834 11818 1 0.16500 119244.000000
834 16711 1 0.16500 119244.000000
835 11818 1 0.16500 119244.000000
835 16229 1 0.16500 119244.000000
836 11818 1 0.16500 119244.000000
836 16472 1 0.16500 119244.000000
837 12976 1 0.16500 119244.000000
837 17263 1 0.16500 119244.000000
838 13688 1 0.16500 119244.000000
838 17263 1 0.16500 119244.000000
839 16298 1 0.16500 119244.000000
839 17263 1 0.16500 119244.000000
840 11819 1 0.16500 119244.000000
840 17371 1 0.16500 119244.000000
841 11820 1 0.16500 119244.000000
841 13002 1 0.16500 119244.000000
842 11820 1 0.16500 119244.000000
842 16809 1 0.16500 119244.000000
843 11812 1 0.16500 119244.000000
843 11820 1 0.16500 119244.000000
844 11820 1 0.16500 119244.000000
844 15171 1 0.16500 119244.000000
845 12219 1 0.16500 119244.000000
845 14956 1 0.16500 119244.000000
846 11821 1 0.16500 119244.000000
846 15160 1 0.16500 119244.000000
847 11821 1 0.16500 119244.000000
847 12299 1 0.16500 119244.000000
848 11821 1 0.16500 119244.000000
848 13136 1 0.16500 119244.000000
849 11822 1 0.16500 119244.000000
849 14725 1 0.16500 119244.000000
850 11780 1 0.16500 119244.000000
850 13485 1 0.16500 119244.000000
851 11822 1 0.16500 119244.000000
851 15840 1 0.16500 119244.000000
852 11823 1 0.16500 119244.000000
852 16562 1 0.16500 119244.000000
853 11823 1 0.16500 119244.000000
853 16163 1 0.16500 119244.000000
854 11823 1 0.16500 119244.000000
854 12160 1 0.16500 119244.000000
855 11823 1 0.16500 119244.000000
855 12602 1 0.16500 119244.000000
856 11824 1 0.16500 119244.000000
856 11878 1 0.16500 119244.000000
857 11824 1 0.16500 119244.000000
857 14908 1 0.16500 119244.000000
858 11824 1 0.16500 119244.000000
858 13176 1 0.16500 119244.000000
859 11824 1 0.16500 119244.000000
859 16367 1 0.16500 119244.000000
860 11825 1 0.16500 119244.000000
860 15292 1 0.16500 119244.000000
861 11825 1 0.16500 119244.000000
861 13142 1 0.16500 119244.000000
862 11825 1 0.16500 119244.000000
862 16895 1 0.16500 119244.000000
863 11825 1 0.16500 119244.000000
863 16949 1 0.16500 119244.000000
864 11826 1 0.16500 119244.000000
864 13338 1 0.16500 119244.000000
865 11826 1 0.16500 119244.000000
865 11858 1 0.16500 119244.000000
866 11858 1 0.16500 119244.000000
866 15613 1 0.16500 119244.000000
867 11826 1 0.16500 119244.000000
867 17995 1 0.16500 119244.000000
868 11827 1 0.16500 119244.000000
868 13889 1 0.16500 119244.000000
869 11827 1 0.16500 119244.000000
869 11872 1 0.16500 119244.000000
870 11827 1 0.16500 119244.000000
870 13604 1 0.16500 119244.000000
871 11828 1 0.16500 119244.000000
871 13176 1 0.16500 119244.000000
872 11828 1 0.16500 119244.000000
872 14026 1 0.16500 119244.000000
873 11828 1 0.16500 119244.000000
873 15774 1 0.16500 119244.000000
874 11828 1 0.16500 119244.000000
874 16248 1 0.16500 119244.000000
875 11829 1 0.16500 119244.000000
875 12317 1 0.16500 119244.000000
876 11829 1 0.16500 119244.000000
876 12401 1 0.16500 119244.000000
877 11829 1 0.16500 119244.000000
877 16056 1 0.16500 119244.000000
878 11829 1 0.16500 119244.000000
878 13487 1 0.16500 119244.000000
879 11830 1 0.16500 119244.000000
879 16609 1 0.16500 119244.000000
880 11830 1 0.16500 119244.000000
880 15830 1 0.16500 119244.000000
881 11830 1 0.16500 119244.000000
881 14984 1 0.16500 119244.000000
882 11830 1 0.16500 119244.000000
882 12708 1 0.16500 119244.000000
883 11831 1 0.16500 119244.000000
883 13833 1 0.16500 119244.000000
884 11831 1 0.16500 119244.000000
884 15916 1 0.16500 119244.000000
885 11831 1 0.16500 119244.000000
885 15750 1 0.16500 119244.000000
886 11831 1 0.16500 119244.000000
886 14936 1 0.16500 119244.000000
887 11832 1 0.16500 119244.000000
887 14423 1 0.16500 119244.000000
888 11832 1 0.16500 119244.000000
888 14824 1 0.16500 119244.000000
889 11832 1 0.16500 119244.000000
889 13005 1 0.16500 119244.000000
890 11833 1 0.16500 119244.000000
890 15005 1 0.16500 119244.000000
891 11833 1 0.16500 119244.000000
891 13992 1 0.16500 119244.000000
892 11833 1 0.16500 119244.000000
892 16734 1 0.16500 119244.000000
893 11833 1 0.16500 119244.000000
893 12879 1 0.16500 119244.000000
894 11834 1 0.16500 119244.000000
894 11922 1 0.16500 119244.000000
895 12731 1 0.16500 119244.000000
895 17317 1 0.16500 119244.000000
896 11922 1 0.16500 119244.000000
896 16178 1 0.16500 119244.000000
897 12731 1 0.16500 119244.000000
897 15348 1 0.16500 119244.000000
898 11835 1 0.16500 119244.000000
898 14459 1 0.16500 119244.000000
899 11835 1 0.16500 119244.000000
899 14135 1 0.16500 119244.000000
900 11835 1 0.16500 119244.000000
900 12463 1 0.16500 119244.000000
901 11835 1 0.16500 119244.000000
901 16582 1 0.16500 119244.000000
902 12419 1 0.16500 119244.000000
902 13211 1 0.16500 119244.000000
903 12572 1 0.16500 119244.000000
903 13211 1 0.16500 119244.000000
904 11836 1 0.16500 119244.000000
904 13211 1 0.16500 119244.000000
905 13211 1 0.16500 119244.000000
905 15135 1 0.16500 119244.000000
906 12391 1 0.16500 119244.000000
906 14860 1 0.16500 119244.000000
907 11837 1 0.16500 119244.000000
907 15995 1 0.16500 119244.000000
908 11837 1 0.16500 119244.000000
908 15833 1 0.16500 119244.000000
909 11837 1 0.16500 119244.000000
909 14860 1 0.16500 119244.000000
910 11838 1 0.16500 119244.000000
910 15953 1 0.16500 119244.000000
911 11838 1 0.16500 119244.000000
911 12354 1 0.16500 119244.000000
912 11838 1 0.16500 119244.000000
912 16779 1 0.16500 119244.000000
913 11838 1 0.16500 119244.000000
913 16667 1 0.16500 119244.000000
914 11839 1 0.16500 119244.000000
914 16129 1 0.16500 119244.000000
915 11839 1 0.16500 119244.000000
915 13651 1 0.16500 119244.000000
916 11839 1 0.16500 119244.000000
916 15844 1 0.16500 119244.000000
917 11839 1 0.16500 119244.000000
917 15089 1 0.16500 119244.000000
918 11840 1 0.16500 119244.000000
918 12437 1 0.16500 119244.000000
919 11840 1 0.16500 119244.000000
919 16624 1 0.16500 119244.000000
920 11840 1 0.16500 119244.000000
920 16992 1 0.16500 119244.000000
921 11841 1 0.16500 119244.000000
921 15827 1 0.16500 119244.000000
922 11841 1 0.16500 119244.000000
922 14369 1 0.16500 119244.000000
923 11841 1 0.16500 119244.000000
923 13313 1 0.16500 119244.000000
924 11841 1 0.16500 119244.000000
924 12118 1 0.16500 119244.000000
925 11842 1 0.16500 119244.000000
925 11851 1 0.16500 119244.000000
926 11842 1 0.16500 119244.000000
926 14244 1 0.16500 119244.000000
927 11842 1 0.16500 119244.000000
927 12177 1 0.16500 119244.000000
928 11842 1 0.16500 119244.000000
928 16848 1 0.16500 119244.000000
929 11843 1 0.16500 119244.000000
929 16281 1 0.16500 119244.000000
930 11843 1 0.16500 119244.000000
930 15572 1 0.16500 119244.000000
931 11843 1 0.16500 119244.000000
931 14098 1 0.16500 119244.000000
932 11843 1 0.16500 119244.000000
932 15992 1 0.16500 119244.000000
933 11844 1 0.16500 119244.000000
933 14135 1 0.16500 119244.000000
934 11844 1 0.16500 119244.000000
934 16921 1 0.16500 119244.000000
935 11844 1 0.16500 119244.000000
935 13701 1 0.16500 119244.000000
936 11844 1 0.16500 119244.000000
936 15256 1 0.16500 119244.000000
937 11845 1 0.16500 119244.000000
937 16177 1 0.16500 119244.000000
938 11845 1 0.16500 119244.000000
938 16693 1 0.16500 119244.000000
939 11845 1 0.16500 119244.000000
939 13471 1 0.16500 119244.000000
940 11845 1 0.16500 119244.000000
940 13164 1 0.16500 119244.000000
941 11846 1 0.16500 119244.000000
941 11904 1 0.16500 119244.000000
942 11846 1 0.16500 119244.000000
942 16366 1 0.16500 119244.000000
943 11846 1 0.16500 119244.000000
943 17632 1 0.16500 119244.000000
944 11846 1 0.16500 119244.000000
944 15067 1 0.16500 119244.000000
945 11847 1 0.16500 119244.000000
945 16007 1 0.16500 119244.000000
946 11847 1 0.16500 119244.000000
946 12026 1 0.16500 119244.000000
947 11847 1 0.16500 119244.000000
947 17029 1 0.16500 119244.000000
948 11847 1 0.16500 119244.000000
948 17190 1 0.16500 119244.000000
949 11941 1 0.16500 119244.000000
949 15241 1 0.16500 119244.000000
950 11848 1 0.16500 119244.000000
950 12628 1 0.16500 119244.000000
951 11848 1 0.16500 119244.000000
951 15241 1 0.16500 119244.000000
952 11848 1 0.16500 119244.000000
952 14037 1 0.16500 119244.000000
953 11849 1 0.16500 119244.000000
953 11867 1 0.16500 119244.000000
954 11849 1 0.16500 119244.000000
954 13881 1 0.16500 119244.000000
955 11849 1 0.16500 119244.000000
955 12991 1 0.16500 119244.000000
956 11849 1 0.16500 119244.000000
956 15844 1 0.16500 119244.000000
957 11850 1 0.16500 119244.000000
957 11917 1 0.16500 119244.000000
958 11850 1 0.16500 119244.000000
958 12649 1 0.16500 119244.000000
959 11917 1 0.16500 119244.000000
959 13814 1 0.16500 119244.000000
960 12649 1 0.16500 119244.000000
960 13021 1 0.16500 119244.000000
961 11851 1 0.16500 119244.000000
961 16039 1 0.16500 119244.000000
962 11851 1 0.16500 119244.000000
962 15061 1 0.16500 119244.000000
963 11851 1 0.16500 119244.000000
963 14950 1 0.16500 119244.000000
964 11852 1 0.16500 119244.000000
964 16694 1 0.16500 119244.000000
965 11852 1 0.16500 119244.000000
965 13625 1 0.16500 119244.000000
966 11853 1 0.16500 119244.000000
966 13176 1 0.16500 119244.000000
967 11853 1 0.16500 119244.000000
967 14574 1 0.16500 119244.000000
968 11853 1 0.16500 119244.000000
968 15093 1 0.16500 119244.000000
969 11853 1 0.16500 119244.000000
969 16889 1 0.16500 119244.000000
970 11854 1 0.16500 119244.000000
970 16342 1 0.16500 119244.000000
971 11854 1 0.16500 119244.000000
971 12152 1 0.16500 119244.000000
972 11854 1 0.16500 119244.000000
972 12517 1 0.16500 119244.000000
973 11854 1 0.16500 119244.000000
973 12061 1 0.16500 119244.000000
974 11855 1 0.16500 119244.000000
974 15134 1 0.16500 119244.000000
975 11855 1 0.16500 119244.000000
975 14462 1 0.16500 119244.000000
976 11855 1 0.16500 119244.000000
976 16463 1 0.16500 119244.000000
977 11855 1 0.16500 119244.000000
977 15121 1 0.16500 119244.000000
978 11856 1 0.16500 119244.000000
978 16894 1 0.16500 119244.000000
979 11856 1 0.16500 119244.000000
979 15779 1 0.16500 119244.000000
980 11856 1 0.16500 119244.000000
980 17464 1 0.16500 119244.000000
981 11857 1 0.16500 119244.000000
981 15364 1 0.16500 119244.000000
982 12339 1 0.16500 119244.000000
982 15364 1 0.16500 119244.000000
983 11857 1 0.16500 119244.000000
983 12502 1 0.16500 119244.000000
984 11857 1 0.16500 119244.000000
984 11980 1 0.16500 119244.000000
985 12171 1 0.16500 119244.000000
985 16489 1 0.16500 119244.000000
986 11826 1 0.16500 119244.000000
986 12699 1 0.16500 119244.000000
987 11858 1 0.16500 119244.000000
987 13113 1 0.16500 119244.000000
988 11858 1 0.16500 119244.000000
988 16211 1 0.16500 119244.000000
989 11859 1 0.16500 119244.000000
989 16979 1 0.16500 119244.000000
990 11859 1 0.16500 119244.000000
990 17176 1 0.16500 119244.000000
991 11859 1 0.16500 119244.000000
991 15801 1 0.16500 119244.000000
992 11859 1 0.16500 119244.000000
992 11896 1 0.16500 119244.000000
993 11860 1 0.16500 119244.000000
993 13713 1 0.16500 119244.000000
994 11860 1 0.16500 119244.000000
994 16999 1 0.16500 119244.000000
995 11860 1 0.16500 119244.000000
995 12039 1 0.16500 119244.000000
996 11861 1 0.16500 119244.000000
996 17113 1 0.16500 119244.000000
997 11861 1 0.16500 119244.000000
997 16959 1 0.16500 119244.000000
998 11861 1 0.16500 119244.000000
998 16606 1 0.16500 119244.000000
999 11861 1 0.16500 119244.000000
999 12842 1 0.16500 119244.000000
1000 11862 1 0.16500 119244.000000
1000 13569 1 0.16500 119244.000000
1001 11862 1 0.16500 119244.000000
1001 17050 1 0.16500 119244.000000
1002 11862 1 0.16500 119244.000000
1002 16706 1 0.16500 119244.000000
1003 11862 1 0.16500 119244.000000
1003 15847 1 0.16500 119244.000000
1004 11863 1 0.16500 119244.000000
1004 12633 1 0.16500 119244.000000
1005 11863 1 0.16500 119244.000000
1005 12317 1 0.16500 119244.000000
1006 11863 1 0.16500 119244.000000
1006 15349 1 0.16500 119244.000000
1007 11863 1 0.16500 119244.000000
1007 14636 1 0.16500 119244.000000
1008 11864 1 0.16500 119244.000000
1008 11895 1 0.16500 119244.000000
1009 11864 1 0.16500 119244.000000
1009 15787 1 0.16500 119244.000000
1010 15429 1 0.16500 119244.000000
1010 15798 1 0.16500 119244.000000
1011 11864 1 0.16500 119244.000000
1011 15429 1 0.16500 119244.000000
1012 11865 1 0.16500 119244.000000
1012 15061 1 0.16500 119244.000000
1013 11865 1 0.16500 119244.000000
1013 16187 1 0.16500 119244.000000
1014 11865 1 0.16500 119244.000000
1014 16848 1 0.16500 119244.000000
1015 11865 1 0.16500 119244.000000
1015 12866 1 0.16500 119244.000000
1016 11866 1 0.16500 119244.000000
1016 12162 1 0.16500 119244.000000
1017 11866 1 0.16500 119244.000000
1017 16469 1 0.16500 119244.000000
1018 11866 1 0.16500 119244.000000
1018 14419 1 0.16500 119244.000000
1019 11866 1 0.16500 119244.000000
1019 12720 1 0.16500 119244.000000
1020 11867 1 0.16500 119244.000000
1020 13567 1 0.16500 119244.000000
1021 11867 1 0.16500 119244.000000
1021 17827 1 0.16500 119244.000000
1022 11867 1 0.16500 119244.000000
1022 12255 1 0.16500 119244.000000
1023 11868 1 0.16500 119244.000000
1023 16247 1 0.16500 119244.000000
1024 11868 1 0.16500 119244.000000
1024 16675 1 0.16500 119244.000000
1025 11868 1 0.16500 119244.000000
1025 13546 1 0.16500 119244.000000
1026 11868 1 0.16500 119244.000000
1026 16843 1 0.16500 119244.000000
1027 11869 1 0.16500 119244.000000
1027 12369 1 0.16500 119244.000000
1028 11869 1 0.16500 119244.000000
1028 12479 1 0.16500 119244.000000
1029 11869 1 0.16500 119244.000000
1029 15996 1 0.16500 119244.000000
1030 11836 1 0.16500 119244.000000
1030 11870 1 0.16500 119244.000000
1031 11870 1 0.16500 119244.000000
1031 16358 1 0.16500 119244.000000
1032 11870 1 0.16500 119244.000000
1032 15116 1 0.16500 119244.000000
1033 11870 1 0.16500 119244.000000
1033 15851 1 0.16500 119244.000000
1034 14857 1 0.16500 119244.000000
1034 17266 1 0.16500 119244.000000
1035 14564 1 0.16500 119244.000000
1035 17266 1 0.16500 119244.000000
1036 15747 1 0.16500 119244.000000
1036 17281 1 0.16500 119244.000000
1037 15747 1 0.16500 119244.000000
1037 16295 1 0.16500 119244.000000
1038 13441 1 0.16500 119244.000000
1038 15747 1 0.16500 119244.000000
1039 11871 1 0.16500 119244.000000
1039 15747 1 0.16500 119244.000000
1040 11872 1 0.16500 119244.000000
1040 17839 1 0.16500 119244.000000
1041 11872 1 0.16500 119244.000000
1041 15666 1 0.16500 119244.000000
1042 11872 1 0.16500 119244.000000
1042 11873 1 0.16500 119244.000000
1043 11873 1 0.16500 119244.000000
1043 15176 1 0.16500 119244.000000
1044 11873 1 0.16500 119244.000000
1044 17308 1 0.16500 119244.000000
1045 11874 1 0.16500 119244.000000
1045 15766 1 0.16500 119244.000000
1046 11874 1 0.16500 119244.000000
1046 16339 1 0.16500 119244.000000
1047 11874 1 0.16500 119244.000000
1047 11946 1 0.16500 119244.000000
1048 11874 1 0.16500 119244.000000
1048 15840 1 0.16500 119244.000000
1049 11875 1 0.16500 119244.000000
1049 15609 1 0.16500 119244.000000
1050 11875 1 0.16500 119244.000000
1050 16200 1 0.16500 119244.000000
1051 11875 1 0.16500 119244.000000
1051 15083 1 0.16500 119244.000000
1052 11876 1 0.16500 119244.000000
1052 12022 1 0.16500 119244.000000
1053 11876 1 0.16500 119244.000000
1053 16097 1 0.16500 119244.000000
1054 11876 1 0.16500 119244.000000
1054 15781 1 0.16500 119244.000000
1055 11876 1 0.16500 119244.000000
1055 12867 1 0.16500 119244.000000
1056 11877 1 0.16500 119244.000000
1056 12079 1 0.16500 119244.000000
1057 11877 1 0.16500 119244.000000
1057 16477 1 0.16500 119244.000000
1058 11877 1 0.16500 119244.000000
1058 14818 1 0.16500 119244.000000
1059 11877 1 0.16500 119244.000000
1059 15826 1 0.16500 119244.000000
1060 11878 1 0.16500 119244.000000
1060 16254 1 0.16500 119244.000000
1061 11878 1 0.16500 119244.000000
1061 15971 1 0.16500 119244.000000
1062 13229 1 0.16500 119244.000000
1062 16254 1 0.16500 119244.000000
1063 13601 1 0.16500 119244.000000
1063 13831 1 0.16500 119244.000000
1064 11879 1 0.16500 119244.000000
1064 13601 1 0.16500 119244.000000
1065 13601 1 0.16500 119244.000000
1065 15280 1 0.16500 119244.000000
1066 11880 1 0.16500 119244.000000
1066 14115 1 0.16500 119244.000000
1067 11880 1 0.16500 119244.000000
1067 15021 1 0.16500 119244.000000
1068 11880 1 0.16500 119244.000000
1068 15052 1 0.16500 119244.000000
1069 11880 1 0.16500 119244.000000
1069 12650 1 0.16500 119244.000000
1070 11881 1 0.16500 119244.000000
1070 16443 1 0.16500 119244.000000
1071 11881 1 0.16500 119244.000000
1071 17071 1 0.16500 119244.000000
1072 11881 1 0.16500 119244.000000
1072 15494 1 0.16500 119244.000000
1073 11882 1 0.16500 119244.000000
1073 17281 1 0.16500 119244.000000
1074 11882 1 0.16500 119244.000000
1074 17185 1 0.16500 119244.000000
1075 11882 1 0.16500 119244.000000
1075 15721 1 0.16500 119244.000000
1076 11882 1 0.16500 119244.000000
1076 15211 1 0.16500 119244.000000
1077 11883 1 0.16500 119244.000000
1077 13960 1 0.16500 119244.000000
1078 11883 1 0.16500 119244.000000
1078 14260 1 0.16500 119244.000000
1079 11883 1 0.16500 119244.000000
1079 17035 1 0.16500 119244.000000
1080 11883 1 0.16500 119244.000000
1080 15705 1 0.16500 119244.000000
1081 11884 1 0.16500 119244.000000
1081 16284 1 0.16500 119244.000000
1082 11884 1 0.16500 119244.000000
1082 12946 1 0.16500 119244.000000
1083 11884 1 0.16500 119244.000000
1083 17111 1 0.16500 119244.000000
1084 11884 1 0.16500 119244.000000
1084 14920 1 0.16500 119244.000000
1085 11885 1 0.16500 119244.000000
1085 13776 1 0.16500 119244.000000
1086 11885 1 0.16500 119244.000000
1086 12762 1 0.16500 119244.000000
1087 11885 1 0.16500 119244.000000
1087 14474 1 0.16500 119244.000000
1088 11885 1 0.16500 119244.000000
1088 13415 1 0.16500 119244.000000
1089 11886 1 0.16500 119244.000000
1089 14516 1 0.16500 119244.000000
1090 11886 1 0.16500 119244.000000
1090 15197 1 0.16500 119244.000000
1091 11886 1 0.16500 119244.000000
1091 13477 1 0.16500 119244.000000
1092 11886 1 0.16500 119244.000000
1092 16757 1 0.16500 119244.000000
1093 11887 1 0.16500 119244.000000
1093 13451 1 0.16500 119244.000000
1094 11887 1 0.16500 119244.000000
1094 14640 1 0.16500 119244.000000
1095 11887 1 0.16500 119244.000000
1095 16823 1 0.16500 119244.000000
1096 11888 1 0.16500 119244.000000
1096 14665 1 0.16500 119244.000000
1097 11888 1 0.16500 119244.000000
1097 13582 1 0.16500 119244.000000
1098 11888 1 0.16500 119244.000000
1098 14727 1 0.16500 119244.000000
1099 11888 1 0.16500 119244.000000
1099 13037 1 0.16500 119244.000000
1100 11889 1 0.16500 119244.000000
1100 13429 1 0.16500 119244.000000
1101 11889 1 0.16500 119244.000000
1101 13469 1 0.16500 119244.000000
1102 11889 1 0.16500 119244.000000
1102 15608 1 0.16500 119244.000000
1103 11889 1 0.16500 119244.000000
1103 17034 1 0.16500 119244.000000
1104 11890 1 0.16500 119244.000000
1104 16504 1 0.16500 119244.000000
1105 11890 1 0.16500 119244.000000
1105 15352 1 0.16500 119244.000000
1106 11890 1 0.16500 119244.000000
1106 17148 1 0.16500 119244.000000
1107 11891 1 0.16500 119244.000000
1107 12437 1 0.16500 119244.000000
1108 12437 1 0.16500 119244.000000
1108 16968 1 0.16500 119244.000000
1109 12437 1 0.16500 119244.000000
1109 13653 1 0.16500 119244.000000
1110 13925 1 0.16500 119244.000000
1110 17269 1 0.16500 119244.000000
1111 13795 1 0.16500 119244.000000
1111 17269 1 0.16500 119244.000000
1112 16791 1 0.16500 119244.000000
1112 17269 1 0.16500 119244.000000
1113 11892 1 0.16500 119244.000000
1113 16934 1 0.16500 119244.000000
1114 14929 1 0.16500 119244.000000
1114 16934 1 0.16500 119244.000000
1115 11892 1 0.16500 119244.000000
1115 15831 1 0.16500 119244.000000
1116 11892 1 0.16500 119244.000000
1116 12019 1 0.16500 119244.000000
1117 11893 1 0.16500 119244.000000
1117 14150 1 0.16500 119244.000000
1118 11893 1 0.16500 119244.000000
1118 12609 1 0.16500 119244.000000
1119 11893 1 0.16500 119244.000000
1119 16116 1 0.16500 119244.000000
1120 11893 1 0.16500 119244.000000
1120 17956 1 0.16500 119244.000000
1121 11894 1 0.16500 119244.000000
1121 13479 1 0.16500 119244.000000
1122 11894 1 0.16500 119244.000000
1122 16222 1 0.16500 119244.000000
1123 11894 1 0.16500 119244.000000
1123 12596 1 0.16500 119244.000000
1124 11894 1 0.16500 119244.000000
1124 15696 1 0.16500 119244.000000
1125 11895 1 0.16500 119244.000000
1125 16521 1 0.16500 119244.000000
1126 11895 1 0.16500 119244.000000
1126 16010 1 0.16500 119244.000000
1127 11895 1 0.16500 119244.000000
1127 16807 1 0.16500 119244.000000
1128 11896 1 0.16500 119244.000000
1128 12232 1 0.16500 119244.000000
1129 11896 1 0.16500 119244.000000
1129 13197 1 0.16500 119244.000000
1130 11897 1 0.16500 119244.000000
1130 16000 1 0.16500 119244.000000
1131 11747 1 0.16500 119244.000000
1131 15581 1 0.16500 119244.000000
1132 11897 1 0.16500 119244.000000
1132 15630 1 0.16500 119244.000000
1133 11898 1 0.16500 119244.000000
1133 14299 1 0.16500 119244.000000
1134 11898 1 0.16500 119244.000000
1134 12647 1 0.16500 119244.000000
1135 11898 1 0.16500 119244.000000
1135 14351 1 0.16500 119244.000000
1136 11898 1 0.16500 119244.000000
1136 14257 1 0.16500 119244.000000
1137 16351 1 0.16500 119244.000000
1137 17644 1 0.16500 119244.000000
1138 11899 1 0.16500 119244.000000
1138 15854 1 0.16500 119244.000000
1139 11899 1 0.16500 119244.000000
1139 13067 1 0.16500 119244.000000
1140 11899 1 0.16500 119244.000000
1140 15924 1 0.16500 119244.000000
1141 11899 1 0.16500 119244.000000
1141 12084 1 0.16500 119244.000000
1142 11900 1 0.16500 119244.000000
1142 12380 1 0.16500 119244.000000
1143 11900 1 0.16500 119244.000000
1143 11915 1 0.16500 119244.000000
1144 11900 1 0.16500 119244.000000
1144 13581 1 0.16500 119244.000000
1145 11900 1 0.16500 119244.000000
1145 13849 1 0.16500 119244.000000
1146 11901 1 0.16500 119244.000000
1146 16983 1 0.16500 119244.000000
1147 11901 1 0.16500 119244.000000
1147 13177 1 0.16500 119244.000000
1148 11901 1 0.16500 119244.000000
1148 13404 1 0.16500 119244.000000
1149 11901 1 0.16500 119244.000000
1149 16424 1 0.16500 119244.000000
1150 11902 1 0.16500 119244.000000
1150 13933 1 0.16500 119244.000000
1151 13933 1 0.16500 119244.000000
1151 14422 1 0.16500 119244.000000
1152 11902 1 0.16500 119244.000000
1152 12647 1 0.16500 119244.000000
1153 11903 1 0.16500 119244.000000
1153 17095 1 0.16500 119244.000000
1154 11903 1 0.16500 119244.000000
1154 17467 1 0.16500 119244.000000
1155 11903 1 0.16500 119244.000000
1155 15190 1 0.16500 119244.000000
1156 11903 1 0.16500 119244.000000
1156 15446 1 0.16500 119244.000000
1157 11904 1 0.16500 119244.000000
1157 16661 1 0.16500 119244.000000
1158 11904 1 0.16500 119244.000000
1158 12215 1 0.16500 119244.000000
1159 11904 1 0.16500 119244.000000
1159 15317 1 0.16500 119244.000000
1160 13402 1 0.16500 119244.000000
1160 16155 1 0.16500 119244.000000
1161 11905 1 0.16500 119244.000000
1161 12319 1 0.16500 119244.000000
1162 11905 1 0.16500 119244.000000
1162 13402 1 0.16500 119244.000000
1163 13402 1 0.16500 119244.000000
1163 13750 1 0.16500 119244.000000
1164 11906 1 0.16500 119244.000000
1164 14696 1 0.16500 119244.000000
1165 11906 1 0.16500 119244.000000
1165 16873 1 0.16500 119244.000000
1166 11906 1 0.16500 119244.000000
1166 13962 1 0.16500 119244.000000
1167 11906 1 0.16500 119244.000000
1167 14345 1 0.16500 119244.000000
1168 11907 1 0.16500 119244.000000
1168 16990 1 0.16500 119244.000000
1169 11907 1 0.16500 119244.000000
1169 15523 1 0.16500 119244.000000
1170 11907 1 0.16500 119244.000000
1170 12734 1 0.16500 119244.000000
1171 11907 1 0.16500 119244.000000
1171 17554 1 0.16500 119244.000000
1172 11908 1 0.16500 119244.000000
1172 14301 1 0.16500 119244.000000
1173 11908 1 0.16500 119244.000000
1173 15370 1 0.16500 119244.000000
1174 11908 1 0.16500 119244.000000
1174 13145 1 0.16500 119244.000000
1175 11908 1 0.16500 119244.000000
1175 14516 1 0.16500 119244.000000
1176 11909 1 0.16500 119244.000000
1176 16435 1 0.16500 119244.000000
1177 11909 1 0.16500 119244.000000
1177 14765 1 0.16500 119244.000000
1178 11909 1 0.16500 119244.000000
1178 16450 1 0.16500 119244.000000
1179 11910 1 0.16500 119244.000000
1179 16578 1 0.16500 119244.000000
1180 11910 1 0.16500 119244.000000
1180 17809 1 0.16500 119244.000000
1181 11911 1 0.16500 119244.000000
1181 15681 1 0.16500 119244.000000
1182 11911 1 0.16500 119244.000000
1182 14766 1 0.16500 119244.000000
1183 11911 1 0.16500 119244.000000
1183 16572 1 0.16500 119244.000000
1184 11911 1 0.16500 119244.000000
1184 15920 1 0.16500 119244.000000
1185 11912 1 0.16500 119244.000000
1185 14172 1 0.16500 119244.000000
1186 11912 1 0.16500 119244.000000
1186 12367 1 0.16500 119244.000000
1187 11912 1 0.16500 119244.000000
1187 12030 1 0.16500 119244.000000
1188 11912 1 0.16500 119244.000000
1188 16961 1 0.16500 119244.000000
1189 11913 1 0.16500 119244.000000
1189 13373 1 0.16500 119244.000000
1190 11913 1 0.16500 119244.000000
1190 16865 1 0.16500 119244.000000
1191 11913 1 0.16500 119244.000000
1191 14989 1 0.16500 119244.000000
1192 13373 1 0.16500 119244.000000
1192 14794 1 0.16500 119244.000000
1193 11914 1 0.16500 119244.000000
1193 14369 1 0.16500 119244.000000
1194 11914 1 0.16500 119244.000000
1194 14191 1 0.16500 119244.000000
1195 11914 1 0.16500 119244.000000
1195 12169 1 0.16500 119244.000000
1196 11914 1 0.16500 119244.000000
1196 13151 1 0.16500 119244.000000
1197 11664 1 0.16500 119244.000000
1197 11915 1 0.16500 119244.000000
1198 11915 1 0.16500 119244.000000
1198 16645 1 0.16500 119244.000000
1199 13934 1 0.16500 119244.000000
1199 15264 1 0.16500 119244.000000
1200 11916 1 0.16500 119244.000000
1200 14722 1 0.16500 119244.000000
1201 11916 1 0.16500 119244.000000
1201 13934 1 0.16500 119244.000000
1202 11916 1 0.16500 119244.000000
1202 15295 1 0.16500 119244.000000
1203 11850 1 0.16500 119244.000000
1203 12852 1 0.16500 119244.000000
1204 11917 1 0.16500 119244.000000
1204 13120 1 0.16500 119244.000000
1205 11917 1 0.16500 119244.000000
1205 13102 1 0.16500 119244.000000
1206 11918 1 0.16500 119244.000000
1206 12381 1 0.16500 119244.000000
1207 11918 1 0.16500 119244.000000
1207 14881 1 0.16500 119244.000000
1208 11919 1 0.16500 119244.000000
1208 15482 1 0.16500 119244.000000
1209 11919 1 0.16500 119244.000000
1209 14212 1 0.16500 119244.000000
1210 11919 1 0.16500 119244.000000
1210 13882 1 0.16500 119244.000000
1211 11920 1 0.16500 119244.000000
1211 14350 1 0.16500 119244.000000
1212 11680 1 0.16500 119244.000000
1212 11920 1 0.16500 119244.000000
1213 11920 1 0.16500 119244.000000
1213 15810 1 0.16500 119244.000000
1214 11920 1 0.16500 119244.000000
1214 12763 1 0.16500 119244.000000
1215 11921 1 0.16500 119244.000000
1215 16832 1 0.16500 119244.000000
1216 11921 1 0.16500 119244.000000
1216 12375 1 0.16500 119244.000000
1217 11921 1 0.16500 119244.000000
1217 15244 1 0.16500 119244.000000
1218 11921 1 0.16500 119244.000000
1218 11976 1 0.16500 119244.000000
1219 11922 1 0.16500 119244.000000
1219 14886 1 0.16500 119244.000000
1220 11834 1 0.16500 119244.000000
1220 16146 1 0.16500 119244.000000
1221 11922 1 0.16500 119244.000000
1221 16519 1 0.16500 119244.000000
1222 11923 1 0.16500 119244.000000
1222 16242 1 0.16500 119244.000000
1223 11923 1 0.16500 119244.000000
1223 12789 1 0.16500 119244.000000
1224 11923 1 0.16500 119244.000000
1224 17962 1 0.16500 119244.000000
1225 11924 1 0.16500 119244.000000
1225 11947 1 0.16500 119244.000000
1226 11924 1 0.16500 119244.000000
1226 15630 1 0.16500 119244.000000
1227 11924 1 0.16500 119244.000000
1227 16847 1 0.16500 119244.000000
1228 11924 1 0.16500 119244.000000
1228 13395 1 0.16500 119244.000000
1229 11925 1 0.16500 119244.000000
1229 14225 1 0.16500 119244.000000
1230 11925 1 0.16500 119244.000000
1230 16813 1 0.16500 119244.000000
1231 11925 1 0.16500 119244.000000
1231 16838 1 0.16500 119244.000000
1232 11925 1 0.16500 119244.000000
1232 13480 1 0.16500 119244.000000
1233 11926 1 0.16500 119244.000000
1233 15301 1 0.16500 119244.000000
1234 11926 1 0.16500 119244.000000
1234 15795 1 0.16500 119244.000000
1235 11926 1 0.16500 119244.000000
1235 13571 1 0.16500 119244.000000
1236 11926 1 0.16500 119244.000000
1236 15188 1 0.16500 119244.000000
1237 11927 1 0.16500 119244.000000
1237 15173 1 0.16500 119244.000000
1238 11927 1 0.16500 119244.000000
1238 16162 1 0.16500 119244.000000
1239 11927 1 0.16500 119244.000000
1239 14013 1 0.16500 119244.000000
1240 11928 1 0.16500 119244.000000
1240 15003 1 0.16500 119244.000000
1241 11928 1 0.16500 119244.000000
1241 13877 1 0.16500 119244.000000
1242 11928 1 0.16500 119244.000000
1242 13133 1 0.16500 119244.000000
1243 11929 1 0.16500 119244.000000
1243 15579 1 0.16500 119244.000000
1244 11929 1 0.16500 119244.000000
1244 16199 1 0.16500 119244.000000
1245 11929 1 0.16500 119244.000000
1245 16596 1 0.16500 119244.000000
1246 11930 1 0.16500 119244.000000
1246 14284 1 0.16500 119244.000000
1247 11930 1 0.16500 119244.000000
1247 12104 1 0.16500 119244.000000
1248 11930 1 0.16500 119244.000000
1248 15739 1 0.16500 119244.000000
1249 11930 1 0.16500 119244.000000
1249 14507 1 0.16500 119244.000000
1250 11931 1 0.16500 119244.000000
1250 16139 1 0.16500 119244.000000
1251 11931 1 0.16500 119244.000000
1251 13239 1 0.16500 119244.000000
1252 11931 1 0.16500 119244.000000
1252 12757 1 0.16500 119244.000000
1253 11931 1 0.16500 119244.000000
1253 14695 1 0.16500 119244.000000
1254 11932 1 0.16500 119244.000000
1254 14641 1 0.16500 119244.000000
1255 11932 1 0.16500 119244.000000
1255 14429 1 0.16500 119244.000000
1256 11932 1 0.16500 119244.000000
1256 11989 1 0.16500 119244.000000
1257 11932 1 0.16500 119244.000000
1257 16771 1 0.16500 119244.000000
1258 12074 1 0.16500 119244.000000
1258 13125 1 0.16500 119244.000000
1259 11933 1 0.16500 119244.000000
1259 16186 1 0.16500 119244.000000
1260 11933 1 0.16500 119244.000000
1260 17950 1 0.16500 119244.000000
1261 11933 1 0.16500 119244.000000
1261 13561 1 0.16500 119244.000000
1262 11933 1 0.16500 119244.000000
1262 17072 1 0.16500 119244.000000
1263 11934 1 0.16500 119244.000000
1263 17128 1 0.16500 119244.000000
1264 11934 1 0.16500 119244.000000
1264 16053 1 0.16500 119244.000000
1265 11934 1 0.16500 119244.000000
1265 12642 1 0.16500 119244.000000
1266 11935 1 0.16500 119244.000000
1266 14008 1 0.16500 119244.000000
1267 11935 1 0.16500 119244.000000
1267 15873 1 0.16500 119244.000000
1268 11935 1 0.16500 119244.000000
1268 14131 1 0.16500 119244.000000
1269 11935 1 0.16500 119244.000000
1269 14661 1 0.16500 119244.000000
1270 11936 1 0.16500 119244.000000
1270 14972 1 0.16500 119244.000000
1271 11936 1 0.16500 119244.000000
1271 17189 1 0.16500 119244.000000
1272 11936 1 0.16500 119244.000000
1272 14319 1 0.16500 119244.000000
1273 11936 1 0.16500 119244.000000
1273 12723 1 0.16500 119244.000000
1274 11937 1 0.16500 119244.000000
1274 16895 1 0.16500 119244.000000
1275 11937 1 0.16500 119244.000000
1275 13502 1 0.16500 119244.000000
1276 11937 1 0.16500 119244.000000
1276 14145 1 0.16500 119244.000000
1277 11937 1 0.16500 119244.000000
1277 13500 1 0.16500 119244.000000
1278 11938 1 0.16500 119244.000000
1278 12757 1 0.16500 119244.000000
1279 11938 1 0.16500 119244.000000
1279 12450 1 0.16500 119244.000000
1280 11938 1 0.16500 119244.000000
1280 14590 1 0.16500 119244.000000
1281 11938 1 0.16500 119244.000000
1281 16142 1 0.16500 119244.000000
1282 11939 1 0.16500 119244.000000
1282 15275 1 0.16500 119244.000000
1283 11939 1 0.16500 119244.000000
1283 15417 1 0.16500 119244.000000
1284 12542 1 0.16500 119244.000000
1284 17020 1 0.16500 119244.000000
1285 11939 1 0.16500 119244.000000
1285 17020 1 0.16500 119244.000000
1286 11940 1 0.16500 119244.000000
1286 15365 1 0.16500 119244.000000
1287 15365 1 0.16500 119244.000000
1287 17058 1 0.16500 119244.000000
1288 11940 1 0.16500 119244.000000
1288 13124 1 0.16500 119244.000000
1289 11941 1 0.16500 119244.000000
1289 13705 1 0.16500 119244.000000
1290 11941 1 0.16500 119244.000000
1290 15308 1 0.16500 119244.000000
1291 11941 1 0.16500 119244.000000
1291 17551 1 0.16500 119244.000000
1292 11942 1 0.16500 119244.000000
1292 16167 1 0.16500 119244.000000
1293 11942 1 0.16500 119244.000000
1293 16595 1 0.16500 119244.000000
1294 11942 1 0.16500 119244.000000
1294 16430 1 0.16500 119244.000000
1295 11942 1 0.16500 119244.000000
1295 17025 1 0.16500 119244.000000
1296 11943 1 0.16500 119244.000000
1296 16055 1 0.16500 119244.000000
1297 11943 1 0.16500 119244.000000
1297 15553 1 0.16500 119244.000000
1298 11943 1 0.16500 119244.000000
1298 12305 1 0.16500 119244.000000
1299 11944 1 0.16500 119244.000000
1299 12070 1 0.16500 119244.000000
1300 11944 1 0.16500 119244.000000
1300 16557 1 0.16500 119244.000000
1301 11944 1 0.16500 119244.000000
1301 12503 1 0.16500 119244.000000
1302 11944 1 0.16500 119244.000000
1302 13019 1 0.16500 119244.000000
1303 11945 1 0.16500 119244.000000
1303 15665 1 0.16500 119244.000000
1304 14722 1 0.16500 119244.000000
1304 16619 1 0.16500 119244.000000
1305 11945 1 0.16500 119244.000000
1305 14722 1 0.16500 119244.000000
1306 11945 1 0.16500 119244.000000
1306 16507 1 0.16500 119244.000000
1307 11946 1 0.16500 119244.000000
1307 15112 1 0.16500 119244.000000
1308 11946 1 0.16500 119244.000000
1308 12009 1 0.16500 119244.000000
1309 11946 1 0.16500 119244.000000
1309 13135 1 0.16500 119244.000000
1310 11947 1 0.16500 119244.000000
1310 16665 1 0.16500 119244.000000
1311 11947 1 0.16500 119244.000000
1311 14852 1 0.16500 119244.000000
1312 11871 1 0.16500 119244.000000
1312 11947 1 0.16500 119244.000000
1313 11948 1 0.16500 119244.000000
1313 12306 1 0.16500 119244.000000
1314 11948 1 0.16500 119244.000000
1314 16934 1 0.16500 119244.000000
1315 11948 1 0.16500 119244.000000
1315 13732 1 0.16500 119244.000000
1316 11948 1 0.16500 119244.000000
1316 12445 1 0.16500 119244.000000
1317 11949 1 0.16500 119244.000000
1317 13155 1 0.16500 119244.000000
1318 11949 1 0.16500 119244.000000
1318 15024 1 0.16500 119244.000000
1319 11949 1 0.16500 119244.000000
1319 16847 1 0.16500 119244.000000
1320 11949 1 0.16500 119244.000000
1320 14852 1 0.16500 119244.000000
1321 11950 1 0.16500 119244.000000
1321 14972 1 0.16500 119244.000000
1322 11950 1 0.16500 119244.000000
1322 14990 1 0.16500 119244.000000
1323 11950 1 0.16500 119244.000000
1323 16659 1 0.16500 119244.000000
1324 11950 1 0.16500 119244.000000
1324 12274 1 0.16500 119244.000000
1325 11951 1 0.16500 119244.000000
1325 12295 1 0.16500 119244.000000
1326 11951 1 0.16500 119244.000000
1326 15203 1 0.16500 119244.000000
1327 11951 1 0.16500 119244.000000
1327 17866 1 0.16500 119244.000000
1328 11951 1 0.16500 119244.000000
1328 14747 1 0.16500 119244.000000
1329 11952 1 0.16500 119244.000000
1329 13242 1 0.16500 119244.000000
1330 13242 1 0.16500 119244.000000
1330 15394 1 0.16500 119244.000000
1331 11952 1 0.16500 119244.000000
1331 12749 1 0.16500 119244.000000
1332 11953 1 0.16500 119244.000000
1332 15974 1 0.16500 119244.000000
1333 11953 1 0.16500 119244.000000
1333 15677 1 0.16500 119244.000000
1334 11953 1 0.16500 119244.000000
1334 14799 1 0.16500 119244.000000
1335 11953 1 0.16500 119244.000000
1335 14131 1 0.16500 119244.000000
1336 11954 1 0.16500 119244.000000
1336 14442 1 0.16500 119244.000000
1337 11954 1 0.16500 119244.000000
1337 16049 1 0.16500 119244.000000
1338 11954 1 0.16500 119244.000000
1338 12846 1 0.16500 119244.000000
1339 11954 1 0.16500 119244.000000
1339 14682 1 0.16500 119244.000000
1340 11955 1 0.16500 119244.000000
1340 16361 1 0.16500 119244.000000
1341 11955 1 0.16500 119244.000000
1341 14023 1 0.16500 119244.000000
1342 11955 1 0.16500 119244.000000
1342 16659 1 0.16500 119244.000000
1343 11956 1 0.16500 119244.000000
1343 12139 1 0.16500 119244.000000
1344 11956 1 0.16500 119244.000000
1344 12049 1 0.16500 119244.000000
1345 11957 1 0.16500 119244.000000
1345 12714 1 0.16500 119244.000000
1346 11957 1 0.16500 119244.000000
1346 12167 1 0.16500 119244.000000
1347 11957 1 0.16500 119244.000000
1347 14734 1 0.16500 119244.000000
1348 11957 1 0.16500 119244.000000
1348 16897 1 0.16500 119244.000000
1349 13911 1 0.16500 119244.000000
1349 16224 1 0.16500 119244.000000
1350 13911 1 0.16500 119244.000000
1350 15906 1 0.16500 119244.000000
1351 11958 1 0.16500 119244.000000
1351 13911 1 0.16500 119244.000000
1352 15788 1 0.16500 119244.000000
1352 15906 1 0.16500 119244.000000
1353 11959 1 0.16500 119244.000000
1353 14528 1 0.16500 119244.000000
1354 15628 1 0.16500 119244.000000
1354 15727 1 0.16500 119244.000000
1355 11959 1 0.16500 119244.000000
1355 16872 1 0.16500 119244.000000
1356 11959 1 0.16500 119244.000000
1356 15628 1 0.16500 119244.000000
1357 12489 1 0.16500 119244.000000
1357 16437 1 0.16500 119244.000000
1358 11960 1 0.16500 119244.000000
1358 15905 1 0.16500 119244.000000
1359 12489 1 0.16500 119244.000000
1359 14898 1 0.16500 119244.000000
1360 11960 1 0.16500 119244.000000
1360 12489 1 0.16500 119244.000000
1361 11961 1 0.16500 119244.000000
1361 16921 1 0.16500 119244.000000
1362 11961 1 0.16500 119244.000000
1362 16423 1 0.16500 119244.000000
1363 11961 1 0.16500 119244.000000
1363 14185 1 0.16500 119244.000000
1364 11961 1 0.16500 119244.000000
1364 12117 1 0.16500 119244.000000
1365 11962 1 0.16500 119244.000000
1365 14440 1 0.16500 119244.000000
1366 11962 1 0.16500 119244.000000
1366 12455 1 0.16500 119244.000000
1367 11962 1 0.16500 119244.000000
1367 15483 1 0.16500 119244.000000
1368 11962 1 0.16500 119244.000000
1368 14060 1 0.16500 119244.000000
1369 11963 1 0.16500 119244.000000
1369 13454 1 0.16500 119244.000000
1370 11963 1 0.16500 119244.000000
1370 15230 1 0.16500 119244.000000
1371 11963 1 0.16500 119244.000000
1371 14501 1 0.16500 119244.000000
1372 11963 1 0.16500 119244.000000
1372 12144 1 0.16500 119244.000000
1373 11964 1 0.16500 119244.000000
1373 12420 1 0.16500 119244.000000
1374 11964 1 0.16500 119244.000000
1374 14028 1 0.16500 119244.000000
1375 11964 1 0.16500 119244.000000
1375 15820 1 0.16500 119244.000000
1376 11965 1 0.16500 119244.000000
1376 13169 1 0.16500 119244.000000
1377 11965 1 0.16500 119244.000000
1377 16155 1 0.16500 119244.000000
1378 11965 1 0.16500 119244.000000
1378 14795 1 0.16500 119244.000000
1379 11965 1 0.16500 119244.000000
1379 12753 1 0.16500 119244.000000
1380 11966 1 0.16500 119244.000000
1380 15079 1 0.16500 119244.000000
1381 11966 1 0.16500 119244.000000
1381 12217 1 0.16500 119244.000000
1382 11966 1 0.16500 119244.000000
1382 16045 1 0.16500 119244.000000
1383 11967 1 0.16500 119244.000000
1383 15479 1 0.16500 119244.000000
1384 11967 1 0.16500 119244.000000
1384 16810 1 0.16500 119244.000000
1385 11967 1 0.16500 119244.000000
1385 16120 1 0.16500 119244.000000
1386 11967 1 0.16500 119244.000000
1386 15228 1 0.16500 119244.000000
1387 11968 1 0.16500 119244.000000
1387 13225 1 0.16500 119244.000000
1388 11968 1 0.16500 119244.000000
1388 15132 1 0.16500 119244.000000
1389 11968 1 0.16500 119244.000000
1389 16305 1 0.16500 119244.000000
1390 11969 1 0.16500 119244.000000
1390 15612 1 0.16500 119244.000000
1391 11969 1 0.16500 119244.000000
1391 13731 1 0.16500 119244.000000
1392 11969 1 0.16500 119244.000000
1392 13622 1 0.16500 119244.000000
1393 11969 1 0.16500 119244.000000
1393 12921 1 0.16500 119244.000000
1394 11970 1 0.16500 119244.000000
1394 15726 1 0.16500 119244.000000
1395 11970 1 0.16500 119244.000000
1395 14000 1 0.16500 119244.000000
1396 11970 1 0.16500 119244.000000
1396 12628 1 0.16500 119244.000000
1397 11970 1 0.16500 119244.000000
1397 15308 1 0.16500 119244.000000
1398 11971 1 0.16500 119244.000000
1398 14560 1 0.16500 119244.000000
1399 11971 1 0.16500 119244.000000
1399 13291 1 0.16500 119244.000000
1400 11971 1 0.16500 119244.000000
1400 14916 1 0.16500 119244.000000
1401 11971 1 0.16500 119244.000000
1401 14049 1 0.16500 119244.000000
1402 11972 1 0.16500 119244.000000
1402 15498 1 0.16500 119244.000000
1403 14459 1 0.16500 119244.000000
1403 16616 1 0.16500 119244.000000
1404 11972 1 0.16500 119244.000000
1404 14030 1 0.16500 119244.000000
1405 11972 1 0.16500 119244.000000
1405 14459 1 0.16500 119244.000000
1406 11973 1 0.16500 119244.000000
1406 12528 1 0.16500 119244.000000
1407 11973 1 0.16500 119244.000000
1407 16802 1 0.16500 119244.000000
1408 11973 1 0.16500 119244.000000
1408 15928 1 0.16500 119244.000000
1409 12507 1 0.16500 119244.000000
1409 15580 1 0.16500 119244.000000
1410 11974 1 0.16500 119244.000000
1410 15580 1 0.16500 119244.000000
1411 11974 1 0.16500 119244.000000
1411 16243 1 0.16500 119244.000000
1412 11974 1 0.16500 119244.000000
1412 15723 1 0.16500 119244.000000
1413 11975 1 0.16500 119244.000000
1413 15097 1 0.16500 119244.000000
1414 11975 1 0.16500 119244.000000
1414 18039 1 0.16500 119244.000000
1415 11976 1 0.16500 119244.000000
1415 16927 1 0.16500 119244.000000
1416 11976 1 0.16500 119244.000000
1416 12112 1 0.16500 119244.000000
1417 11976 1 0.16500 119244.000000
1417 15192 1 0.16500 119244.000000
1418 11977 1 0.16500 119244.000000
1418 15859 1 0.16500 119244.000000
1419 11977 1 0.16500 119244.000000
1419 16483 1 0.16500 119244.000000
1420 11977 1 0.16500 119244.000000
1420 13547 1 0.16500 119244.000000
1421 11977 1 0.16500 119244.000000
1421 13568 1 0.16500 119244.000000
1422 11978 1 0.16500 119244.000000
1422 14033 1 0.16500 119244.000000
1423 11978 1 0.16500 119244.000000
1423 12703 1 0.16500 119244.000000
1424 11978 1 0.16500 119244.000000
1424 12988 1 0.16500 119244.000000
1425 11978 1 0.16500 119244.000000
1425 16052 1 0.16500 119244.000000
1426 11979 1 0.16500 119244.000000
1426 13253 1 0.16500 119244.000000
1427 11979 1 0.16500 119244.000000
1427 13244 1 0.16500 119244.000000
1428 11979 1 0.16500 119244.000000
1428 17152 1 0.16500 119244.000000
1429 11979 1 0.16500 119244.000000
1429 15001 1 0.16500 119244.000000
1430 11980 1 0.16500 119244.000000
1430 15648 1 0.16500 119244.000000
1431 11980 1 0.16500 119244.000000
1431 14522 1 0.16500 119244.000000
1432 11980 1 0.16500 119244.000000
1432 15661 1 0.16500 119244.000000
1433 11981 1 0.16500 119244.000000
1433 13613 1 0.16500 119244.000000
1434 11981 1 0.16500 119244.000000
1434 12313 1 0.16500 119244.000000
1435 11981 1 0.16500 119244.000000
1435 15786 1 0.16500 119244.000000
1436 11982 1 0.16500 119244.000000
1436 16408 1 0.16500 119244.000000
1437 11982 1 0.16500 119244.000000
1437 14096 1 0.16500 119244.000000
1438 11982 1 0.16500 119244.000000
1438 16195 1 0.16500 119244.000000
1439 11982 1 0.16500 119244.000000
1439 12554 1 0.16500 119244.000000
1440 11983 1 0.16500 119244.000000
1440 14299 1 0.16500 119244.000000
1441 11983 1 0.16500 119244.000000
1441 15484 1 0.16500 119244.000000
1442 11983 1 0.16500 119244.000000
1442 16885 1 0.16500 119244.000000
1443 11984 1 0.16500 119244.000000
1443 16430 1 0.16500 119244.000000
1444 11984 1 0.16500 119244.000000
1444 16563 1 0.16500 119244.000000
1445 11985 1 0.16500 119244.000000
1445 14800 1 0.16500 119244.000000
1446 11985 1 0.16500 119244.000000
1446 16922 1 0.16500 119244.000000
1447 11985 1 0.16500 119244.000000
1447 17193 1 0.16500 119244.000000
1448 11985 1 0.16500 119244.000000
1448 13264 1 0.16500 119244.000000
1449 11986 1 0.16500 119244.000000
1449 17026 1 0.16500 119244.000000
1450 11986 1 0.16500 119244.000000
1450 18054 1 0.16500 119244.000000
1451 11987 1 0.16500 119244.000000
1451 13004 1 0.16500 119244.000000
1452 11987 1 0.16500 119244.000000
1452 16419 1 0.16500 119244.000000
1453 11987 1 0.16500 119244.000000
1453 15012 1 0.16500 119244.000000
1454 11988 1 0.16500 119244.000000
1454 14892 1 0.16500 119244.000000
1455 11988 1 0.16500 119244.000000
1455 13850 1 0.16500 119244.000000
1456 11988 1 0.16500 119244.000000
1456 16049 1 0.16500 119244.000000
1457 11989 1 0.16500 119244.000000
1457 14177 1 0.16500 119244.000000
1458 11989 1 0.16500 119244.000000
1458 16993 1 0.16500 119244.000000
1459 11989 1 0.16500 119244.000000
1459 16897 1 0.16500 119244.000000
1460 12809 1 0.16500 119244.000000
1460 15724 1 0.16500 119244.000000
1461 11990 1 0.16500 119244.000000
1461 15445 1 0.16500 119244.000000
1462 11990 1 0.16500 119244.000000
1462 16415 1 0.16500 119244.000000
1463 14297 1 0.16500 119244.000000
1463 15594 1 0.16500 119244.000000
1464 11991 1 0.16500 119244.000000
1464 15101 1 0.16500 119244.000000
1465 11991 1 0.16500 119244.000000
1465 14711 1 0.16500 119244.000000
1466 11991 1 0.16500 119244.000000
1466 14750 1 0.16500 119244.000000
1467 11991 1 0.16500 119244.000000
1467 15598 1 0.16500 119244.000000
1468 12397 1 0.16500 119244.000000
1468 16661 1 0.16500 119244.000000
1469 12759 1 0.16500 119244.000000
1469 14594 1 0.16500 119244.000000
1470 11992 1 0.16500 119244.000000
1470 12397 1 0.16500 119244.000000
1471 11992 1 0.16500 119244.000000
1471 12759 1 0.16500 119244.000000
1472 11993 1 0.16500 119244.000000
1472 12554 1 0.16500 119244.000000
1473 11993 1 0.16500 119244.000000
1473 13732 1 0.16500 119244.000000
1474 11993 1 0.16500 119244.000000
1474 12943 1 0.16500 119244.000000
1475 11993 1 0.16500 119244.000000
1475 13498 1 0.16500 119244.000000
1476 13978 1 0.16500 119244.000000
1476 18004 1 0.16500 119244.000000
1477 14858 1 0.16500 119244.000000
1477 18004 1 0.16500 119244.000000
1478 11994 1 0.16500 119244.000000
1478 15501 1 0.16500 119244.000000
1479 11994 1 0.16500 119244.000000
1479 16453 1 0.16500 119244.000000
1480 11994 1 0.16500 119244.000000
1480 15760 1 0.16500 119244.000000
1481 11994 1 0.16500 119244.000000
1481 17767 1 0.16500 119244.000000
1482 11995 1 0.16500 119244.000000
1482 14644 1 0.16500 119244.000000
1483 11995 1 0.16500 119244.000000
1483 16000 1 0.16500 119244.000000
1484 11995 1 0.16500 119244.000000
1484 12446 1 0.16500 119244.000000
1485 11995 1 0.16500 119244.000000
1485 16439 1 0.16500 119244.000000
1486 11996 1 0.16500 119244.000000
1486 14593 1 0.16500 119244.000000
1487 11996 1 0.16500 119244.000000
1487 15978 1 0.16500 119244.000000
1488 11996 1 0.16500 119244.000000
1488 16568 1 0.16500 119244.000000
1489 11996 1 0.16500 119244.000000
1489 15488 1 0.16500 119244.000000
1490 11997 1 0.16500 119244.000000
1490 13907 1 0.16500 119244.000000
1491 11997 1 0.16500 119244.000000
1491 14222 1 0.16500 119244.000000
1492 11997 1 0.16500 119244.000000
1492 12494 1 0.16500 119244.000000
1493 11997 1 0.16500 119244.000000
1493 15349 1 0.16500 119244.000000
1494 11998 1 0.16500 119244.000000
1494 12364 1 0.16500 119244.000000
1495 11998 1 0.16500 119244.000000
1495 13796 1 0.16500 119244.000000
1496 11998 1 0.16500 119244.000000
1496 13300 1 0.16500 119244.000000
1497 11998 1 0.16500 119244.000000
1497 13128 1 0.16500 119244.000000
1498 11999 1 0.16500 119244.000000
1498 16329 1 0.16500 119244.000000
1499 12601 1 0.16500 119244.000000
1499 14059 1 0.16500 119244.000000
1500 11999 1 0.16500 119244.000000
1500 12601 1 0.16500 119244.000000
1501 11999 1 0.16500 119244.000000
1501 12205 1 0.16500 119244.000000
1502 12000 1 0.16500 119244.000000
1502 12524 1 0.16500 119244.000000
1503 12000 1 0.16500 119244.000000
1503 13229 1 0.16500 119244.000000
1504 12000 1 0.16500 119244.000000
1504 15427 1 0.16500 119244.000000
1505 12000 1 0.16500 119244.000000
1505 14810 1 0.16500 119244.000000
1506 12001 1 0.16500 119244.000000
1506 14545 1 0.16500 119244.000000
1507 12001 1 0.16500 119244.000000
1507 14107 1 0.16500 119244.000000
1508 12001 1 0.16500 119244.000000
1508 15435 1 0.16500 119244.000000
1509 12001 1 0.16500 119244.000000
1509 16683 1 0.16500 119244.000000
1510 12002 1 0.16500 119244.000000
1510 14150 1 0.16500 119244.000000
1511 12002 1 0.16500 119244.000000
1511 14941 1 0.16500 119244.000000
1512 12002 1 0.16500 119244.000000
1512 15970 1 0.16500 119244.000000
1513 12002 1 0.16500 119244.000000
1513 15912 1 0.16500 119244.000000
1514 12003 1 0.16500 119244.000000
1514 13257 1 0.16500 119244.000000
1515 12003 1 0.16500 119244.000000
1515 15649 1 0.16500 119244.000000
1516 12003 1 0.16500 119244.000000
1516 15288 1 0.16500 119244.000000
1517 12003 1 0.16500 119244.000000
1517 15266 1 0.16500 119244.000000
1518 12004 1 0.16500 119244.000000
1518 14715 1 0.16500 119244.000000
1519 12004 1 0.16500 119244.000000
1519 14777 1 0.16500 119244.000000
1520 12004 1 0.16500 119244.000000
1520 12342 1 0.16500 119244.000000
1521 12004 1 0.16500 119244.000000
1521 16663 1 0.16500 119244.000000
1522 12005 1 0.16500 119244.000000
1522 14842 1 0.16500 119244.000000
1523 12005 1 0.16500 119244.000000
1523 15054 1 0.16500 119244.000000
1524 12005 1 0.16500 119244.000000
1524 14257 1 0.16500 119244.000000
1525 12005 1 0.16500 119244.000000
1525 15894 1 0.16500 119244.000000
1526 12006 1 0.16500 119244.000000
1526 17443 1 0.16500 119244.000000
1527 12006 1 0.16500 119244.000000
1527 15052 1 0.16500 119244.000000
1528 12006 1 0.16500 119244.000000
1528 16526 1 0.16500 119244.000000
1529 12006 1 0.16500 119244.000000
1529 14217 1 0.16500 119244.000000
1530 12007 1 0.16500 119244.000000
1530 16033 1 0.16500 119244.000000
1531 12007 1 0.16500 119244.000000
1531 16814 1 0.16500 119244.000000
1532 12007 1 0.16500 119244.000000
1532 14923 1 0.16500 119244.000000
1533 12007 1 0.16500 119244.000000
1533 14324 1 0.16500 119244.000000
1534 12008 1 0.16500 119244.000000
1534 15135 1 0.16500 119244.000000
1535 12008 1 0.16500 119244.000000
1535 15383 1 0.16500 119244.000000
1536 12008 1 0.16500 119244.000000
1536 15433 1 0.16500 119244.000000
1537 12008 1 0.16500 119244.000000
1537 15954 1 0.16500 119244.000000
1538 12009 1 0.16500 119244.000000
1538 16962 1 0.16500 119244.000000
1539 12009 1 0.16500 119244.000000
1539 13291 1 0.16500 119244.000000
1540 12009 1 0.16500 119244.000000
1540 15018 1 0.16500 119244.000000
1541 12010 1 0.16500 119244.000000
1541 13888 1 0.16500 119244.000000
1542 12010 1 0.16500 119244.000000
1542 15082 1 0.16500 119244.000000
1543 12011 1 0.16500 119244.000000
1543 17018 1 0.16500 119244.000000
1544 12011 1 0.16500 119244.000000
1544 12811 1 0.16500 119244.000000
1545 12011 1 0.16500 119244.000000
1545 14496 1 0.16500 119244.000000
1546 12011 1 0.16500 119244.000000
1546 14101 1 0.16500 119244.000000
1547 12012 1 0.16500 119244.000000
1547 12708 1 0.16500 119244.000000
1548 12012 1 0.16500 119244.000000
1548 12226 1 0.16500 119244.000000
1549 12012 1 0.16500 119244.000000
1549 15602 1 0.16500 119244.000000
1550 12012 1 0.16500 119244.000000
1550 14076 1 0.16500 119244.000000
1551 12013 1 0.16500 119244.000000
1551 15522 1 0.16500 119244.000000
1552 12013 1 0.16500 119244.000000
1552 14139 1 0.16500 119244.000000
1553 12013 1 0.16500 119244.000000
1553 15891 1 0.16500 119244.000000
1554 12013 1 0.16500 119244.000000
1554 15188 1 0.16500 119244.000000
1555 12014 1 0.16500 119244.000000
1555 12607 1 0.16500 119244.000000
1556 12014 1 0.16500 119244.000000
1556 14409 1 0.16500 119244.000000
1557 12014 1 0.16500 119244.000000
1557 15037 1 0.16500 119244.000000
1558 12014 1 0.16500 119244.000000
1558 15264 1 0.16500 119244.000000
1559 12015 1 0.16500 119244.000000
1559 15684 1 0.16500 119244.000000
1560 12015 1 0.16500 119244.000000
1560 15575 1 0.16500 119244.000000
1561 12015 1 0.16500 119244.000000
1561 16048 1 0.16500 119244.000000
1562 12015 1 0.16500 119244.000000
1562 16899 1 0.16500 119244.000000
1563 12016 1 0.16500 119244.000000
1563 17680 1 0.16500 119244.000000
1564 12016 1 0.16500 119244.000000
1564 14437 1 0.16500 119244.000000
1565 12016 1 0.16500 119244.000000
1565 12567 1 0.16500 119244.000000
1566 12016 1 0.16500 119244.000000
1566 12178 1 0.16500 119244.000000
1567 12017 1 0.16500 119244.000000
1567 12085 1 0.16500 119244.000000
1568 12711 1 0.16500 119244.000000
1568 16705 1 0.16500 119244.000000
1569 12017 1 0.16500 119244.000000
1569 12711 1 0.16500 119244.000000
1570 12017 1 0.16500 119244.000000
1570 14112 1 0.16500 119244.000000
1571 12018 1 0.16500 119244.000000
1571 12553 1 0.16500 119244.000000
1572 12018 1 0.16500 119244.000000
1572 16509 1 0.16500 119244.000000
1573 12018 1 0.16500 119244.000000
1573 16270 1 0.16500 119244.000000
1574 12018 1 0.16500 119244.000000
1574 12529 1 0.16500 119244.000000
1575 12019 1 0.16500 119244.000000
1575 16438 1 0.16500 119244.000000
1576 12261 1 0.16500 119244.000000
1576 16438 1 0.16500 119244.000000
1577 12019 1 0.16500 119244.000000
1577 16771 1 0.16500 119244.000000
1578 12019 1 0.16500 119244.000000
1578 15157 1 0.16500 119244.000000
1579 12020 1 0.16500 119244.000000
1579 13938 1 0.16500 119244.000000
1580 12020 1 0.16500 119244.000000
1580 15293 1 0.16500 119244.000000
1581 12020 1 0.16500 119244.000000
1581 13359 1 0.16500 119244.000000
1582 12020 1 0.16500 119244.000000
1582 14983 1 0.16500 119244.000000
1583 12021 1 0.16500 119244.000000
1583 12417 1 0.16500 119244.000000
1584 12021 1 0.16500 119244.000000
1584 13406 1 0.16500 119244.000000
1585 12021 1 0.16500 119244.000000
1585 14011 1 0.16500 119244.000000
1586 12022 1 0.16500 119244.000000
1586 12762 1 0.16500 119244.000000
1587 12022 1 0.16500 119244.000000
1587 17084 1 0.16500 119244.000000
1588 12672 1 0.16500 119244.000000
1588 17084 1 0.16500 119244.000000
1589 12023 1 0.16500 119244.000000
1589 16184 1 0.16500 119244.000000
1590 12023 1 0.16500 119244.000000
1590 14126 1 0.16500 119244.000000
1591 12023 1 0.16500 119244.000000
1591 16020 1 0.16500 119244.000000
1592 12023 1 0.16500 119244.000000
1592 16132 1 0.16500 119244.000000
1593 12024 1 0.16500 119244.000000
1593 16366 1 0.16500 119244.000000
1594 12024 1 0.16500 119244.000000
1594 13594 1 0.16500 119244.000000
1595 12024 1 0.16500 119244.000000
1595 15438 1 0.16500 119244.000000
1596 12025 1 0.16500 119244.000000
1596 16989 1 0.16500 119244.000000
1597 11744 1 0.16500 119244.000000
1597 12025 1 0.16500 119244.000000
1598 12025 1 0.16500 119244.000000
1598 15947 1 0.16500 119244.000000
1599 12026 1 0.16500 119244.000000
1599 14527 1 0.16500 119244.000000
1600 12026 1 0.16500 119244.000000
1600 14258 1 0.16500 119244.000000
1601 12026 1 0.16500 119244.000000
1601 12075 1 0.16500 119244.000000
1602 12027 1 0.16500 119244.000000
1602 12485 1 0.16500 119244.000000
1603 12027 1 0.16500 119244.000000
1603 13652 1 0.16500 119244.000000
1604 12027 1 0.16500 119244.000000
1604 14175 1 0.16500 119244.000000
1605 12028 1 0.16500 119244.000000
1605 13572 1 0.16500 119244.000000
1606 12028 1 0.16500 119244.000000
1606 14639 1 0.16500 119244.000000
1607 12028 1 0.16500 119244.000000
1607 14938 1 0.16500 119244.000000
1608 12028 1 0.16500 119244.000000
1608 12677 1 0.16500 119244.000000
1609 12029 1 0.16500 119244.000000
1609 14111 1 0.16500 119244.000000
1610 12029 1 0.16500 119244.000000
1610 14665 1 0.16500 119244.000000
1611 12029 1 0.16500 119244.000000
1611 13247 1 0.16500 119244.000000
1612 14111 1 0.16500 119244.000000
1612 16231 1 0.16500 119244.000000
1613 12030 1 0.16500 119244.000000
1613 13172 1 0.16500 119244.000000
1614 12030 1 0.16500 119244.000000
1614 16648 1 0.16500 119244.000000
1615 12030 1 0.16500 119244.000000
1615 16740 1 0.16500 119244.000000
1616 12031 1 0.16500 119244.000000
1616 12960 1 0.16500 119244.000000
1617 12031 1 0.16500 119244.000000
1617 13185 1 0.16500 119244.000000
1618 12031 1 0.16500 119244.000000
1618 14276 1 0.16500 119244.000000
1619 12046 1 0.16500 119244.000000
1619 14109 1 0.16500 119244.000000
1620 12032 1 0.16500 119244.000000
1620 14109 1 0.16500 119244.000000
1621 12032 1 0.16500 119244.000000
1621 14797 1 0.16500 119244.000000
1622 12032 1 0.16500 119244.000000
1622 15204 1 0.16500 119244.000000
1623 12033 1 0.16500 119244.000000
1623 17938 1 0.16500 119244.000000
1624 12033 1 0.16500 119244.000000
1624 13387 1 0.16500 119244.000000
1625 12033 1 0.16500 119244.000000
1625 12175 1 0.16500 119244.000000
1626 12034 1 0.16500 119244.000000
1626 14366 1 0.16500 119244.000000
1627 12034 1 0.16500 119244.000000
1627 12662 1 0.16500 119244.000000
1628 12034 1 0.16500 119244.000000
1628 14101 1 0.16500 119244.000000
1629 12034 1 0.16500 119244.000000
1629 15141 1 0.16500 119244.000000
1630 12035 1 0.16500 119244.000000
1630 16355 1 0.16500 119244.000000
1631 12035 1 0.16500 119244.000000
1631 16857 1 0.16500 119244.000000
1632 12035 1 0.16500 119244.000000
1632 16445 1 0.16500 119244.000000
1633 13693 1 0.16500 119244.000000
1633 16857 1 0.16500 119244.000000
1634 15627 1 0.16500 119244.000000
1634 17272 1 0.16500 119244.000000
1635 17272 1 0.16500 119244.000000
1635 17833 1 0.16500 119244.000000
1636 14011 1 0.16500 119244.000000
1636 17272 1 0.16500 119244.000000
1637 12036 1 0.16500 119244.000000
1637 16569 1 0.16500 119244.000000
1638 12036 1 0.16500 119244.000000
1638 15427 1 0.16500 119244.000000
1639 12036 1 0.16500 119244.000000
1639 14557 1 0.16500 119244.000000
1640 12036 1 0.16500 119244.000000
1640 15731 1 0.16500 119244.000000
1641 12037 1 0.16500 119244.000000
1641 13936 1 0.16500 119244.000000
1642 12037 1 0.16500 119244.000000
1642 13050 1 0.16500 119244.000000
1643 12037 1 0.16500 119244.000000
1643 13119 1 0.16500 119244.000000
1644 12038 1 0.16500 119244.000000
1644 17947 1 0.16500 119244.000000
1645 12038 1 0.16500 119244.000000
1645 16163 1 0.16500 119244.000000
1646 12038 1 0.16500 119244.000000
1646 15106 1 0.16500 119244.000000
1647 11891 1 0.16500 119244.000000
1647 14827 1 0.16500 119244.000000
1648 12588 1 0.16500 119244.000000
1648 13705 1 0.16500 119244.000000
1649 11891 1 0.16500 119244.000000
1649 12588 1 0.16500 119244.000000
1650 12040 1 0.16500 119244.000000
1650 13590 1 0.16500 119244.000000
1651 12040 1 0.16500 119244.000000
1651 16963 1 0.16500 119244.000000
1652 12041 1 0.16500 119244.000000
1652 17275 1 0.16500 119244.000000
1653 12041 1 0.16500 119244.000000
1653 13087 1 0.16500 119244.000000
1654 12041 1 0.16500 119244.000000
1654 12202 1 0.16500 119244.000000
1655 13575 1 0.16500 119244.000000
1655 17275 1 0.16500 119244.000000
1656 12042 1 0.16500 119244.000000
1656 17001 1 0.16500 119244.000000
1657 12042 1 0.16500 119244.000000
1657 13804 1 0.16500 119244.000000
1658 12042 1 0.16500 119244.000000
1658 15007 1 0.16500 119244.000000
1659 12042 1 0.16500 119244.000000
1659 12673 1 0.16500 119244.000000
1660 12043 1 0.16500 119244.000000
1660 13066 1 0.16500 119244.000000
1661 12043 1 0.16500 119244.000000
1661 17185 1 0.16500 119244.000000
1662 12043 1 0.16500 119244.000000
1662 16081 1 0.16500 119244.000000
1663 12043 1 0.16500 119244.000000
1663 14144 1 0.16500 119244.000000
1664 12044 1 0.16500 119244.000000
1664 13593 1 0.16500 119244.000000
1665 12044 1 0.16500 119244.000000
1665 12967 1 0.16500 119244.000000
1666 12044 1 0.16500 119244.000000
1666 13145 1 0.16500 119244.000000
1667 12044 1 0.16500 119244.000000
1667 16165 1 0.16500 119244.000000
1668 12045 1 0.16500 119244.000000
1668 15764 1 0.16500 119244.000000
1669 12045 1 0.16500 119244.000000
1669 16127 1 0.16500 119244.000000
1670 12045 1 0.16500 119244.000000
1670 17159 1 0.16500 119244.000000
1671 12045 1 0.16500 119244.000000
1671 12506 1 0.16500 119244.000000
1672 12046 1 0.16500 119244.000000
1672 14027 1 0.16500 119244.000000
1673 12046 1 0.16500 119244.000000
1673 14208 1 0.16500 119244.000000
1674 12047 1 0.16500 119244.000000
1674 16336 1 0.16500 119244.000000
1675 12047 1 0.16500 119244.000000
1675 14471 1 0.16500 119244.000000
1676 12047 1 0.16500 119244.000000
1676 15429 1 0.16500 119244.000000
1677 12047 1 0.16500 119244.000000
1677 13226 1 0.16500 119244.000000
1678 12048 1 0.16500 119244.000000
1678 16148 1 0.16500 119244.000000
1679 12048 1 0.16500 119244.000000
1679 12965 1 0.16500 119244.000000
1680 12048 1 0.16500 119244.000000
1680 14931 1 0.16500 119244.000000
1681 12049 1 0.16500 119244.000000
1681 15189 1 0.16500 119244.000000
1682 12049 1 0.16500 119244.000000
1682 14900 1 0.16500 119244.000000
1683 12049 1 0.16500 119244.000000
1683 17545 1 0.16500 119244.000000
1684 17551 1 0.16500 119244.000000
1684 17917 1 0.16500 119244.000000
1685 12050 1 0.16500 119244.000000
1685 13397 1 0.16500 119244.000000
1686 14394 1 0.16500 119244.000000
1686 14596 1 0.16500 119244.000000
1687 12051 1 0.16500 119244.000000
1687 14394 1 0.16500 119244.000000
1688 12051 1 0.16500 119244.000000
1688 13779 1 0.16500 119244.000000
1689 12726 1 0.16500 119244.000000
1689 17278 1 0.16500 119244.000000
1690 15342 1 0.16500 119244.000000
1690 17278 1 0.16500 119244.000000
1691 15520 1 0.16500 119244.000000
1691 17278 1 0.16500 119244.000000
1692 12052 1 0.16500 119244.000000
1692 14275 1 0.16500 119244.000000
1693 12052 1 0.16500 119244.000000
1693 13697 1 0.16500 119244.000000
1694 12052 1 0.16500 119244.000000
1694 16203 1 0.16500 119244.000000
1695 12052 1 0.16500 119244.000000
1695 14702 1 0.16500 119244.000000
1696 12747 1 0.16500 119244.000000
1696 16860 1 0.16500 119244.000000
1697 12053 1 0.16500 119244.000000
1697 12747 1 0.16500 119244.000000
1698 12053 1 0.16500 119244.000000
1698 12193 1 0.16500 119244.000000
1699 12053 1 0.16500 119244.000000
1699 17374 1 0.16500 119244.000000
1700 12054 1 0.16500 119244.000000
1700 16587 1 0.16500 119244.000000
1701 12054 1 0.16500 119244.000000
1701 14464 1 0.16500 119244.000000
1702 12054 1 0.16500 119244.000000
1702 14015 1 0.16500 119244.000000
1703 12054 1 0.16500 119244.000000
1703 13292 1 0.16500 119244.000000
1704 12055 1 0.16500 119244.000000
1704 15585 1 0.16500 119244.000000
1705 12055 1 0.16500 119244.000000
1705 13364 1 0.16500 119244.000000
1706 12055 1 0.16500 119244.000000
1706 16981 1 0.16500 119244.000000
1707 12055 1 0.16500 119244.000000
1707 15082 1 0.16500 119244.000000
1708 12056 1 0.16500 119244.000000
1708 12735 1 0.16500 119244.000000
1709 12056 1 0.16500 119244.000000
1709 15598 1 0.16500 119244.000000
1710 12056 1 0.16500 119244.000000
1710 15524 1 0.16500 119244.000000
1711 12057 1 0.16500 119244.000000
1711 15841 1 0.16500 119244.000000
1712 15603 1 0.16500 119244.000000
1712 15841 1 0.16500 119244.000000
1713 12057 1 0.16500 119244.000000
1713 16258 1 0.16500 119244.000000
1714 12057 1 0.16500 119244.000000
1714 15119 1 0.16500 119244.000000
1715 12058 1 0.16500 119244.000000
1715 15846 1 0.16500 119244.000000
1716 12058 1 0.16500 119244.000000
1716 13579 1 0.16500 119244.000000
1717 12058 1 0.16500 119244.000000
1717 13748 1 0.16500 119244.000000
1718 13466 1 0.16500 119244.000000
1718 18009 1 0.16500 119244.000000
1719 12059 1 0.16500 119244.000000
1719 15135 1 0.16500 119244.000000
1720 13201 1 0.16500 119244.000000
1720 16762 1 0.16500 119244.000000
1721 13201 1 0.16500 119244.000000
1721 16672 1 0.16500 119244.000000
1722 12059 1 0.16500 119244.000000
1722 13201 1 0.16500 119244.000000
1723 12060 1 0.16500 119244.000000
1723 13767 1 0.16500 119244.000000
1724 12060 1 0.16500 119244.000000
1724 16100 1 0.16500 119244.000000
1725 12060 1 0.16500 119244.000000
1725 16109 1 0.16500 119244.000000
1726 12060 1 0.16500 119244.000000
1726 16973 1 0.16500 119244.000000
1727 16452 1 0.16500 119244.000000
1727 17281 1 0.16500 119244.000000
1728 12061 1 0.16500 119244.000000
1728 16586 1 0.16500 119244.000000
1729 12061 1 0.16500 119244.000000
1729 14713 1 0.16500 119244.000000
1730 12061 1 0.16500 119244.000000
1730 12439 1 0.16500 119244.000000
1731 12062 1 0.16500 119244.000000
1731 15539 1 0.16500 119244.000000
1732 12062 1 0.16500 119244.000000
1732 16515 1 0.16500 119244.000000
1733 12062 1 0.16500 119244.000000
1733 13661 1 0.16500 119244.000000
1734 12062 1 0.16500 119244.000000
1734 13547 1 0.16500 119244.000000
1735 12063 1 0.16500 119244.000000
1735 15300 1 0.16500 119244.000000
1736 12063 1 0.16500 119244.000000
1736 16054 1 0.16500 119244.000000
1737 12063 1 0.16500 119244.000000
1737 14427 1 0.16500 119244.000000
1738 12064 1 0.16500 119244.000000
1738 16360 1 0.16500 119244.000000
1739 12064 1 0.16500 119244.000000
1739 17162 1 0.16500 119244.000000
1740 14704 1 0.16500 119244.000000
1740 16360 1 0.16500 119244.000000
1741 12700 1 0.16500 119244.000000
1741 17162 1 0.16500 119244.000000
1742 12065 1 0.16500 119244.000000
1742 14342 1 0.16500 119244.000000
1743 12066 1 0.16500 119244.000000
1743 12579 1 0.16500 119244.000000
1744 12066 1 0.16500 119244.000000
1744 12615 1 0.16500 119244.000000
1745 12066 1 0.16500 119244.000000
1745 15144 1 0.16500 119244.000000
1746 12066 1 0.16500 119244.000000
1746 16086 1 0.16500 119244.000000
1747 12067 1 0.16500 119244.000000
1747 13316 1 0.16500 119244.000000
1748 12067 1 0.16500 119244.000000
1748 15932 1 0.16500 119244.000000
1749 11783 1 0.16500 119244.000000
1749 15517 1 0.16500 119244.000000
1750 13018 1 0.16500 119244.000000
1750 16841 1 0.16500 119244.000000
1751 12068 1 0.16500 119244.000000
1751 16795 1 0.16500 119244.000000
1752 12068 1 0.16500 119244.000000
1752 14401 1 0.16500 119244.000000
1753 12068 1 0.16500 119244.000000
1753 14679 1 0.16500 119244.000000
1754 12069 1 0.16500 119244.000000
1754 16286 1 0.16500 119244.000000
1755 12069 1 0.16500 119244.000000
1755 17821 1 0.16500 119244.000000
1756 12069 1 0.16500 119244.000000
1756 15239 1 0.16500 119244.000000
1757 12069 1 0.16500 119244.000000
1757 13506 1 0.16500 119244.000000
1758 16781 1 0.16500 119244.000000
1758 17284 1 0.16500 119244.000000
1759 14679 1 0.16500 119244.000000
1759 17284 1 0.16500 119244.000000
1760 16302 1 0.16500 119244.000000
1760 17284 1 0.16500 119244.000000
1761 12070 1 0.16500 119244.000000
1761 13355 1 0.16500 119244.000000
1762 12070 1 0.16500 119244.000000
1762 16085 1 0.16500 119244.000000
1763 12070 1 0.16500 119244.000000
1763 12373 1 0.16500 119244.000000
1764 12071 1 0.16500 119244.000000
1764 12506 1 0.16500 119244.000000
1765 12071 1 0.16500 119244.000000
1765 14168 1 0.16500 119244.000000
1766 12071 1 0.16500 119244.000000
1766 12611 1 0.16500 119244.000000
1767 12071 1 0.16500 119244.000000
1767 12678 1 0.16500 119244.000000
1768 12072 1 0.16500 119244.000000
1768 14647 1 0.16500 119244.000000
1769 12072 1 0.16500 119244.000000
1769 13159 1 0.16500 119244.000000
1770 12072 1 0.16500 119244.000000
1770 13093 1 0.16500 119244.000000
1771 12072 1 0.16500 119244.000000
1771 14527 1 0.16500 119244.000000
1772 12073 1 0.16500 119244.000000
1772 18089 1 0.16500 119244.000000
1773 12073 1 0.16500 119244.000000
1773 12724 1 0.16500 119244.000000
1774 12073 1 0.16500 119244.000000
1774 14650 1 0.16500 119244.000000
1775 12073 1 0.16500 119244.000000
1775 14817 1 0.16500 119244.000000
1776 12074 1 0.16500 119244.000000
1776 17183 1 0.16500 119244.000000
1777 12074 1 0.16500 119244.000000
1777 13031 1 0.16500 119244.000000
1778 12075 1 0.16500 119244.000000
1778 14993 1 0.16500 119244.000000
1779 12075 1 0.16500 119244.000000
1779 13217 1 0.16500 119244.000000
1780 12075 1 0.16500 119244.000000
1780 16896 1 0.16500 119244.000000
1781 12076 1 0.16500 119244.000000
1781 16479 1 0.16500 119244.000000
1782 12076 1 0.16500 119244.000000
1782 13120 1 0.16500 119244.000000
1783 12076 1 0.16500 119244.000000
1783 14266 1 0.16500 119244.000000
1784 12076 1 0.16500 119244.000000
1784 16585 1 0.16500 119244.000000
1785 12077 1 0.16500 119244.000000
1785 14433 1 0.16500 119244.000000
1786 12077 1 0.16500 119244.000000
1786 15553 1 0.16500 119244.000000
1787 12077 1 0.16500 119244.000000
1787 15375 1 0.16500 119244.000000
1788 12078 1 0.16500 119244.000000
1788 15444 1 0.16500 119244.000000
1789 12078 1 0.16500 119244.000000
1789 14959 1 0.16500 119244.000000
1790 12078 1 0.16500 119244.000000
1790 15195 1 0.16500 119244.000000
1791 12078 1 0.16500 119244.000000
1791 13216 1 0.16500 119244.000000
1792 12079 1 0.16500 119244.000000
1792 13154 1 0.16500 119244.000000
1793 12079 1 0.16500 119244.000000
1793 13263 1 0.16500 119244.000000
1794 12079 1 0.16500 119244.000000
1794 14405 1 0.16500 119244.000000
1795 12080 1 0.16500 119244.000000
1795 13973 1 0.16500 119244.000000
1796 12080 1 0.16500 119244.000000
1796 15381 1 0.16500 119244.000000
1797 12080 1 0.16500 119244.000000
1797 16806 1 0.16500 119244.000000
1798 12080 1 0.16500 119244.000000
1798 14558 1 0.16500 119244.000000
1799 12081 1 0.16500 119244.000000
1799 14473 1 0.16500 119244.000000
1800 12081 1 0.16500 119244.000000
1800 13644 1 0.16500 119244.000000
1801 12081 1 0.16500 119244.000000
1801 12927 1 0.16500 119244.000000
1802 12081 1 0.16500 119244.000000
1802 12621 1 0.16500 119244.000000
1803 12082 1 0.16500 119244.000000
1803 12366 1 0.16500 119244.000000
1804 12082 1 0.16500 119244.000000
1804 14990 1 0.16500 119244.000000
1805 12082 1 0.16500 119244.000000
1805 17189 1 0.16500 119244.000000
1806 12082 1 0.16500 119244.000000
1806 15094 1 0.16500 119244.000000
1807 12083 1 0.16500 119244.000000
1807 15526 1 0.16500 119244.000000
1808 12083 1 0.16500 119244.000000
1808 13635 1 0.16500 119244.000000
1809 12084 1 0.16500 119244.000000
1809 12764 1 0.16500 119244.000000
1810 12084 1 0.16500 119244.000000
1810 12389 1 0.16500 119244.000000
1811 12084 1 0.16500 119244.000000
1811 13845 1 0.16500 119244.000000
1812 12085 1 0.16500 119244.000000
1812 14068 1 0.16500 119244.000000
1813 12085 1 0.16500 119244.000000
1813 12151 1 0.16500 119244.000000
1814 12085 1 0.16500 119244.000000
1814 14573 1 0.16500 119244.000000
1815 12086 1 0.16500 119244.000000
1815 12960 1 0.16500 119244.000000
1816 12086 1 0.16500 119244.000000
1816 13275 1 0.16500 119244.000000
1817 12086 1 0.16500 119244.000000
1817 14675 1 0.16500 119244.000000
1818 12086 1 0.16500 119244.000000
1818 16957 1 0.16500 119244.000000
1819 12087 1 0.16500 119244.000000
1819 12346 1 0.16500 119244.000000
1820 12087 1 0.16500 119244.000000
1820 13383 1 0.16500 119244.000000
1821 12087 1 0.16500 119244.000000
1821 16035 1 0.16500 119244.000000
1822 12088 1 0.16500 119244.000000
1822 13787 1 0.16500 119244.000000
1823 12088 1 0.16500 119244.000000
1823 15238 1 0.16500 119244.000000
1824 12088 1 0.16500 119244.000000
1824 17193 1 0.16500 119244.000000
1825 12089 1 0.16500 119244.000000
1825 15872 1 0.16500 119244.000000
1826 12089 1 0.16500 119244.000000
1826 16474 1 0.16500 119244.000000
1827 12089 1 0.16500 119244.000000
1827 14398 1 0.16500 119244.000000
1828 12089 1 0.16500 119244.000000
1828 16417 1 0.16500 119244.000000
1829 13765 1 0.16500 119244.000000
1829 17287 1 0.16500 119244.000000
1830 14128 1 0.16500 119244.000000
1830 17287 1 0.16500 119244.000000
1831 14362 1 0.16500 119244.000000
1831 17287 1 0.16500 119244.000000
1832 12090 1 0.16500 119244.000000
1832 14550 1 0.16500 119244.000000
1833 12090 1 0.16500 119244.000000
1833 12861 1 0.16500 119244.000000
1834 12090 1 0.16500 119244.000000
1834 15808 1 0.16500 119244.000000
1835 12090 1 0.16500 119244.000000
1835 16052 1 0.16500 119244.000000
1836 12091 1 0.16500 119244.000000
1836 14092 1 0.16500 119244.000000
1837 12091 1 0.16500 119244.000000
1837 13272 1 0.16500 119244.000000
1838 12091 1 0.16500 119244.000000
1838 16231 1 0.16500 119244.000000
1839 12092 1 0.16500 119244.000000
1839 14894 1 0.16500 119244.000000
1840 12092 1 0.16500 119244.000000
1840 13663 1 0.16500 119244.000000
1841 12092 1 0.16500 119244.000000
1841 12721 1 0.16500 119244.000000
1842 12092 1 0.16500 119244.000000
1842 14909 1 0.16500 119244.000000
1843 12093 1 0.16500 119244.000000
1843 16833 1 0.16500 119244.000000
1844 12093 1 0.16500 119244.000000
1844 16411 1 0.16500 119244.000000
1845 12093 1 0.16500 119244.000000
1845 12625 1 0.16500 119244.000000
1846 12093 1 0.16500 119244.000000
1846 15873 1 0.16500 119244.000000
1847 12094 1 0.16500 119244.000000
1847 12923 1 0.16500 119244.000000
1848 12094 1 0.16500 119244.000000
1848 12804 1 0.16500 119244.000000
1849 12094 1 0.16500 119244.000000
1849 13047 1 0.16500 119244.000000
1850 12094 1 0.16500 119244.000000
1850 14603 1 0.16500 119244.000000
1851 12095 1 0.16500 119244.000000
1851 14904 1 0.16500 119244.000000
1852 12095 1 0.16500 119244.000000
1852 13330 1 0.16500 119244.000000
1853 12095 1 0.16500 119244.000000
1853 16658 1 0.16500 119244.000000
1854 12095 1 0.16500 119244.000000
1854 12161 1 0.16500 119244.000000
1855 12096 1 0.16500 119244.000000
1855 15348 1 0.16500 119244.000000
1856 12096 1 0.16500 119244.000000
1856 15814 1 0.16500 119244.000000
1857 12096 1 0.16500 119244.000000
1857 16146 1 0.16500 119244.000000
1858 11658 1 0.16500 119244.000000
1858 17557 1 0.16500 119244.000000
1859 12097 1 0.16500 119244.000000
1859 15730 1 0.16500 119244.000000
1860 12097 1 0.16500 119244.000000
1860 15908 1 0.16500 119244.000000
1861 12097 1 0.16500 119244.000000
1861 12857 1 0.16500 119244.000000
1862 12097 1 0.16500 119244.000000
1862 13369 1 0.16500 119244.000000
1863 12098 1 0.16500 119244.000000
1863 13235 1 0.16500 119244.000000
1864 12098 1 0.16500 119244.000000
1864 13098 1 0.16500 119244.000000
1865 12098 1 0.16500 119244.000000
1865 15418 1 0.16500 119244.000000
1866 17133 1 0.16500 119244.000000
1866 18014 1 0.16500 119244.000000
1867 16063 1 0.16500 119244.000000
1867 18014 1 0.16500 119244.000000
1868 12099 1 0.16500 119244.000000
1868 14664 1 0.16500 119244.000000
1869 12099 1 0.16500 119244.000000
1869 17129 1 0.16500 119244.000000
1870 12099 1 0.16500 119244.000000
1870 16409 1 0.16500 119244.000000
1871 12099 1 0.16500 119244.000000
1871 16644 1 0.16500 119244.000000
1872 12100 1 0.16500 119244.000000
1872 13584 1 0.16500 119244.000000
1873 12100 1 0.16500 119244.000000
1873 12136 1 0.16500 119244.000000
1874 12100 1 0.16500 119244.000000
1874 14154 1 0.16500 119244.000000
1875 12100 1 0.16500 119244.000000
1875 16900 1 0.16500 119244.000000
1876 12101 1 0.16500 119244.000000
1876 16387 1 0.16500 119244.000000
1877 12101 1 0.16500 119244.000000
1877 16130 1 0.16500 119244.000000
1878 12101 1 0.16500 119244.000000
1878 17160 1 0.16500 119244.000000
1879 12102 1 0.16500 119244.000000
1879 14605 1 0.16500 119244.000000
1880 12102 1 0.16500 119244.000000
1880 16611 1 0.16500 119244.000000
1881 12102 1 0.16500 119244.000000
1881 13384 1 0.16500 119244.000000
1882 12102 1 0.16500 119244.000000
1882 12772 1 0.16500 119244.000000
1883 12103 1 0.16500 119244.000000
1883 14489 1 0.16500 119244.000000
1884 12103 1 0.16500 119244.000000
1884 13358 1 0.16500 119244.000000
1885 12103 1 0.16500 119244.000000
1885 14523 1 0.16500 119244.000000
1886 12104 1 0.16500 119244.000000
1886 12581 1 0.16500 119244.000000
1887 12104 1 0.16500 119244.000000
1887 15078 1 0.16500 119244.000000
1888 12104 1 0.16500 119244.000000
1888 13726 1 0.16500 119244.000000
1889 12105 1 0.16500 119244.000000
1889 14883 1 0.16500 119244.000000
1890 12105 1 0.16500 119244.000000
1890 17035 1 0.16500 119244.000000
1891 12105 1 0.16500 119244.000000
1891 13482 1 0.16500 119244.000000
1892 12106 1 0.16500 119244.000000
1892 14409 1 0.16500 119244.000000
1893 12106 1 0.16500 119244.000000
1893 15402 1 0.16500 119244.000000
1894 14409 1 0.16500 119244.000000
1894 16209 1 0.16500 119244.000000
1895 12106 1 0.16500 119244.000000
1895 16226 1 0.16500 119244.000000
1896 13614 1 0.16500 119244.000000
1896 17290 1 0.16500 119244.000000
1897 17058 1 0.16500 119244.000000
1897 17290 1 0.16500 119244.000000
1898 12107 1 0.16500 119244.000000
1898 12294 1 0.16500 119244.000000
1899 12107 1 0.16500 119244.000000
1899 15027 1 0.16500 119244.000000
1900 12107 1 0.16500 119244.000000
1900 14927 1 0.16500 119244.000000
1901 12107 1 0.16500 119244.000000
1901 16820 1 0.16500 119244.000000
1902 14853 1 0.16500 119244.000000
1902 17180 1 0.16500 119244.000000
1903 12108 1 0.16500 119244.000000
1903 13282 1 0.16500 119244.000000
1904 16026 1 0.16500 119244.000000
1904 16431 1 0.16500 119244.000000
1905 12108 1 0.16500 119244.000000
1905 14853 1 0.16500 119244.000000
1906 12109 1 0.16500 119244.000000
1906 15863 1 0.16500 119244.000000
1907 12109 1 0.16500 119244.000000
1907 14971 1 0.16500 119244.000000
1908 12109 1 0.16500 119244.000000
1908 16675 1 0.16500 119244.000000
1909 12109 1 0.16500 119244.000000
1909 12461 1 0.16500 119244.000000
1910 12110 1 0.16500 119244.000000
1910 13335 1 0.16500 119244.000000
1911 12110 1 0.16500 119244.000000
1911 14510 1 0.16500 119244.000000
1912 14510 1 0.16500 119244.000000
1912 15382 1 0.16500 119244.000000
1913 12110 1 0.16500 119244.000000
1913 14141 1 0.16500 119244.000000
1914 12111 1 0.16500 119244.000000
1914 16895 1 0.16500 119244.000000
1915 12111 1 0.16500 119244.000000
1915 16702 1 0.16500 119244.000000
1916 12111 1 0.16500 119244.000000
1916 13501 1 0.16500 119244.000000
1917 12111 1 0.16500 119244.000000
1917 12443 1 0.16500 119244.000000
1918 12112 1 0.16500 119244.000000
1918 15501 1 0.16500 119244.000000
1919 12112 1 0.16500 119244.000000
1919 13875 1 0.16500 119244.000000
1920 12113 1 0.16500 119244.000000
1920 16923 1 0.16500 119244.000000
1921 12113 1 0.16500 119244.000000
1921 15797 1 0.16500 119244.000000
1922 12113 1 0.16500 119244.000000
1922 17983 1 0.16500 119244.000000
1923 12113 1 0.16500 119244.000000
1923 13804 1 0.16500 119244.000000
1924 15833 1 0.16500 119244.000000
1924 16711 1 0.16500 119244.000000
1925 12114 1 0.16500 119244.000000
1925 15833 1 0.16500 119244.000000
1926 12114 1 0.16500 119244.000000
1926 15252 1 0.16500 119244.000000
1927 15212 1 0.16500 119244.000000
1927 15252 1 0.16500 119244.000000
1928 13285 1 0.16500 119244.000000
1928 16907 1 0.16500 119244.000000
1929 12115 1 0.16500 119244.000000
1929 12697 1 0.16500 119244.000000
1930 12235 1 0.16500 119244.000000
1930 16640 1 0.16500 119244.000000
1931 12115 1 0.16500 119244.000000
1931 13285 1 0.16500 119244.000000
1932 12116 1 0.16500 119244.000000
1932 16654 1 0.16500 119244.000000
1933 12116 1 0.16500 119244.000000
1933 16692 1 0.16500 119244.000000
1934 12116 1 0.16500 119244.000000
1934 15328 1 0.16500 119244.000000
1935 12116 1 0.16500 119244.000000
1935 15451 1 0.16500 119244.000000
1936 12117 1 0.16500 119244.000000
1936 14397 1 0.16500 119244.000000
1937 12117 1 0.16500 119244.000000
1937 12385 1 0.16500 119244.000000
1938 12117 1 0.16500 119244.000000
1938 13927 1 0.16500 119244.000000
1939 12604 1 0.16500 119244.000000
1939 14690 1 0.16500 119244.000000
1940 12118 1 0.16500 119244.000000
1940 12169 1 0.16500 119244.000000
1941 12118 1 0.16500 119244.000000
1941 13884 1 0.16500 119244.000000
1942 12118 1 0.16500 119244.000000
1942 16271 1 0.16500 119244.000000
1943 12119 1 0.16500 119244.000000
1943 13031 1 0.16500 119244.000000
1944 12119 1 0.16500 119244.000000
1944 17623 1 0.16500 119244.000000
1945 12119 1 0.16500 119244.000000
1945 13609 1 0.16500 119244.000000
1946 11700 1 0.16500 119244.000000
1946 12914 1 0.16500 119244.000000
1947 12120 1 0.16500 119244.000000
1947 15652 1 0.16500 119244.000000
1948 11700 1 0.16500 119244.000000
1948 14480 1 0.16500 119244.000000
1949 12121 1 0.16500 119244.000000
1949 15614 1 0.16500 119244.000000
1950 12121 1 0.16500 119244.000000
1950 13522 1 0.16500 119244.000000
1951 12121 1 0.16500 119244.000000
1951 17875 1 0.16500 119244.000000
1952 12122 1 0.16500 119244.000000
1952 14105 1 0.16500 119244.000000
1953 12122 1 0.16500 119244.000000
1953 14524 1 0.16500 119244.000000
1954 12122 1 0.16500 119244.000000
1954 14618 1 0.16500 119244.000000
1955 12122 1 0.16500 119244.000000
1955 13383 1 0.16500 119244.000000
1956 12123 1 0.16500 119244.000000
1956 12448 1 0.16500 119244.000000
1957 12123 1 0.16500 119244.000000
1957 12703 1 0.16500 119244.000000
1958 12123 1 0.16500 119244.000000
1958 17527 1 0.16500 119244.000000
1959 12123 1 0.16500 119244.000000
1959 13365 1 0.16500 119244.000000
1960 12124 1 0.16500 119244.000000
1960 17719 1 0.16500 119244.000000
1961 12124 1 0.16500 119244.000000
1961 14272 1 0.16500 119244.000000
1962 12124 1 0.16500 119244.000000
1962 13757 1 0.16500 119244.000000
1963 12124 1 0.16500 119244.000000
1963 13148 1 0.16500 119244.000000
1964 12125 1 0.16500 119244.000000
1964 12289 1 0.16500 119244.000000
1965 12125 1 0.16500 119244.000000
1965 14914 1 0.16500 119244.000000
1966 12125 1 0.16500 119244.000000
1966 16995 1 0.16500 119244.000000
1967 12125 1 0.16500 119244.000000
1967 16610 1 0.16500 119244.000000
1968 12126 1 0.16500 119244.000000
1968 17121 1 0.16500 119244.000000
1969 12126 1 0.16500 119244.000000
1969 17857 1 0.16500 119244.000000
1970 12126 1 0.16500 119244.000000
1970 15895 1 0.16500 119244.000000
1971 12127 1 0.16500 119244.000000
1971 15930 1 0.16500 119244.000000
1972 12127 1 0.16500 119244.000000
1972 13055 1 0.16500 119244.000000
1973 12127 1 0.16500 119244.000000
1973 16272 1 0.16500 119244.000000
1974 13913 1 0.16500 119244.000000
1974 16272 1 0.16500 119244.000000
1975 15144 1 0.16500 119244.000000
1975 16433 1 0.16500 119244.000000
1976 12128 1 0.16500 119244.000000
1976 15376 1 0.16500 119244.000000
1977 12128 1 0.16500 119244.000000
1977 16433 1 0.16500 119244.000000
1978 12128 1 0.16500 119244.000000
1978 13101 1 0.16500 119244.000000
1979 12129 1 0.16500 119244.000000
1979 12156 1 0.16500 119244.000000
1980 12129 1 0.16500 119244.000000
1980 12521 1 0.16500 119244.000000
1981 12129 1 0.16500 119244.000000
1981 13717 1 0.16500 119244.000000
1982 12129 1 0.16500 119244.000000
1982 15835 1 0.16500 119244.000000
1983 12130 1 0.16500 119244.000000
1983 13311 1 0.16500 119244.000000
1984 12130 1 0.16500 119244.000000
1984 17968 1 0.16500 119244.000000
1985 12130 1 0.16500 119244.000000
1985 14393 1 0.16500 119244.000000
1986 12130 1 0.16500 119244.000000
1986 17302 1 0.16500 119244.000000
1987 12131 1 0.16500 119244.000000
1987 13098 1 0.16500 119244.000000
1988 12131 1 0.16500 119244.000000
1988 12192 1 0.16500 119244.000000
1989 16474 1 0.16500 119244.000000
1989 16505 1 0.16500 119244.000000
1990 12131 1 0.16500 119244.000000
1990 16505 1 0.16500 119244.000000
1991 12132 1 0.16500 119244.000000
1991 14331 1 0.16500 119244.000000
1992 12132 1 0.16500 119244.000000
1992 16783 1 0.16500 119244.000000
1993 12132 1 0.16500 119244.000000
1993 16947 1 0.16500 119244.000000
1994 12132 1 0.16500 119244.000000
1994 12367 1 0.16500 119244.000000
1995 12133 1 0.16500 119244.000000
1995 14145 1 0.16500 119244.000000
1996 12133 1 0.16500 119244.000000
1996 13510 1 0.16500 119244.000000
1997 12133 1 0.16500 119244.000000
1997 14891 1 0.16500 119244.000000
1998 12133 1 0.16500 119244.000000
1998 16032 1 0.16500 119244.000000
1999 12134 1 0.16500 119244.000000
1999 15202 1 0.16500 119244.000000
2000 12134 1 0.16500 119244.000000
2000 13422 1 0.16500 119244.000000
2001 12134 1 0.16500 119244.000000
2001 14828 1 0.16500 119244.000000
2002 12134 1 0.16500 119244.000000
2002 15540 1 0.16500 119244.000000
2003 12135 1 0.16500 119244.000000
2003 12400 1 0.16500 119244.000000
2004 12135 1 0.16500 119244.000000
2004 14314 1 0.16500 119244.000000
2005 12135 1 0.16500 119244.000000
2005 16139 1 0.16500 119244.000000
2006 12136 1 0.16500 119244.000000
2006 16615 1 0.16500 119244.000000
2007 12136 1 0.16500 119244.000000
2007 15294 1 0.16500 119244.000000
2008 12136 1 0.16500 119244.000000
2008 15090 1 0.16500 119244.000000
2009 14591 1 0.16500 119244.000000
2009 17920 1 0.16500 119244.000000
2010 12137 1 0.16500 119244.000000
2010 15300 1 0.16500 119244.000000
2011 12137 1 0.16500 119244.000000
2011 13295 1 0.16500 119244.000000
2012 12137 1 0.16500 119244.000000
2012 13388 1 0.16500 119244.000000
2013 12137 1 0.16500 119244.000000
2013 13618 1 0.16500 119244.000000
2014 12138 1 0.16500 119244.000000
2014 13058 1 0.16500 119244.000000
2015 12138 1 0.16500 119244.000000
2015 13743 1 0.16500 119244.000000
2016 12138 1 0.16500 119244.000000
2016 16223 1 0.16500 119244.000000
2017 12138 1 0.16500 119244.000000
2017 13522 1 0.16500 119244.000000
2018 14025 1 0.16500 119244.000000
2018 17293 1 0.16500 119244.000000
2019 15399 1 0.16500 119244.000000
2019 17293 1 0.16500 119244.000000
2020 12139 1 0.16500 119244.000000
2020 15586 1 0.16500 119244.000000
2021 12139 1 0.16500 119244.000000
2021 12973 1 0.16500 119244.000000
2022 12139 1 0.16500 119244.000000
2022 12482 1 0.16500 119244.000000
2023 12140 1 0.16500 119244.000000
2023 13117 1 0.16500 119244.000000
2024 12140 1 0.16500 119244.000000
2024 15532 1 0.16500 119244.000000
2025 12140 1 0.16500 119244.000000
2025 13163 1 0.16500 119244.000000
2026 12140 1 0.16500 119244.000000
2026 16534 1 0.16500 119244.000000
2027 12432 1 0.16500 119244.000000
2027 17296 1 0.16500 119244.000000
2028 16418 1 0.16500 119244.000000
2028 17296 1 0.16500 119244.000000
2029 12141 1 0.16500 119244.000000
2029 13742 1 0.16500 119244.000000
2030 12141 1 0.16500 119244.000000
2030 15615 1 0.16500 119244.000000
2031 12141 1 0.16500 119244.000000
2031 15607 1 0.16500 119244.000000
2032 12141 1 0.16500 119244.000000
2032 12739 1 0.16500 119244.000000
2033 12142 1 0.16500 119244.000000
2033 14309 1 0.16500 119244.000000
2034 12142 1 0.16500 119244.000000
2034 16981 1 0.16500 119244.000000
2035 12142 1 0.16500 119244.000000
2035 15905 1 0.16500 119244.000000
2036 12142 1 0.16500 119244.000000
2036 16905 1 0.16500 119244.000000
2037 12143 1 0.16500 119244.000000
2037 15341 1 0.16500 119244.000000
2038 12143 1 0.16500 119244.000000
2038 15499 1 0.16500 119244.000000
2039 12143 1 0.16500 119244.000000
2039 15402 1 0.16500 119244.000000
2040 12143 1 0.16500 119244.000000
2040 12382 1 0.16500 119244.000000
2041 12144 1 0.16500 119244.000000
2041 17025 1 0.16500 119244.000000
2042 12144 1 0.16500 119244.000000
2042 16240 1 0.16500 119244.000000
2043 12145 1 0.16500 119244.000000
2043 13782 1 0.16500 119244.000000
2044 12145 1 0.16500 119244.000000
2044 15698 1 0.16500 119244.000000
2045 12145 1 0.16500 119244.000000
2045 17485 1 0.16500 119244.000000
2046 13745 1 0.16500 119244.000000
2046 17299 1 0.16500 119244.000000
2047 15253 1 0.16500 119244.000000
2047 17299 1 0.16500 119244.000000
2048 15740 1 0.16500 119244.000000
2048 17299 1 0.16500 119244.000000
2049 12146 1 0.16500 119244.000000
2049 13446 1 0.16500 119244.000000
2050 12146 1 0.16500 119244.000000
2050 15866 1 0.16500 119244.000000
2051 12146 1 0.16500 119244.000000
2051 13848 1 0.16500 119244.000000
2052 12146 1 0.16500 119244.000000
2052 13524 1 0.16500 119244.000000
2053 12147 1 0.16500 119244.000000
2053 12152 1 0.16500 119244.000000
2054 12147 1 0.16500 119244.000000
2054 13475 1 0.16500 119244.000000
2055 12148 1 0.16500 119244.000000
2055 12445 1 0.16500 119244.000000
2056 12148 1 0.16500 119244.000000
2056 16546 1 0.16500 119244.000000
2057 12148 1 0.16500 119244.000000
2057 16697 1 0.16500 119244.000000
2058 12148 1 0.16500 119244.000000
2058 12359 1 0.16500 119244.000000
2059 12149 1 0.16500 119244.000000
2059 13652 1 0.16500 119244.000000
2060 12149 1 0.16500 119244.000000
2060 12447 1 0.16500 119244.000000
2061 12149 1 0.16500 119244.000000
2061 14586 1 0.16500 119244.000000
2062 12150 1 0.16500 119244.000000
2062 16467 1 0.16500 119244.000000
2063 12150 1 0.16500 119244.000000
2063 15563 1 0.16500 119244.000000
2064 12150 1 0.16500 119244.000000
2064 12635 1 0.16500 119244.000000
2065 12150 1 0.16500 119244.000000
2065 16161 1 0.16500 119244.000000
2066 17302 1 0.16500 119244.000000
2066 17476 1 0.16500 119244.000000
2067 12151 1 0.16500 119244.000000
2067 13912 1 0.16500 119244.000000
2068 12151 1 0.16500 119244.000000
2068 15815 1 0.16500 119244.000000
2069 12151 1 0.16500 119244.000000
2069 13303 1 0.16500 119244.000000
2070 12152 1 0.16500 119244.000000
2070 12211 1 0.16500 119244.000000
2071 12152 1 0.16500 119244.000000
2071 14847 1 0.16500 119244.000000
2072 12153 1 0.16500 119244.000000
2072 14273 1 0.16500 119244.000000
2073 12153 1 0.16500 119244.000000
2073 15439 1 0.16500 119244.000000
2074 11811 1 0.16500 119244.000000
2074 16354 1 0.16500 119244.000000
2075 12154 1 0.16500 119244.000000
2075 12719 1 0.16500 119244.000000
2076 12154 1 0.16500 119244.000000
2076 14802 1 0.16500 119244.000000
2077 12154 1 0.16500 119244.000000
2077 15658 1 0.16500 119244.000000
2078 12154 1 0.16500 119244.000000
2078 17090 1 0.16500 119244.000000
2079 12155 1 0.16500 119244.000000
2079 14530 1 0.16500 119244.000000
2080 12155 1 0.16500 119244.000000
2080 15300 1 0.16500 119244.000000
2081 12155 1 0.16500 119244.000000
2081 13234 1 0.16500 119244.000000
2082 12156 1 0.16500 119244.000000
2082 12623 1 0.16500 119244.000000
2083 12156 1 0.16500 119244.000000
2083 16746 1 0.16500 119244.000000
2084 12157 1 0.16500 119244.000000
2084 14859 1 0.16500 119244.000000
2085 12157 1 0.16500 119244.000000
2085 15237 1 0.16500 119244.000000
2086 12157 1 0.16500 119244.000000
2086 16643 1 0.16500 119244.000000
2087 12157 1 0.16500 119244.000000
2087 13168 1 0.16500 119244.000000
2088 12158 1 0.16500 119244.000000
2088 12624 1 0.16500 119244.000000
2089 12158 1 0.16500 119244.000000
2089 14031 1 0.16500 119244.000000
2090 12158 1 0.16500 119244.000000
2090 13430 1 0.16500 119244.000000
2091 12158 1 0.16500 119244.000000
2091 14262 1 0.16500 119244.000000
2092 12159 1 0.16500 119244.000000
2092 16351 1 0.16500 119244.000000
2093 12159 1 0.16500 119244.000000
2093 14047 1 0.16500 119244.000000
2094 12159 1 0.16500 119244.000000
2094 15265 1 0.16500 119244.000000
2095 12159 1 0.16500 119244.000000
2095 12638 1 0.16500 119244.000000
2096 14878 1 0.16500 119244.000000
2096 17305 1 0.16500 119244.000000
2097 12681 1 0.16500 119244.000000
2097 17305 1 0.16500 119244.000000
2098 12160 1 0.16500 119244.000000
2098 16996 1 0.16500 119244.000000
2099 16996 1 0.16500 119244.000000
2099 17773 1 0.16500 119244.000000
2100 12160 1 0.16500 119244.000000
2100 16059 1 0.16500 119244.000000
2101 12161 1 0.16500 119244.000000
2101 12185 1 0.16500 119244.000000
2102 12161 1 0.16500 119244.000000
2102 16379 1 0.16500 119244.000000
2103 12161 1 0.16500 119244.000000
2103 16378 1 0.16500 119244.000000
2104 12162 1 0.16500 119244.000000
2104 16869 1 0.16500 119244.000000
2105 12162 1 0.16500 119244.000000
2105 13804 1 0.16500 119244.000000
2106 12162 1 0.16500 119244.000000
2106 16650 1 0.16500 119244.000000
2107 17506 1 0.16500 119244.000000
2107 18019 1 0.16500 119244.000000
2108 17014 1 0.16500 119244.000000
2108 18019 1 0.16500 119244.000000
2109 12163 1 0.16500 119244.000000
2109 13089 1 0.16500 119244.000000
2110 12163 1 0.16500 119244.000000
2110 17911 1 0.16500 119244.000000
2111 12163 1 0.16500 119244.000000
2111 15018 1 0.16500 119244.000000
2112 12163 1 0.16500 119244.000000
2112 15440 1 0.16500 119244.000000
2113 12164 1 0.16500 119244.000000
2113 16560 1 0.16500 119244.000000
2114 12164 1 0.16500 119244.000000
2114 13304 1 0.16500 119244.000000
2115 12164 1 0.16500 119244.000000
2115 13847 1 0.16500 119244.000000
2116 12164 1 0.16500 119244.000000
2116 15726 1 0.16500 119244.000000
2117 12426 1 0.16500 119244.000000
2117 14199 1 0.16500 119244.000000
2118 12165 1 0.16500 119244.000000
2118 14199 1 0.16500 119244.000000
2119 12165 1 0.16500 119244.000000
2119 16545 1 0.16500 119244.000000
2120 12165 1 0.16500 119244.000000
2120 14428 1 0.16500 119244.000000
2121 12166 1 0.16500 119244.000000
2121 14360 1 0.16500 119244.000000
2122 12166 1 0.16500 119244.000000
2122 13801 1 0.16500 119244.000000
2123 12166 1 0.16500 119244.000000
2123 13051 1 0.16500 119244.000000
2124 12166 1 0.16500 119244.000000
2124 17049 1 0.16500 119244.000000
2125 12167 1 0.16500 119244.000000
2125 17093 1 0.16500 119244.000000
2126 12167 1 0.16500 119244.000000
2126 13515 1 0.16500 119244.000000
2127 12168 1 0.16500 119244.000000
2127 12590 1 0.16500 119244.000000
2128 12168 1 0.16500 119244.000000
2128 12902 1 0.16500 119244.000000
2129 12168 1 0.16500 119244.000000
2129 16682 1 0.16500 119244.000000
2130 12168 1 0.16500 119244.000000
2130 16004 1 0.16500 119244.000000
2131 12169 1 0.16500 119244.000000
2131 15314 1 0.16500 119244.000000
2132 12169 1 0.16500 119244.000000
2132 14735 1 0.16500 119244.000000
2133 12170 1 0.16500 119244.000000
2133 12234 1 0.16500 119244.000000
2134 12170 1 0.16500 119244.000000
2134 13687 1 0.16500 119244.000000
2135 12170 1 0.16500 119244.000000
2135 15733 1 0.16500 119244.000000
2136 12170 1 0.16500 119244.000000
2136 14037 1 0.16500 119244.000000
2137 12171 1 0.16500 119244.000000
2137 14541 1 0.16500 119244.000000
2138 12171 1 0.16500 119244.000000
2138 16120 1 0.16500 119244.000000
2139 12171 1 0.16500 119244.000000
2139 12416 1 0.16500 119244.000000
2140 12172 1 0.16500 119244.000000
2140 14231 1 0.16500 119244.000000
2141 12172 1 0.16500 119244.000000
2141 13418 1 0.16500 119244.000000
2142 12172 1 0.16500 119244.000000
2142 13072 1 0.16500 119244.000000
2143 12172 1 0.16500 119244.000000
2143 15621 1 0.16500 119244.000000
2144 12173 1 0.16500 119244.000000
2144 16860 1 0.16500 119244.000000
2145 12173 1 0.16500 119244.000000
2145 13412 1 0.16500 119244.000000
2146 12173 1 0.16500 119244.000000
2146 13895 1 0.16500 119244.000000
2147 12173 1 0.16500 119244.000000
2147 13443 1 0.16500 119244.000000
2148 12174 1 0.16500 119244.000000
2148 17758 1 0.16500 119244.000000
2149 12175 1 0.16500 119244.000000
2149 13819 1 0.16500 119244.000000
2150 12175 1 0.16500 119244.000000
2150 16966 1 0.16500 119244.000000
2151 12175 1 0.16500 119244.000000
2151 15456 1 0.16500 119244.000000
2152 12176 1 0.16500 119244.000000
2152 16340 1 0.16500 119244.000000
2153 12176 1 0.16500 119244.000000
2153 16629 1 0.16500 119244.000000
2154 12176 1 0.16500 119244.000000
2154 15622 1 0.16500 119244.000000
2155 12176 1 0.16500 119244.000000
2155 16881 1 0.16500 119244.000000
2156 12177 1 0.16500 119244.000000
2156 16416 1 0.16500 119244.000000
2157 12177 1 0.16500 119244.000000
2157 16870 1 0.16500 119244.000000
2158 12177 1 0.16500 119244.000000
2158 14186 1 0.16500 119244.000000
2159 12178 1 0.16500 119244.000000
2159 14837 1 0.16500 119244.000000
2160 12178 1 0.16500 119244.000000
2160 12880 1 0.16500 119244.000000
2161 12179 1 0.16500 119244.000000
2161 13073 1 0.16500 119244.000000
2162 12179 1 0.16500 119244.000000
2162 17069 1 0.16500 119244.000000
2163 13408 1 0.16500 119244.000000
2163 14816 1 0.16500 119244.000000
2164 12179 1 0.16500 119244.000000
2164 13408 1 0.16500 119244.000000
2165 12180 1 0.16500 119244.000000
2165 14690 1 0.16500 119244.000000
2166 12180 1 0.16500 119244.000000
2166 14318 1 0.16500 119244.000000
2167 12181 1 0.16500 119244.000000
2167 15842 1 0.16500 119244.000000
2168 12181 1 0.16500 119244.000000
2168 14866 1 0.16500 119244.000000
2169 12181 1 0.16500 119244.000000
2169 15902 1 0.16500 119244.000000
2170 12181 1 0.16500 119244.000000
2170 15011 1 0.16500 119244.000000
2171 12182 1 0.16500 119244.000000
2171 13712 1 0.16500 119244.000000
2172 12182 1 0.16500 119244.000000
2172 15111 1 0.16500 119244.000000
2173 12182 1 0.16500 119244.000000
2173 17027 1 0.16500 119244.000000
2174 12182 1 0.16500 119244.000000
2174 15941 1 0.16500 119244.000000
2175 12183 1 0.16500 119244.000000
2175 13083 1 0.16500 119244.000000
2176 15030 1 0.16500 119244.000000
2176 17009 1 0.16500 119244.000000
2177 12183 1 0.16500 119244.000000
2177 17614 1 0.16500 119244.000000
2178 12183 1 0.16500 119244.000000
2178 17009 1 0.16500 119244.000000
2179 12184 1 0.16500 119244.000000
2179 15810 1 0.16500 119244.000000
2180 12184 1 0.16500 119244.000000
2180 14820 1 0.16500 119244.000000
2181 12185 1 0.16500 119244.000000
2181 16303 1 0.16500 119244.000000
2182 12185 1 0.16500 119244.000000
2182 14432 1 0.16500 119244.000000
2183 12185 1 0.16500 119244.000000
2183 14256 1 0.16500 119244.000000
2184 12186 1 0.16500 119244.000000
2184 12864 1 0.16500 119244.000000
2185 12186 1 0.16500 119244.000000
2185 15090 1 0.16500 119244.000000
2186 12186 1 0.16500 119244.000000
2186 17135 1 0.16500 119244.000000
2187 12186 1 0.16500 119244.000000
2187 14602 1 0.16500 119244.000000
2188 12187 1 0.16500 119244.000000
2188 13109 1 0.16500 119244.000000
2189 12187 1 0.16500 119244.000000
2189 16706 1 0.16500 119244.000000
2190 12187 1 0.16500 119244.000000
2190 12649 1 0.16500 119244.000000
2191 12187 1 0.16500 119244.000000
2191 14239 1 0.16500 119244.000000
2192 12188 1 0.16500 119244.000000
2192 17127 1 0.16500 119244.000000
2193 12188 1 0.16500 119244.000000
2193 16906 1 0.16500 119244.000000
2194 15885 1 0.16500 119244.000000
2194 16930 1 0.16500 119244.000000
2195 12188 1 0.16500 119244.000000
2195 16930 1 0.16500 119244.000000
2196 12189 1 0.16500 119244.000000
2196 16332 1 0.16500 119244.000000
2197 12189 1 0.16500 119244.000000
2197 16105 1 0.16500 119244.000000
2198 12189 1 0.16500 119244.000000
2198 16592 1 0.16500 119244.000000
2199 12189 1 0.16500 119244.000000
2199 15626 1 0.16500 119244.000000
2200 12190 1 0.16500 119244.000000
2200 15762 1 0.16500 119244.000000
2201 12190 1 0.16500 119244.000000
2201 15406 1 0.16500 119244.000000
2202 12191 1 0.16500 119244.000000
2202 13047 1 0.16500 119244.000000
2203 12191 1 0.16500 119244.000000
2203 13021 1 0.16500 119244.000000
2204 12191 1 0.16500 119244.000000
2204 16629 1 0.16500 119244.000000
2205 12191 1 0.16500 119244.000000
2205 14202 1 0.16500 119244.000000
2206 12192 1 0.16500 119244.000000
2206 16482 1 0.16500 119244.000000
2207 12192 1 0.16500 119244.000000
2207 13396 1 0.16500 119244.000000
2208 12192 1 0.16500 119244.000000
2208 12199 1 0.16500 119244.000000
2209 12193 1 0.16500 119244.000000
2209 15620 1 0.16500 119244.000000
2210 12193 1 0.16500 119244.000000
2210 13270 1 0.16500 119244.000000
2211 12193 1 0.16500 119244.000000
2211 13210 1 0.16500 119244.000000
2212 12194 1 0.16500 119244.000000
2212 13434 1 0.16500 119244.000000
2213 12194 1 0.16500 119244.000000
2213 15802 1 0.16500 119244.000000
2214 12194 1 0.16500 119244.000000
2214 12886 1 0.16500 119244.000000
2215 12194 1 0.16500 119244.000000
2215 17119 1 0.16500 119244.000000
2216 12195 1 0.16500 119244.000000
2216 12620 1 0.16500 119244.000000
2217 12195 1 0.16500 119244.000000
2217 17377 1 0.16500 119244.000000
2218 12196 1 0.16500 119244.000000
2218 15798 1 0.16500 119244.000000
2219 12196 1 0.16500 119244.000000
2219 12907 1 0.16500 119244.000000
2220 12196 1 0.16500 119244.000000
2220 16050 1 0.16500 119244.000000
2221 12196 1 0.16500 119244.000000
2221 16304 1 0.16500 119244.000000
2222 12197 1 0.16500 119244.000000
2222 13535 1 0.16500 119244.000000
2223 12197 1 0.16500 119244.000000
2223 15703 1 0.16500 119244.000000
2224 12197 1 0.16500 119244.000000
2224 14147 1 0.16500 119244.000000
2225 12197 1 0.16500 119244.000000
2225 14966 1 0.16500 119244.000000
2226 12198 1 0.16500 119244.000000
2226 13760 1 0.16500 119244.000000
2227 12198 1 0.16500 119244.000000
2227 16205 1 0.16500 119244.000000
2228 12198 1 0.16500 119244.000000
2228 15971 1 0.16500 119244.000000
2229 12198 1 0.16500 119244.000000
2229 13750 1 0.16500 119244.000000
2230 12199 1 0.16500 119244.000000
2230 15532 1 0.16500 119244.000000
2231 12199 1 0.16500 119244.000000
2231 16417 1 0.16500 119244.000000
2232 12199 1 0.16500 119244.000000
2232 13235 1 0.16500 119244.000000
2233 12200 1 0.16500 119244.000000
2233 12748 1 0.16500 119244.000000
2234 12200 1 0.16500 119244.000000
2234 13187 1 0.16500 119244.000000
2235 12201 1 0.16500 119244.000000
2235 14267 1 0.16500 119244.000000
2236 12201 1 0.16500 119244.000000
2236 13218 1 0.16500 119244.000000
2237 12201 1 0.16500 119244.000000
2237 15264 1 0.16500 119244.000000
2238 12201 1 0.16500 119244.000000
2238 13747 1 0.16500 119244.000000
2239 12202 1 0.16500 119244.000000
2239 15471 1 0.16500 119244.000000
2240 12202 1 0.16500 119244.000000
2240 13769 1 0.16500 119244.000000
2241 12202 1 0.16500 119244.000000
2241 12779 1 0.16500 119244.000000
2242 12203 1 0.16500 119244.000000
2242 16612 1 0.16500 119244.000000
2243 12203 1 0.16500 119244.000000
2243 14120 1 0.16500 119244.000000
2244 12203 1 0.16500 119244.000000
2244 13233 1 0.16500 119244.000000
2245 12203 1 0.16500 119244.000000
2245 16391 1 0.16500 119244.000000
2246 12204 1 0.16500 119244.000000
2246 17662 1 0.16500 119244.000000
2247 12204 1 0.16500 119244.000000
2247 17106 1 0.16500 119244.000000
2248 12204 1 0.16500 119244.000000
2248 13446 1 0.16500 119244.000000
2249 12204 1 0.16500 119244.000000
2249 15438 1 0.16500 119244.000000
2250 12205 1 0.16500 119244.000000
2250 14991 1 0.16500 119244.000000
2251 12205 1 0.16500 119244.000000
2251 13305 1 0.16500 119244.000000
2252 12205 1 0.16500 119244.000000
2252 16070 1 0.16500 119244.000000
2253 12206 1 0.16500 119244.000000
2253 15346 1 0.16500 119244.000000
2254 12206 1 0.16500 119244.000000
2254 13922 1 0.16500 119244.000000
2255 12206 1 0.16500 119244.000000
2255 13998 1 0.16500 119244.000000
2256 12206 1 0.16500 119244.000000
2256 14352 1 0.16500 119244.000000
2257 12207 1 0.16500 119244.000000
2257 13241 1 0.16500 119244.000000
2258 12207 1 0.16500 119244.000000
2258 15034 1 0.16500 119244.000000
2259 12207 1 0.16500 119244.000000
2259 16590 1 0.16500 119244.000000
2260 12207 1 0.16500 119244.000000
2260 13812 1 0.16500 119244.000000
2261 12208 1 0.16500 119244.000000
2261 15199 1 0.16500 119244.000000
2262 12208 1 0.16500 119244.000000
2262 16674 1 0.16500 119244.000000
2263 12208 1 0.16500 119244.000000
2263 13372 1 0.16500 119244.000000
2264 12208 1 0.16500 119244.000000
2264 15477 1 0.16500 119244.000000
2265 12209 1 0.16500 119244.000000
2265 15076 1 0.16500 119244.000000
2266 12209 1 0.16500 119244.000000
2266 13585 1 0.16500 119244.000000
2267 12209 1 0.16500 119244.000000
2267 14117 1 0.16500 119244.000000
2268 12209 1 0.16500 119244.000000
2268 12655 1 0.16500 119244.000000
2269 12407 1 0.16500 119244.000000
2269 17061 1 0.16500 119244.000000
2270 12210 1 0.16500 119244.000000
2270 17061 1 0.16500 119244.000000
2271 12210 1 0.16500 119244.000000
2271 16911 1 0.16500 119244.000000
2272 12210 1 0.16500 119244.000000
2272 12453 1 0.16500 119244.000000
2273 12211 1 0.16500 119244.000000
2273 12942 1 0.16500 119244.000000
2274 12211 1 0.16500 119244.000000
2274 15372 1 0.16500 119244.000000
2275 12211 1 0.16500 119244.000000
2275 15653 1 0.16500 119244.000000
2276 12212 1 0.16500 119244.000000
2276 14765 1 0.16500 119244.000000
2277 12212 1 0.16500 119244.000000
2277 13254 1 0.16500 119244.000000
2278 12212 1 0.16500 119244.000000
2278 13751 1 0.16500 119244.000000
2279 12212 1 0.16500 119244.000000
2279 16835 1 0.16500 119244.000000
2280 12213 1 0.16500 119244.000000
2280 15794 1 0.16500 119244.000000
2281 12213 1 0.16500 119244.000000
2281 14185 1 0.16500 119244.000000
2282 12213 1 0.16500 119244.000000
2282 15957 1 0.16500 119244.000000
2283 12213 1 0.16500 119244.000000
2283 16121 1 0.16500 119244.000000
2284 12214 1 0.16500 119244.000000
2284 13882 1 0.16500 119244.000000
2285 12214 1 0.16500 119244.000000
2285 13897 1 0.16500 119244.000000
2286 12214 1 0.16500 119244.000000
2286 12539 1 0.16500 119244.000000
2287 12214 1 0.16500 119244.000000
2287 15371 1 0.16500 119244.000000
2288 12215 1 0.16500 119244.000000
2288 14757 1 0.16500 119244.000000
2289 12215 1 0.16500 119244.000000
2289 12896 1 0.16500 119244.000000
2290 12215 1 0.16500 119244.000000
2290 15302 1 0.16500 119244.000000
2291 12216 1 0.16500 119244.000000
2291 17051 1 0.16500 119244.000000
2292 12216 1 0.16500 119244.000000
2292 14970 1 0.16500 119244.000000
2293 12216 1 0.16500 119244.000000
2293 15088 1 0.16500 119244.000000
2294 12216 1 0.16500 119244.000000
2294 12465 1 0.16500 119244.000000
2295 12217 1 0.16500 119244.000000
2295 15869 1 0.16500 119244.000000
2296 12218 1 0.16500 119244.000000
2296 13033 1 0.16500 119244.000000
2297 12218 1 0.16500 119244.000000
2297 13022 1 0.16500 119244.000000
2298 12218 1 0.16500 119244.000000
2298 17698 1 0.16500 119244.000000
2299 12219 1 0.16500 119244.000000
2299 14178 1 0.16500 119244.000000
2300 12220 1 0.16500 119244.000000
2300 16842 1 0.16500 119244.000000
2301 12220 1 0.16500 119244.000000
2301 15434 1 0.16500 119244.000000
2302 12220 1 0.16500 119244.000000
2302 12446 1 0.16500 119244.000000
2303 12220 1 0.16500 119244.000000
2303 14269 1 0.16500 119244.000000
2304 12221 1 0.16500 119244.000000
2304 14152 1 0.16500 119244.000000
2305 12222 1 0.16500 119244.000000
2305 16736 1 0.16500 119244.000000
2306 12222 1 0.16500 119244.000000
2306 14497 1 0.16500 119244.000000
2307 12222 1 0.16500 119244.000000
2307 13483 1 0.16500 119244.000000
2308 12222 1 0.16500 119244.000000
2308 16332 1 0.16500 119244.000000
2309 12223 1 0.16500 119244.000000
2309 12773 1 0.16500 119244.000000
2310 12223 1 0.16500 119244.000000
2310 16051 1 0.16500 119244.000000
2311 12223 1 0.16500 119244.000000
2311 15653 1 0.16500 119244.000000
2312 12223 1 0.16500 119244.000000
2312 16150 1 0.16500 119244.000000
2313 12224 1 0.16500 119244.000000
2313 16894 1 0.16500 119244.000000
2314 12224 1 0.16500 119244.000000
2314 13761 1 0.16500 119244.000000
2315 12224 1 0.16500 119244.000000
2315 14129 1 0.16500 119244.000000
2316 12224 1 0.16500 119244.000000
2316 15708 1 0.16500 119244.000000
2317 12225 1 0.16500 119244.000000
2317 16759 1 0.16500 119244.000000
2318 12225 1 0.16500 119244.000000
2318 16786 1 0.16500 119244.000000
2319 12225 1 0.16500 119244.000000
2319 13789 1 0.16500 119244.000000
2320 12225 1 0.16500 119244.000000
2320 13001 1 0.16500 119244.000000
2321 12226 1 0.16500 119244.000000
2321 14590 1 0.16500 119244.000000
2322 12226 1 0.16500 119244.000000
2322 15232 1 0.16500 119244.000000
2323 12226 1 0.16500 119244.000000
2323 15809 1 0.16500 119244.000000
2324 12227 1 0.16500 119244.000000
2324 17398 1 0.16500 119244.000000
2325 12227 1 0.16500 119244.000000
2325 15386 1 0.16500 119244.000000
2326 12228 1 0.16500 119244.000000
2326 13844 1 0.16500 119244.000000
2327 12228 1 0.16500 119244.000000
2327 13491 1 0.16500 119244.000000
2328 12228 1 0.16500 119244.000000
2328 12283 1 0.16500 119244.000000
2329 12228 1 0.16500 119244.000000
2329 14329 1 0.16500 119244.000000
2330 12229 1 0.16500 119244.000000
2330 15033 1 0.16500 119244.000000
2331 12229 1 0.16500 119244.000000
2331 17045 1 0.16500 119244.000000
2332 14176 1 0.16500 119244.000000
2332 15033 1 0.16500 119244.000000
2333 12230 1 0.16500 119244.000000
2333 12677 1 0.16500 119244.000000
2334 12230 1 0.16500 119244.000000
2334 12502 1 0.16500 119244.000000
2335 12230 1 0.16500 119244.000000
2335 14766 1 0.16500 119244.000000
2336 12230 1 0.16500 119244.000000
2336 15223 1 0.16500 119244.000000
2337 15423 1 0.16500 119244.000000
2337 15880 1 0.16500 119244.000000
2338 12032 1 0.16500 119244.000000
2338 12231 1 0.16500 119244.000000
2339 15880 1 0.16500 119244.000000
2339 16746 1 0.16500 119244.000000
2340 12231 1 0.16500 119244.000000
2340 15880 1 0.16500 119244.000000
2341 12232 1 0.16500 119244.000000
2341 15624 1 0.16500 119244.000000
2342 12748 1 0.16500 119244.000000
2342 15035 1 0.16500 119244.000000
2343 12232 1 0.16500 119244.000000
2343 15035 1 0.16500 119244.000000
2344 12233 1 0.16500 119244.000000
2344 12885 1 0.16500 119244.000000
2345 12233 1 0.16500 119244.000000
2345 13620 1 0.16500 119244.000000
2346 12233 1 0.16500 119244.000000
2346 16691 1 0.16500 119244.000000
2347 12233 1 0.16500 119244.000000
2347 15625 1 0.16500 119244.000000
2348 12234 1 0.16500 119244.000000
2348 13823 1 0.16500 119244.000000
2349 12234 1 0.16500 119244.000000
2349 16519 1 0.16500 119244.000000
2350 12235 1 0.16500 119244.000000
2350 13285 1 0.16500 119244.000000
2351 12235 1 0.16500 119244.000000
2351 14753 1 0.16500 119244.000000
2352 13285 1 0.16500 119244.000000
2352 15977 1 0.16500 119244.000000
2353 12235 1 0.16500 119244.000000
2353 15861 1 0.16500 119244.000000
2354 12236 1 0.16500 119244.000000
2354 16600 1 0.16500 119244.000000
2355 12236 1 0.16500 119244.000000
2355 16776 1 0.16500 119244.000000
2356 12236 1 0.16500 119244.000000
2356 13212 1 0.16500 119244.000000
2357 12236 1 0.16500 119244.000000
2357 14062 1 0.16500 119244.000000
2358 12237 1 0.16500 119244.000000
2358 13440 1 0.16500 119244.000000
2359 12237 1 0.16500 119244.000000
2359 14506 1 0.16500 119244.000000
2360 12237 1 0.16500 119244.000000
2360 14677 1 0.16500 119244.000000
2361 12237 1 0.16500 119244.000000
2361 15163 1 0.16500 119244.000000
2362 12238 1 0.16500 119244.000000
2362 13761 1 0.16500 119244.000000
2363 12238 1 0.16500 119244.000000
2363 15208 1 0.16500 119244.000000
2364 12238 1 0.16500 119244.000000
2364 15269 1 0.16500 119244.000000
2365 12238 1 0.16500 119244.000000
2365 12559 1 0.16500 119244.000000
2366 12239 1 0.16500 119244.000000
2366 13930 1 0.16500 119244.000000
2367 12239 1 0.16500 119244.000000
2367 15779 1 0.16500 119244.000000
2368 12239 1 0.16500 119244.000000
2368 14032 1 0.16500 119244.000000
2369 12239 1 0.16500 119244.000000
2369 13761 1 0.16500 119244.000000
2370 12240 1 0.16500 119244.000000
2370 15341 1 0.16500 119244.000000
2371 12240 1 0.16500 119244.000000
2371 14914 1 0.16500 119244.000000
2372 12240 1 0.16500 119244.000000
2372 13632 1 0.16500 119244.000000
2373 12240 1 0.16500 119244.000000
2373 16382 1 0.16500 119244.000000
2374 12241 1 0.16500 119244.000000
2374 15303 1 0.16500 119244.000000
2375 12241 1 0.16500 119244.000000
2375 12856 1 0.16500 119244.000000
2376 12241 1 0.16500 119244.000000
2376 15306 1 0.16500 119244.000000
2377 12241 1 0.16500 119244.000000
2377 14147 1 0.16500 119244.000000
2378 12242 1 0.16500 119244.000000
2378 12246 1 0.16500 119244.000000
2379 12242 1 0.16500 119244.000000
2379 14704 1 0.16500 119244.000000
2380 12242 1 0.16500 119244.000000
2380 13616 1 0.16500 119244.000000
2381 12242 1 0.16500 119244.000000
2381 13668 1 0.16500 119244.000000
2382 12243 1 0.16500 119244.000000
2382 15176 1 0.16500 119244.000000
2383 12243 1 0.16500 119244.000000
2383 14760 1 0.16500 119244.000000
2384 12243 1 0.16500 119244.000000
2384 16868 1 0.16500 119244.000000
2385 12243 1 0.16500 119244.000000
2385 13377 1 0.16500 119244.000000
2386 12244 1 0.16500 119244.000000
2386 15404 1 0.16500 119244.000000
2387 12244 1 0.16500 119244.000000
2387 14539 1 0.16500 119244.000000
2388 12244 1 0.16500 119244.000000
2388 13191 1 0.16500 119244.000000
2389 12244 1 0.16500 119244.000000
2389 17171 1 0.16500 119244.000000
2390 12245 1 0.16500 119244.000000
2390 16209 1 0.16500 119244.000000
2391 12245 1 0.16500 119244.000000
2391 14585 1 0.16500 119244.000000
2392 12245 1 0.16500 119244.000000
2392 15640 1 0.16500 119244.000000
2393 12245 1 0.16500 119244.000000
2393 15341 1 0.16500 119244.000000
2394 12246 1 0.16500 119244.000000
2394 13411 1 0.16500 119244.000000
2395 12246 1 0.16500 119244.000000
2395 17031 1 0.16500 119244.000000
2396 12246 1 0.16500 119244.000000
2396 12468 1 0.16500 119244.000000
2397 16428 1 0.16500 119244.000000
2397 17031 1 0.16500 119244.000000
2398 12247 1 0.16500 119244.000000
2398 16507 1 0.16500 119244.000000
2399 12247 1 0.16500 119244.000000
2399 15707 1 0.16500 119244.000000
2400 12247 1 0.16500 119244.000000
2400 12292 1 0.16500 119244.000000
2401 14460 1 0.16500 119244.000000
2401 16507 1 0.16500 119244.000000
2402 12248 1 0.16500 119244.000000
2402 16606 1 0.16500 119244.000000
2403 12248 1 0.16500 119244.000000
2403 15294 1 0.16500 119244.000000
2404 12248 1 0.16500 119244.000000
2404 12470 1 0.16500 119244.000000
2405 12248 1 0.16500 119244.000000
2405 13040 1 0.16500 119244.000000
2406 12249 1 0.16500 119244.000000
2406 17012 1 0.16500 119244.000000
2407 12249 1 0.16500 119244.000000
2407 16337 1 0.16500 119244.000000
2408 12249 1 0.16500 119244.000000
2408 13669 1 0.16500 119244.000000
2409 12249 1 0.16500 119244.000000
2409 16579 1 0.16500 119244.000000
2410 12250 1 0.16500 119244.000000
2410 13831 1 0.16500 119244.000000
2411 12250 1 0.16500 119244.000000
2411 16378 1 0.16500 119244.000000
2412 12250 1 0.16500 119244.000000
2412 14310 1 0.16500 119244.000000
2413 12251 1 0.16500 119244.000000
2413 17115 1 0.16500 119244.000000
2414 12251 1 0.16500 119244.000000
2414 15780 1 0.16500 119244.000000
2415 12251 1 0.16500 119244.000000
2415 15628 1 0.16500 119244.000000
2416 12251 1 0.16500 119244.000000
2416 15329 1 0.16500 119244.000000
2417 12252 1 0.16500 119244.000000
2417 13299 1 0.16500 119244.000000
2418 12252 1 0.16500 119244.000000
2418 15967 1 0.16500 119244.000000
2419 12252 1 0.16500 119244.000000
2419 17602 1 0.16500 119244.000000
2420 12252 1 0.16500 119244.000000
2420 13382 1 0.16500 119244.000000
2421 12253 1 0.16500 119244.000000
2421 15431 1 0.16500 119244.000000
2422 12253 1 0.16500 119244.000000
2422 14365 1 0.16500 119244.000000
2423 12253 1 0.16500 119244.000000
2423 14531 1 0.16500 119244.000000
2424 12253 1 0.16500 119244.000000
2424 16083 1 0.16500 119244.000000
2425 12254 1 0.16500 119244.000000
2425 15026 1 0.16500 119244.000000
2426 12254 1 0.16500 119244.000000
2426 13009 1 0.16500 119244.000000
2427 12254 1 0.16500 119244.000000
2427 16157 1 0.16500 119244.000000
2428 12254 1 0.16500 119244.000000
2428 12331 1 0.16500 119244.000000
2429 11952 1 0.16500 119244.000000
2429 12255 1 0.16500 119244.000000
2430 12255 1 0.16500 119244.000000
2430 16631 1 0.16500 119244.000000
2431 12256 1 0.16500 119244.000000
2431 17455 1 0.16500 119244.000000
2432 11699 1 0.16500 119244.000000
2432 18064 1 0.16500 119244.000000
2433 12256 1 0.16500 119244.000000
2433 18064 1 0.16500 119244.000000
2434 12257 1 0.16500 119244.000000
2434 14987 1 0.16500 119244.000000
2435 12257 1 0.16500 119244.000000
2435 16870 1 0.16500 119244.000000
2436 12257 1 0.16500 119244.000000
2436 12612 1 0.16500 119244.000000
2437 12257 1 0.16500 119244.000000
2437 16797 1 0.16500 119244.000000
2438 12258 1 0.16500 119244.000000
2438 14740 1 0.16500 119244.000000
2439 12258 1 0.16500 119244.000000
2439 15722 1 0.16500 119244.000000
2440 12258 1 0.16500 119244.000000
2440 15368 1 0.16500 119244.000000
2441 12258 1 0.16500 119244.000000
2441 14295 1 0.16500 119244.000000
2442 11662 1 0.16500 119244.000000
2442 12259 1 0.16500 119244.000000
2443 12259 1 0.16500 119244.000000
2443 13104 1 0.16500 119244.000000
2444 12259 1 0.16500 119244.000000
2444 13607 1 0.16500 119244.000000
2445 12259 1 0.16500 119244.000000
2445 14462 1 0.16500 119244.000000
2446 12260 1 0.16500 119244.000000
2446 12594 1 0.16500 119244.000000
2447 12260 1 0.16500 119244.000000
2447 12997 1 0.16500 119244.000000
2448 12260 1 0.16500 119244.000000
2448 14950 1 0.16500 119244.000000
2449 12260 1 0.16500 119244.000000
2449 14244 1 0.16500 119244.000000
2450 15121 1 0.16500 119244.000000
2450 17311 1 0.16500 119244.000000
2451 13338 1 0.16500 119244.000000
2451 17311 1 0.16500 119244.000000
2452 16822 1 0.16500 119244.000000
2452 17311 1 0.16500 119244.000000
2453 12261 1 0.16500 119244.000000
2453 12769 1 0.16500 119244.000000
2454 12261 1 0.16500 119244.000000
2454 12908 1 0.16500 119244.000000
2455 12261 1 0.16500 119244.000000
2455 15136 1 0.16500 119244.000000
2456 12262 1 0.16500 119244.000000
2456 16726 1 0.16500 119244.000000
2457 12262 1 0.16500 119244.000000
2457 16796 1 0.16500 119244.000000
2458 12263 1 0.16500 119244.000000
2458 15161 1 0.16500 119244.000000
2459 12263 1 0.16500 119244.000000
2459 15768 1 0.16500 119244.000000
2460 12263 1 0.16500 119244.000000
2460 12557 1 0.16500 119244.000000
2461 12263 1 0.16500 119244.000000
2461 16859 1 0.16500 119244.000000
2462 12264 1 0.16500 119244.000000
2462 16858 1 0.16500 119244.000000
2463 12264 1 0.16500 119244.000000
2463 12782 1 0.16500 119244.000000
2464 12265 1 0.16500 119244.000000
2464 13913 1 0.16500 119244.000000
2465 12265 1 0.16500 119244.000000
2465 14254 1 0.16500 119244.000000
2466 12265 1 0.16500 119244.000000
2466 17029 1 0.16500 119244.000000
2467 12265 1 0.16500 119244.000000
2467 14012 1 0.16500 119244.000000
2468 12266 1 0.16500 119244.000000
2468 12282 1 0.16500 119244.000000
2469 12266 1 0.16500 119244.000000
2469 15221 1 0.16500 119244.000000
2470 12266 1 0.16500 119244.000000
2470 13774 1 0.16500 119244.000000
2471 12266 1 0.16500 119244.000000
2471 15438 1 0.16500 119244.000000
2472 12267 1 0.16500 119244.000000
2472 15742 1 0.16500 119244.000000
2473 12267 1 0.16500 119244.000000
2473 14892 1 0.16500 119244.000000
2474 12267 1 0.16500 119244.000000
2474 15658 1 0.16500 119244.000000
2475 12267 1 0.16500 119244.000000
2475 13240 1 0.16500 119244.000000
2476 12268 1 0.16500 119244.000000
2476 16166 1 0.16500 119244.000000
2477 12268 1 0.16500 119244.000000
2477 17039 1 0.16500 119244.000000
2478 12268 1 0.16500 119244.000000
2478 15929 1 0.16500 119244.000000
2479 12664 1 0.16500 119244.000000
2479 17039 1 0.16500 119244.000000
2480 12269 1 0.16500 119244.000000
2480 13325 1 0.16500 119244.000000
2481 12269 1 0.16500 119244.000000
2481 16814 1 0.16500 119244.000000
2482 12269 1 0.16500 119244.000000
2482 12965 1 0.16500 119244.000000
2483 12270 1 0.16500 119244.000000
2483 12865 1 0.16500 119244.000000
2484 12270 1 0.16500 119244.000000
2484 14285 1 0.16500 119244.000000
2485 12270 1 0.16500 119244.000000
2485 15064 1 0.16500 119244.000000
2486 12271 1 0.16500 119244.000000
2486 16065 1 0.16500 119244.000000
2487 12271 1 0.16500 119244.000000
2487 12868 1 0.16500 119244.000000
2488 12271 1 0.16500 119244.000000
2488 12419 1 0.16500 119244.000000
2489 12271 1 0.16500 119244.000000
2489 14806 1 0.16500 119244.000000
2490 12839 1 0.16500 119244.000000
2490 17896 1 0.16500 119244.000000
2491 15530 1 0.16500 119244.000000
2491 16304 1 0.16500 119244.000000
2492 12839 1 0.16500 119244.000000
2492 15530 1 0.16500 119244.000000
2493 12272 1 0.16500 119244.000000
2493 16241 1 0.16500 119244.000000
2494 12272 1 0.16500 119244.000000
2494 14410 1 0.16500 119244.000000
2495 12272 1 0.16500 119244.000000
2495 17515 1 0.16500 119244.000000
2496 12273 1 0.16500 119244.000000
2496 12309 1 0.16500 119244.000000
2497 12273 1 0.16500 119244.000000
2497 12947 1 0.16500 119244.000000
2498 12273 1 0.16500 119244.000000
2498 15074 1 0.16500 119244.000000
2499 12273 1 0.16500 119244.000000
2499 15313 1 0.16500 119244.000000
2500 16772 1 0.16500 119244.000000
2500 18024 1 0.16500 119244.000000
2501 14004 1 0.16500 119244.000000
2501 18024 1 0.16500 119244.000000
2502 12274 1 0.16500 119244.000000
2502 15373 1 0.16500 119244.000000
2503 12274 1 0.16500 119244.000000
2503 14870 1 0.16500 119244.000000
2504 12274 1 0.16500 119244.000000
2504 12424 1 0.16500 119244.000000
2505 14811 1 0.16500 119244.000000
2505 17314 1 0.16500 119244.000000
2506 12396 1 0.16500 119244.000000
2506 17314 1 0.16500 119244.000000
2507 14811 1 0.16500 119244.000000
2507 16318 1 0.16500 119244.000000
2508 12275 1 0.16500 119244.000000
2508 14979 1 0.16500 119244.000000
2509 12275 1 0.16500 119244.000000
2509 16156 1 0.16500 119244.000000
2510 12275 1 0.16500 119244.000000
2510 13766 1 0.16500 119244.000000
2511 12275 1 0.16500 119244.000000
2511 16949 1 0.16500 119244.000000
2512 12276 1 0.16500 119244.000000
2512 14486 1 0.16500 119244.000000
2513 12276 1 0.16500 119244.000000
2513 12549 1 0.16500 119244.000000
2514 12276 1 0.16500 119244.000000
2514 13172 1 0.16500 119244.000000
2515 12276 1 0.16500 119244.000000
2515 13604 1 0.16500 119244.000000
2516 12277 1 0.16500 119244.000000
2516 16250 1 0.16500 119244.000000
2517 12277 1 0.16500 119244.000000
2517 17407 1 0.16500 119244.000000
2518 12277 1 0.16500 119244.000000
2518 16601 1 0.16500 119244.000000
2519 12277 1 0.16500 119244.000000
2519 16495 1 0.16500 119244.000000
2520 12278 1 0.16500 119244.000000
2520 16952 1 0.16500 119244.000000
2521 12278 1 0.16500 119244.000000
2521 14395 1 0.16500 119244.000000
2522 12278 1 0.16500 119244.000000
2522 16766 1 0.16500 119244.000000
2523 12278 1 0.16500 119244.000000
2523 16400 1 0.16500 119244.000000
2524 12279 1 0.16500 119244.000000
2524 12646 1 0.16500 119244.000000
2525 12279 1 0.16500 119244.000000
2525 14797 1 0.16500 119244.000000
2526 12279 1 0.16500 119244.000000
2526 12707 1 0.16500 119244.000000
2527 12279 1 0.16500 119244.000000
2527 13199 1 0.16500 119244.000000
2528 12280 1 0.16500 119244.000000
2528 15665 1 0.16500 119244.000000
2529 12280 1 0.16500 119244.000000
2529 12845 1 0.16500 119244.000000
2530 12280 1 0.16500 119244.000000
2530 14494 1 0.16500 119244.000000
2531 12280 1 0.16500 119244.000000
2531 12727 1 0.16500 119244.000000
2532 12281 1 0.16500 119244.000000
2532 15621 1 0.16500 119244.000000
2533 12281 1 0.16500 119244.000000
2533 14943 1 0.16500 119244.000000
2534 12281 1 0.16500 119244.000000
2534 14670 1 0.16500 119244.000000
2535 12281 1 0.16500 119244.000000
2535 15608 1 0.16500 119244.000000
2536 12282 1 0.16500 119244.000000
2536 16585 1 0.16500 119244.000000
2537 12282 1 0.16500 119244.000000
2537 16206 1 0.16500 119244.000000
2538 12282 1 0.16500 119244.000000
2538 16994 1 0.16500 119244.000000
2539 12283 1 0.16500 119244.000000
2539 16677 1 0.16500 119244.000000
2540 12283 1 0.16500 119244.000000
2540 17533 1 0.16500 119244.000000
2541 12283 1 0.16500 119244.000000
2541 13988 1 0.16500 119244.000000
2542 12284 1 0.16500 119244.000000
2542 12918 1 0.16500 119244.000000
2543 12284 1 0.16500 119244.000000
2543 15805 1 0.16500 119244.000000
2544 12284 1 0.16500 119244.000000
2544 15886 1 0.16500 119244.000000
2545 12285 1 0.16500 119244.000000
2545 14828 1 0.16500 119244.000000
2546 12285 1 0.16500 119244.000000
2546 16409 1 0.16500 119244.000000
2547 12285 1 0.16500 119244.000000
2547 13974 1 0.16500 119244.000000
2548 12285 1 0.16500 119244.000000
2548 16269 1 0.16500 119244.000000
2549 12286 1 0.16500 119244.000000
2549 15272 1 0.16500 119244.000000
2550 12286 1 0.16500 119244.000000
2550 12378 1 0.16500 119244.000000
2551 12286 1 0.16500 119244.000000
2551 13811 1 0.16500 119244.000000
2552 12286 1 0.16500 119244.000000
2552 15536 1 0.16500 119244.000000
2553 12287 1 0.16500 119244.000000
2553 13685 1 0.16500 119244.000000
2554 12287 1 0.16500 119244.000000
2554 13734 1 0.16500 119244.000000
2555 12287 1 0.16500 119244.000000
2555 15463 1 0.16500 119244.000000
2556 12287 1 0.16500 119244.000000
2556 17102 1 0.16500 119244.000000
2557 13518 1 0.16500 119244.000000
2557 16935 1 0.16500 119244.000000
2558 12288 1 0.16500 119244.000000
2558 16176 1 0.16500 119244.000000
2559 12288 1 0.16500 119244.000000
2559 12384 1 0.16500 119244.000000
2560 12288 1 0.16500 119244.000000
2560 13518 1 0.16500 119244.000000
2561 12289 1 0.16500 119244.000000
2561 12931 1 0.16500 119244.000000
2562 12289 1 0.16500 119244.000000
2562 13977 1 0.16500 119244.000000
2563 12289 1 0.16500 119244.000000
2563 13632 1 0.16500 119244.000000
2564 12290 1 0.16500 119244.000000
2564 16745 1 0.16500 119244.000000
2565 12290 1 0.16500 119244.000000
2565 12958 1 0.16500 119244.000000
2566 12290 1 0.16500 119244.000000
2566 15382 1 0.16500 119244.000000
2567 12291 1 0.16500 119244.000000
2567 13910 1 0.16500 119244.000000
2568 12291 1 0.16500 119244.000000
2568 15918 1 0.16500 119244.000000
2569 12291 1 0.16500 119244.000000
2569 17869 1 0.16500 119244.000000
2570 12291 1 0.16500 119244.000000
2570 15016 1 0.16500 119244.000000
2571 12292 1 0.16500 119244.000000
2571 16159 1 0.16500 119244.000000
2572 12292 1 0.16500 119244.000000
2572 12645 1 0.16500 119244.000000
2573 12645 1 0.16500 119244.000000
2573 15555 1 0.16500 119244.000000
2574 11806 1 0.16500 119244.000000
2574 12293 1 0.16500 119244.000000
2575 12293 1 0.16500 119244.000000
2575 13721 1 0.16500 119244.000000
2576 12293 1 0.16500 119244.000000
2576 14162 1 0.16500 119244.000000
2577 12293 1 0.16500 119244.000000
2577 13245 1 0.16500 119244.000000
2578 12294 1 0.16500 119244.000000
2578 15684 1 0.16500 119244.000000
2579 12294 1 0.16500 119244.000000
2579 14698 1 0.16500 119244.000000
2580 12294 1 0.16500 119244.000000
2580 14007 1 0.16500 119244.000000
2581 12295 1 0.16500 119244.000000
2581 14250 1 0.16500 119244.000000
2582 12295 1 0.16500 119244.000000
2582 15546 1 0.16500 119244.000000
2583 12329 1 0.16500 119244.000000
2583 15760 1 0.16500 119244.000000
2584 12296 1 0.16500 119244.000000
2584 12610 1 0.16500 119244.000000
2585 12296 1 0.16500 119244.000000
2585 15760 1 0.16500 119244.000000
2586 12296 1 0.16500 119244.000000
2586 13384 1 0.16500 119244.000000
2587 12297 1 0.16500 119244.000000
2587 14344 1 0.16500 119244.000000
2588 12297 1 0.16500 119244.000000
2588 15984 1 0.16500 119244.000000
2589 12298 1 0.16500 119244.000000
2589 13971 1 0.16500 119244.000000
2590 12298 1 0.16500 119244.000000
2590 12781 1 0.16500 119244.000000
2591 12298 1 0.16500 119244.000000
2591 15431 1 0.16500 119244.000000
2592 12299 1 0.16500 119244.000000
2592 13111 1 0.16500 119244.000000
2593 12299 1 0.16500 119244.000000
2593 14902 1 0.16500 119244.000000
2594 12299 1 0.16500 119244.000000
2594 12949 1 0.16500 119244.000000
2595 12300 1 0.16500 119244.000000
2595 17069 1 0.16500 119244.000000
2596 12300 1 0.16500 119244.000000
2596 15216 1 0.16500 119244.000000
2597 12300 1 0.16500 119244.000000
2597 12430 1 0.16500 119244.000000
2598 12301 1 0.16500 119244.000000
2598 17082 1 0.16500 119244.000000
2599 12301 1 0.16500 119244.000000
2599 16608 1 0.16500 119244.000000
2600 12301 1 0.16500 119244.000000
2600 13721 1 0.16500 119244.000000
2601 12301 1 0.16500 119244.000000
2601 13063 1 0.16500 119244.000000
2602 16519 1 0.16500 119244.000000
2602 17317 1 0.16500 119244.000000
2603 15237 1 0.16500 119244.000000
2603 17317 1 0.16500 119244.000000
2604 12302 1 0.16500 119244.000000
2604 17323 1 0.16500 119244.000000
2605 14632 1 0.16500 119244.000000
2605 17323 1 0.16500 119244.000000
2606 12303 1 0.16500 119244.000000
2606 17133 1 0.16500 119244.000000
2607 15248 1 0.16500 119244.000000
2607 17133 1 0.16500 119244.000000
2608 12303 1 0.16500 119244.000000
2608 17047 1 0.16500 119244.000000
2609 12303 1 0.16500 119244.000000
2609 16230 1 0.16500 119244.000000
2610 12304 1 0.16500 119244.000000
2610 16826 1 0.16500 119244.000000
2611 12304 1 0.16500 119244.000000
2611 13343 1 0.16500 119244.000000
2612 12304 1 0.16500 119244.000000
2612 14239 1 0.16500 119244.000000
2613 12305 1 0.16500 119244.000000
2613 12938 1 0.16500 119244.000000
2614 12305 1 0.16500 119244.000000
2614 12898 1 0.16500 119244.000000
2615 12305 1 0.16500 119244.000000
2615 13545 1 0.16500 119244.000000
2616 12306 1 0.16500 119244.000000
2616 13498 1 0.16500 119244.000000
2617 12306 1 0.16500 119244.000000
2617 13779 1 0.16500 119244.000000
2618 12306 1 0.16500 119244.000000
2618 14932 1 0.16500 119244.000000
2619 12307 1 0.16500 119244.000000
2619 17002 1 0.16500 119244.000000
2620 12307 1 0.16500 119244.000000
2620 13448 1 0.16500 119244.000000
2621 12307 1 0.16500 119244.000000
2621 16656 1 0.16500 119244.000000
2622 12307 1 0.16500 119244.000000
2622 14569 1 0.16500 119244.000000
2623 12397 1 0.16500 119244.000000
2623 17320 1 0.16500 119244.000000
2624 17320 1 0.16500 119244.000000
2624 18114 1 0.16500 119244.000000
2625 13218 1 0.16500 119244.000000
2625 13689 1 0.16500 119244.000000
2626 12308 1 0.16500 119244.000000
2626 15707 1 0.16500 119244.000000
2627 12308 1 0.16500 119244.000000
2627 13689 1 0.16500 119244.000000
2628 12308 1 0.16500 119244.000000
2628 13650 1 0.16500 119244.000000
2629 12309 1 0.16500 119244.000000
2629 16461 1 0.16500 119244.000000
2630 12309 1 0.16500 119244.000000
2630 15678 1 0.16500 119244.000000
2631 12309 1 0.16500 119244.000000
2631 13422 1 0.16500 119244.000000
2632 12310 1 0.16500 119244.000000
2632 16509 1 0.16500 119244.000000
2633 12310 1 0.16500 119244.000000
2633 13022 1 0.16500 119244.000000
2634 12310 1 0.16500 119244.000000
2634 17041 1 0.16500 119244.000000
2635 12310 1 0.16500 119244.000000
2635 16236 1 0.16500 119244.000000
2636 12311 1 0.16500 119244.000000
2636 16317 1 0.16500 119244.000000
2637 12311 1 0.16500 119244.000000
2637 13763 1 0.16500 119244.000000
2638 12311 1 0.16500 119244.000000
2638 15805 1 0.16500 119244.000000
2639 12311 1 0.16500 119244.000000
2639 16529 1 0.16500 119244.000000
2640 12312 1 0.16500 119244.000000
2640 13711 1 0.16500 119244.000000
2641 12312 1 0.16500 119244.000000
2641 16305 1 0.16500 119244.000000
2642 12312 1 0.16500 119244.000000
2642 14173 1 0.16500 119244.000000
2643 12312 1 0.16500 119244.000000
2643 13670 1 0.16500 119244.000000
2644 12313 1 0.16500 119244.000000
2644 17184 1 0.16500 119244.000000
2645 12313 1 0.16500 119244.000000
2645 13754 1 0.16500 119244.000000
2646 12313 1 0.16500 119244.000000
2646 12967 1 0.16500 119244.000000
2647 12314 1 0.16500 119244.000000
2647 13799 1 0.16500 119244.000000
2648 12314 1 0.16500 119244.000000
2648 16983 1 0.16500 119244.000000
2649 16264 1 0.16500 119244.000000
2649 16983 1 0.16500 119244.000000
2650 12314 1 0.16500 119244.000000
2650 14707 1 0.16500 119244.000000
2651 12315 1 0.16500 119244.000000
2651 13925 1 0.16500 119244.000000
2652 12315 1 0.16500 119244.000000
2652 17151 1 0.16500 119244.000000
2653 12315 1 0.16500 119244.000000
2653 17127 1 0.16500 119244.000000
2654 12316 1 0.16500 119244.000000
2654 13928 1 0.16500 119244.000000
2655 12316 1 0.16500 119244.000000
2655 14575 1 0.16500 119244.000000
2656 12316 1 0.16500 119244.000000
2656 15294 1 0.16500 119244.000000
2657 12316 1 0.16500 119244.000000
2657 17078 1 0.16500 119244.000000
2658 12317 1 0.16500 119244.000000
2658 15358 1 0.16500 119244.000000
2659 12317 1 0.16500 119244.000000
2659 12457 1 0.16500 119244.000000
2660 12318 1 0.16500 119244.000000
2660 13784 1 0.16500 119244.000000
2661 12318 1 0.16500 119244.000000
2661 13750 1 0.16500 119244.000000
2662 12318 1 0.16500 119244.000000
2662 14067 1 0.16500 119244.000000
2663 12318 1 0.16500 119244.000000
2663 17179 1 0.16500 119244.000000
2664 12319 1 0.16500 119244.000000
2664 14912 1 0.16500 119244.000000
2665 12319 1 0.16500 119244.000000
2665 14268 1 0.16500 119244.000000
2666 12320 1 0.16500 119244.000000
2666 14721 1 0.16500 119244.000000
2667 12320 1 0.16500 119244.000000
2667 17785 1 0.16500 119244.000000
2668 12321 1 0.16500 119244.000000
2668 14979 1 0.16500 119244.000000
2669 12321 1 0.16500 119244.000000
2669 14891 1 0.16500 119244.000000
2670 12321 1 0.16500 119244.000000
2670 13208 1 0.16500 119244.000000
2671 12321 1 0.16500 119244.000000
2671 12552 1 0.16500 119244.000000
2672 12322 1 0.16500 119244.000000
2672 13596 1 0.16500 119244.000000
2673 12322 1 0.16500 119244.000000
2673 13781 1 0.16500 119244.000000
2674 12322 1 0.16500 119244.000000
2674 14583 1 0.16500 119244.000000
2675 12322 1 0.16500 119244.000000
2675 12444 1 0.16500 119244.000000
2676 12323 1 0.16500 119244.000000
2676 13011 1 0.16500 119244.000000
2677 12323 1 0.16500 119244.000000
2677 15566 1 0.16500 119244.000000
2678 12323 1 0.16500 119244.000000
2678 16845 1 0.16500 119244.000000
2679 12323 1 0.16500 119244.000000
2679 14351 1 0.16500 119244.000000
2680 12324 1 0.16500 119244.000000
2680 13801 1 0.16500 119244.000000
2681 12324 1 0.16500 119244.000000
2681 13890 1 0.16500 119244.000000
2682 12324 1 0.16500 119244.000000
2682 16301 1 0.16500 119244.000000
2683 15138 1 0.16500 119244.000000
2683 16301 1 0.16500 119244.000000
2684 12325 1 0.16500 119244.000000
2684 12777 1 0.16500 119244.000000
2685 12325 1 0.16500 119244.000000
2685 12940 1 0.16500 119244.000000
2686 12325 1 0.16500 119244.000000
2686 13586 1 0.16500 119244.000000
2687 12325 1 0.16500 119244.000000
2687 16720 1 0.16500 119244.000000
2688 12326 1 0.16500 119244.000000
2688 16262 1 0.16500 119244.000000
2689 12326 1 0.16500 119244.000000
2689 16300 1 0.16500 119244.000000
2690 12326 1 0.16500 119244.000000
2690 13925 1 0.16500 119244.000000
2691 12326 1 0.16500 119244.000000
2691 14296 1 0.16500 119244.000000
2692 12327 1 0.16500 119244.000000
2692 15837 1 0.16500 119244.000000
2693 12327 1 0.16500 119244.000000
2693 14673 1 0.16500 119244.000000
2694 12327 1 0.16500 119244.000000
2694 16893 1 0.16500 119244.000000
2695 12327 1 0.16500 119244.000000
2695 13186 1 0.16500 119244.000000
2696 12328 1 0.16500 119244.000000
2696 13624 1 0.16500 119244.000000
2697 12328 1 0.16500 119244.000000
2697 12635 1 0.16500 119244.000000
2698 12328 1 0.16500 119244.000000
2698 15409 1 0.16500 119244.000000
2699 12329 1 0.16500 119244.000000
2699 15964 1 0.16500 119244.000000
2700 12329 1 0.16500 119244.000000
2700 17770 1 0.16500 119244.000000
2701 12329 1 0.16500 119244.000000
2701 13951 1 0.16500 119244.000000
2702 12330 1 0.16500 119244.000000
2702 16261 1 0.16500 119244.000000
2703 12330 1 0.16500 119244.000000
2703 14751 1 0.16500 119244.000000
2704 12330 1 0.16500 119244.000000
2704 13930 1 0.16500 119244.000000
2705 12330 1 0.16500 119244.000000
2705 14699 1 0.16500 119244.000000
2706 12331 1 0.16500 119244.000000
2706 13627 1 0.16500 119244.000000
2707 12331 1 0.16500 119244.000000
2707 12498 1 0.16500 119244.000000
2708 12331 1 0.16500 119244.000000
2708 16796 1 0.16500 119244.000000
2709 12332 1 0.16500 119244.000000
2709 13598 1 0.16500 119244.000000
2710 12332 1 0.16500 119244.000000
2710 16925 1 0.16500 119244.000000
2711 12332 1 0.16500 119244.000000
2711 16960 1 0.16500 119244.000000
2712 12332 1 0.16500 119244.000000
2712 13468 1 0.16500 119244.000000
2713 12333 1 0.16500 119244.000000
2713 14206 1 0.16500 119244.000000
2714 12333 1 0.16500 119244.000000
2714 13953 1 0.16500 119244.000000
2715 12333 1 0.16500 119244.000000
2715 12745 1 0.16500 119244.000000
2716 12333 1 0.16500 119244.000000
2716 13242 1 0.16500 119244.000000
2717 12334 1 0.16500 119244.000000
2717 17077 1 0.16500 119244.000000
2718 12334 1 0.16500 119244.000000
2718 15111 1 0.16500 119244.000000
2719 12334 1 0.16500 119244.000000
2719 13524 1 0.16500 119244.000000
2720 12334 1 0.16500 119244.000000
2720 15415 1 0.16500 119244.000000
2721 12335 1 0.16500 119244.000000
2721 17191 1 0.16500 119244.000000
2722 12335 1 0.16500 119244.000000
2722 14965 1 0.16500 119244.000000
2723 12335 1 0.16500 119244.000000
2723 12668 1 0.16500 119244.000000
2724 12335 1 0.16500 119244.000000
2724 16668 1 0.16500 119244.000000
2725 12336 1 0.16500 119244.000000
2725 17112 1 0.16500 119244.000000
2726 12336 1 0.16500 119244.000000
2726 14048 1 0.16500 119244.000000
2727 12336 1 0.16500 119244.000000
2727 15802 1 0.16500 119244.000000
2728 12336 1 0.16500 119244.000000
2728 13773 1 0.16500 119244.000000
2729 12337 1 0.16500 119244.000000
2729 16129 1 0.16500 119244.000000
2730 12337 1 0.16500 119244.000000
2730 13537 1 0.16500 119244.000000
2731 12337 1 0.16500 119244.000000
2731 13567 1 0.16500 119244.000000
2732 12338 1 0.16500 119244.000000
2732 12978 1 0.16500 119244.000000
2733 12338 1 0.16500 119244.000000
2733 14485 1 0.16500 119244.000000
2734 12338 1 0.16500 119244.000000
2734 15087 1 0.16500 119244.000000
2735 12339 1 0.16500 119244.000000
2735 13516 1 0.16500 119244.000000
2736 12339 1 0.16500 119244.000000
2736 13926 1 0.16500 119244.000000
2737 12339 1 0.16500 119244.000000
2737 16552 1 0.16500 119244.000000
2738 12340 1 0.16500 119244.000000
2738 12562 1 0.16500 119244.000000
2739 12340 1 0.16500 119244.000000
2739 14042 1 0.16500 119244.000000
2740 12340 1 0.16500 119244.000000
2740 15314 1 0.16500 119244.000000
2741 12340 1 0.16500 119244.000000
2741 15276 1 0.16500 119244.000000
2742 12341 1 0.16500 119244.000000
2742 16633 1 0.16500 119244.000000
2743 12341 1 0.16500 119244.000000
2743 17144 1 0.16500 119244.000000
2744 12341 1 0.16500 119244.000000
2744 16250 1 0.16500 119244.000000
2745 12341 1 0.16500 119244.000000
2745 12931 1 0.16500 119244.000000
2746 12342 1 0.16500 119244.000000
2746 13990 1 0.16500 119244.000000
2747 12342 1 0.16500 119244.000000
2747 17779 1 0.16500 119244.000000
2748 12342 1 0.16500 119244.000000
2748 17130 1 0.16500 119244.000000
2749 12343 1 0.16500 119244.000000
2749 13367 1 0.16500 119244.000000
2750 12343 1 0.16500 119244.000000
2750 14855 1 0.16500 119244.000000
2751 12343 1 0.16500 119244.000000
2751 16316 1 0.16500 119244.000000
2752 12343 1 0.16500 119244.000000
2752 13002 1 0.16500 119244.000000
2753 12344 1 0.16500 119244.000000
2753 14521 1 0.16500 119244.000000
2754 15069 1 0.16500 119244.000000
2754 16227 1 0.16500 119244.000000
2755 12344 1 0.16500 119244.000000
2755 15120 1 0.16500 119244.000000
2756 12344 1 0.16500 119244.000000
2756 15069 1 0.16500 119244.000000
2757 12345 1 0.16500 119244.000000
2757 12763 1 0.16500 119244.000000
2758 12345 1 0.16500 119244.000000
2758 13475 1 0.16500 119244.000000
2759 12345 1 0.16500 119244.000000
2759 14020 1 0.16500 119244.000000
2760 12345 1 0.16500 119244.000000
2760 13777 1 0.16500 119244.000000
2761 12346 1 0.16500 119244.000000
2761 15734 1 0.16500 119244.000000
2762 12346 1 0.16500 119244.000000
2762 15046 1 0.16500 119244.000000
2763 12346 1 0.16500 119244.000000
2763 14611 1 0.16500 119244.000000
2764 12347 1 0.16500 119244.000000
2764 13153 1 0.16500 119244.000000
2765 12347 1 0.16500 119244.000000
2765 15990 1 0.16500 119244.000000
2766 12347 1 0.16500 119244.000000
2766 14439 1 0.16500 119244.000000
2767 12347 1 0.16500 119244.000000
2767 14945 1 0.16500 119244.000000
2768 12348 1 0.16500 119244.000000
2768 16467 1 0.16500 119244.000000
2769 12348 1 0.16500 119244.000000
2769 16383 1 0.16500 119244.000000
2770 12348 1 0.16500 119244.000000
2770 12393 1 0.16500 119244.000000
2771 12349 1 0.16500 119244.000000
2771 17121 1 0.16500 119244.000000
2772 14089 1 0.16500 119244.000000
2772 14588 1 0.16500 119244.000000
2773 12349 1 0.16500 119244.000000
2773 14089 1 0.16500 119244.000000
2774 12349 1 0.16500 119244.000000
2774 15492 1 0.16500 119244.000000
2775 12350 1 0.16500 119244.000000
2775 15480 1 0.16500 119244.000000
2776 12350 1 0.16500 119244.000000
2776 16049 1 0.16500 119244.000000
2777 12351 1 0.16500 119244.000000
2777 16044 1 0.16500 119244.000000
2778 12351 1 0.16500 119244.000000
2778 12849 1 0.16500 119244.000000
2779 12351 1 0.16500 119244.000000
2779 16259 1 0.16500 119244.000000
2780 12352 1 0.16500 119244.000000
2780 17971 1 0.16500 119244.000000
2781 12352 1 0.16500 119244.000000
2781 13729 1 0.16500 119244.000000
2782 12352 1 0.16500 119244.000000
2782 14850 1 0.16500 119244.000000
2783 12352 1 0.16500 119244.000000
2783 14952 1 0.16500 119244.000000
2784 12353 1 0.16500 119244.000000
2784 16193 1 0.16500 119244.000000
2785 12353 1 0.16500 119244.000000
2785 14702 1 0.16500 119244.000000
2786 12353 1 0.16500 119244.000000
2786 14606 1 0.16500 119244.000000
2787 12353 1 0.16500 119244.000000
2787 13647 1 0.16500 119244.000000
2788 12354 1 0.16500 119244.000000
2788 14377 1 0.16500 119244.000000
2789 12354 1 0.16500 119244.000000
2789 13141 1 0.16500 119244.000000
2790 12354 1 0.16500 119244.000000
2790 16374 1 0.16500 119244.000000
2791 12355 1 0.16500 119244.000000
2791 12980 1 0.16500 119244.000000
2792 12355 1 0.16500 119244.000000
2792 14426 1 0.16500 119244.000000
2793 12980 1 0.16500 119244.000000
2793 13332 1 0.16500 119244.000000
2794 12356 1 0.16500 119244.000000
2794 17193 1 0.16500 119244.000000
2795 12356 1 0.16500 119244.000000
2795 16017 1 0.16500 119244.000000
2796 12356 1 0.16500 119244.000000
2796 15429 1 0.16500 119244.000000
2797 14396 1 0.16500 119244.000000
2797 16017 1 0.16500 119244.000000
2798 12357 1 0.16500 119244.000000
2798 16779 1 0.16500 119244.000000
2799 12357 1 0.16500 119244.000000
2799 16374 1 0.16500 119244.000000
2800 12358 1 0.16500 119244.000000
2800 14718 1 0.16500 119244.000000
2801 12358 1 0.16500 119244.000000
2801 15486 1 0.16500 119244.000000
2802 13314 1 0.16500 119244.000000
2802 14718 1 0.16500 119244.000000
2803 12359 1 0.16500 119244.000000
2803 14964 1 0.16500 119244.000000
2804 12359 1 0.16500 119244.000000
2804 15295 1 0.16500 119244.000000
2805 12359 1 0.16500 119244.000000
2805 14932 1 0.16500 119244.000000
2806 12360 1 0.16500 119244.000000
2806 13086 1 0.16500 119244.000000
2807 12360 1 0.16500 119244.000000
2807 14668 1 0.16500 119244.000000
2808 12360 1 0.16500 119244.000000
2808 16283 1 0.16500 119244.000000
2809 12360 1 0.16500 119244.000000
2809 13436 1 0.16500 119244.000000
2810 12361 1 0.16500 119244.000000
2810 14536 1 0.16500 119244.000000
2811 12361 1 0.16500 119244.000000
2811 14759 1 0.16500 119244.000000
2812 12361 1 0.16500 119244.000000
2812 15994 1 0.16500 119244.000000
2813 12361 1 0.16500 119244.000000
2813 15535 1 0.16500 119244.000000
2814 12362 1 0.16500 119244.000000
2814 15339 1 0.16500 119244.000000
2815 14195 1 0.16500 119244.000000
2815 14259 1 0.16500 119244.000000
2816 12362 1 0.16500 119244.000000
2816 16478 1 0.16500 119244.000000
2817 11715 1 0.16500 119244.000000
2817 14195 1 0.16500 119244.000000
2818 12363 1 0.16500 119244.000000
2818 12649 1 0.16500 119244.000000
2819 12363 1 0.16500 119244.000000
2819 14349 1 0.16500 119244.000000
2820 12363 1 0.16500 119244.000000
2820 16629 1 0.16500 119244.000000
2821 12363 1 0.16500 119244.000000
2821 13979 1 0.16500 119244.000000
2822 12364 1 0.16500 119244.000000
2822 16466 1 0.16500 119244.000000
2823 12364 1 0.16500 119244.000000
2823 17177 1 0.16500 119244.000000
2824 12364 1 0.16500 119244.000000
2824 16705 1 0.16500 119244.000000
2825 12365 1 0.16500 119244.000000
2825 16152 1 0.16500 119244.000000
2826 12365 1 0.16500 119244.000000
2826 17080 1 0.16500 119244.000000
2827 12365 1 0.16500 119244.000000
2827 14801 1 0.16500 119244.000000
2828 12365 1 0.16500 119244.000000
2828 17042 1 0.16500 119244.000000
2829 12366 1 0.16500 119244.000000
2829 16843 1 0.16500 119244.000000
2830 12366 1 0.16500 119244.000000
2830 16659 1 0.16500 119244.000000
2831 12366 1 0.16500 119244.000000
2831 14379 1 0.16500 119244.000000
2832 12367 1 0.16500 119244.000000
2832 12549 1 0.16500 119244.000000
2833 12367 1 0.16500 119244.000000
2833 12943 1 0.16500 119244.000000
2834 12368 1 0.16500 119244.000000
2834 12395 1 0.16500 119244.000000
2835 12368 1 0.16500 119244.000000
2835 15077 1 0.16500 119244.000000
2836 12368 1 0.16500 119244.000000
2836 12820 1 0.16500 119244.000000
2837 12369 1 0.16500 119244.000000
2837 15959 1 0.16500 119244.000000
2838 12369 1 0.16500 119244.000000
2838 16122 1 0.16500 119244.000000
2839 12369 1 0.16500 119244.000000
2839 15940 1 0.16500 119244.000000
2840 12370 1 0.16500 119244.000000
2840 13335 1 0.16500 119244.000000
2841 12370 1 0.16500 119244.000000
2841 15157 1 0.16500 119244.000000
2842 12370 1 0.16500 119244.000000
2842 13324 1 0.16500 119244.000000
2843 12370 1 0.16500 119244.000000
2843 12908 1 0.16500 119244.000000
2844 12371 1 0.16500 119244.000000
2844 14575 1 0.16500 119244.000000
2845 12371 1 0.16500 119244.000000
2845 12613 1 0.16500 119244.000000
2846 12371 1 0.16500 119244.000000
2846 15090 1 0.16500 119244.000000
2847 12371 1 0.16500 119244.000000
2847 13902 1 0.16500 119244.000000
2848 12372 1 0.16500 119244.000000
2848 14294 1 0.16500 119244.000000
2849 12372 1 0.16500 119244.000000
2849 15717 1 0.16500 119244.000000
2850 12372 1 0.16500 119244.000000
2850 12581 1 0.16500 119244.000000
2851 12373 1 0.16500 119244.000000
2851 13175 1 0.16500 119244.000000
2852 12373 1 0.16500 119244.000000
2852 13107 1 0.16500 119244.000000
2853 12373 1 0.16500 119244.000000
2853 14541 1 0.16500 119244.000000
2854 12374 1 0.16500 119244.000000
2854 16492 1 0.16500 119244.000000
2855 12374 1 0.16500 119244.000000
2855 14242 1 0.16500 119244.000000
2856 12374 1 0.16500 119244.000000
2856 14544 1 0.16500 119244.000000
2857 12375 1 0.16500 119244.000000
2857 12623 1 0.16500 119244.000000
2858 12376 1 0.16500 119244.000000
2858 14079 1 0.16500 119244.000000
2859 12376 1 0.16500 119244.000000
2859 13839 1 0.16500 119244.000000
2860 12376 1 0.16500 119244.000000
2860 15849 1 0.16500 119244.000000
2861 14079 1 0.16500 119244.000000
2861 15727 1 0.16500 119244.000000
2862 12377 1 0.16500 119244.000000
2862 14041 1 0.16500 119244.000000
2863 12377 1 0.16500 119244.000000
2863 16957 1 0.16500 119244.000000
2864 12378 1 0.16500 119244.000000
2864 12911 1 0.16500 119244.000000
2865 12378 1 0.16500 119244.000000
2865 12998 1 0.16500 119244.000000
2866 12998 1 0.16500 119244.000000
2866 16058 1 0.16500 119244.000000
2867 12379 1 0.16500 119244.000000
2867 15742 1 0.16500 119244.000000
2868 12379 1 0.16500 119244.000000
2868 16871 1 0.16500 119244.000000
2869 12379 1 0.16500 119244.000000
2869 14817 1 0.16500 119244.000000
2870 12379 1 0.16500 119244.000000
2870 13822 1 0.16500 119244.000000
2871 12380 1 0.16500 119244.000000
2871 16327 1 0.16500 119244.000000
2872 12380 1 0.16500 119244.000000
2872 13233 1 0.16500 119244.000000
2873 12380 1 0.16500 119244.000000
2873 14652 1 0.16500 119244.000000
2874 12381 1 0.16500 119244.000000
2874 14565 1 0.16500 119244.000000
2875 12381 1 0.16500 119244.000000
2875 14044 1 0.16500 119244.000000
2876 12381 1 0.16500 119244.000000
2876 14705 1 0.16500 119244.000000
2877 12382 1 0.16500 119244.000000
2877 14218 1 0.16500 119244.000000
2878 12382 1 0.16500 119244.000000
2878 12453 1 0.16500 119244.000000
2879 12382 1 0.16500 119244.000000
2879 12882 1 0.16500 119244.000000
2880 12383 1 0.16500 119244.000000
2880 12484 1 0.16500 119244.000000
2881 12383 1 0.16500 119244.000000
2881 14805 1 0.16500 119244.000000
2882 12383 1 0.16500 119244.000000
2882 13280 1 0.16500 119244.000000
2883 12383 1 0.16500 119244.000000
2883 13053 1 0.16500 119244.000000
2884 12384 1 0.16500 119244.000000
2884 16196 1 0.16500 119244.000000
2885 12384 1 0.16500 119244.000000
2885 13870 1 0.16500 119244.000000
2886 12385 1 0.16500 119244.000000
2886 16121 1 0.16500 119244.000000
2887 12385 1 0.16500 119244.000000
2887 17150 1 0.16500 119244.000000
2888 12385 1 0.16500 119244.000000
2888 14332 1 0.16500 119244.000000
2889 12386 1 0.16500 119244.000000
2889 14981 1 0.16500 119244.000000
2890 12386 1 0.16500 119244.000000
2890 15502 1 0.16500 119244.000000
2891 12386 1 0.16500 119244.000000
2891 15203 1 0.16500 119244.000000
2892 12387 1 0.16500 119244.000000
2892 13570 1 0.16500 119244.000000
2893 12387 1 0.16500 119244.000000
2893 16696 1 0.16500 119244.000000
2894 12694 1 0.16500 119244.000000
2894 15042 1 0.16500 119244.000000
2895 12387 1 0.16500 119244.000000
2895 15042 1 0.16500 119244.000000
2896 12388 1 0.16500 119244.000000
2896 13446 1 0.16500 119244.000000
2897 12388 1 0.16500 119244.000000
2897 13484 1 0.16500 119244.000000
2898 12388 1 0.16500 119244.000000
2898 15458 1 0.16500 119244.000000
2899 12388 1 0.16500 119244.000000
2899 14188 1 0.16500 119244.000000
2900 12389 1 0.16500 119244.000000
2900 15525 1 0.16500 119244.000000
2901 12389 1 0.16500 119244.000000
2901 13890 1 0.16500 119244.000000
2902 12389 1 0.16500 119244.000000
2902 15335 1 0.16500 119244.000000
2903 12390 1 0.16500 119244.000000
2903 13399 1 0.16500 119244.000000
2904 12390 1 0.16500 119244.000000
2904 16655 1 0.16500 119244.000000
2905 12390 1 0.16500 119244.000000
2905 16193 1 0.16500 119244.000000
2906 12391 1 0.16500 119244.000000
2906 14176 1 0.16500 119244.000000
2907 13776 1 0.16500 119244.000000
2907 16716 1 0.16500 119244.000000
2908 12391 1 0.16500 119244.000000
2908 16716 1 0.16500 119244.000000
2909 12392 1 0.16500 119244.000000
2909 15609 1 0.16500 119244.000000
2910 12392 1 0.16500 119244.000000
2910 14829 1 0.16500 119244.000000
2911 12392 1 0.16500 119244.000000
2911 14843 1 0.16500 119244.000000
2912 12393 1 0.16500 119244.000000
2912 15563 1 0.16500 119244.000000
2913 12393 1 0.16500 119244.000000
2913 15409 1 0.16500 119244.000000
2914 12393 1 0.16500 119244.000000
2914 16916 1 0.16500 119244.000000
2915 12394 1 0.16500 119244.000000
2915 16707 1 0.16500 119244.000000
2916 12394 1 0.16500 119244.000000
2916 16205 1 0.16500 119244.000000
2917 12394 1 0.16500 119244.000000
2917 12902 1 0.16500 119244.000000
2918 12395 1 0.16500 119244.000000
2918 15544 1 0.16500 119244.000000
2919 12395 1 0.16500 119244.000000
2919 12525 1 0.16500 119244.000000
2920 12395 1 0.16500 119244.000000
2920 17152 1 0.16500 119244.000000
2921 12396 1 0.16500 119244.000000
2921 16772 1 0.16500 119244.000000
2922 12396 1 0.16500 119244.000000
2922 15113 1 0.16500 119244.000000
2923 12398 1 0.16500 119244.000000
2923 17181 1 0.16500 119244.000000
2924 12398 1 0.16500 119244.000000
2924 16160 1 0.16500 119244.000000
2925 12398 1 0.16500 119244.000000
2925 16968 1 0.16500 119244.000000
2926 12398 1 0.16500 119244.000000
2926 16624 1 0.16500 119244.000000
2927 12399 1 0.16500 119244.000000
2927 16353 1 0.16500 119244.000000
2928 12399 1 0.16500 119244.000000
2928 16935 1 0.16500 119244.000000
2929 12399 1 0.16500 119244.000000
2929 16731 1 0.16500 119244.000000
2930 12399 1 0.16500 119244.000000
2930 16103 1 0.16500 119244.000000
2931 12400 1 0.16500 119244.000000
2931 14537 1 0.16500 119244.000000
2932 12400 1 0.16500 119244.000000
2932 13313 1 0.16500 119244.000000
2933 12400 1 0.16500 119244.000000
2933 14042 1 0.16500 119244.000000
2934 12401 1 0.16500 119244.000000
2934 17000 1 0.16500 119244.000000
2935 12401 1 0.16500 119244.000000
2935 12457 1 0.16500 119244.000000
2936 12401 1 0.16500 119244.000000
2936 14570 1 0.16500 119244.000000
2937 12402 1 0.16500 119244.000000
2937 13097 1 0.16500 119244.000000
2938 12402 1 0.16500 119244.000000
2938 15506 1 0.16500 119244.000000
2939 12402 1 0.16500 119244.000000
2939 15481 1 0.16500 119244.000000
2940 12403 1 0.16500 119244.000000
2940 17008 1 0.16500 119244.000000
2941 12403 1 0.16500 119244.000000
2941 12743 1 0.16500 119244.000000
2942 11871 1 0.16500 119244.000000
2942 12403 1 0.16500 119244.000000
2943 12743 1 0.16500 119244.000000
2943 14545 1 0.16500 119244.000000
2944 12404 1 0.16500 119244.000000
2944 14323 1 0.16500 119244.000000
2945 12404 1 0.16500 119244.000000
2945 15255 1 0.16500 119244.000000
2946 12404 1 0.16500 119244.000000
2946 16631 1 0.16500 119244.000000
2947 12405 1 0.16500 119244.000000
2947 16076 1 0.16500 119244.000000
2948 12405 1 0.16500 119244.000000
2948 13691 1 0.16500 119244.000000
2949 12405 1 0.16500 119244.000000
2949 16251 1 0.16500 119244.000000
2950 12405 1 0.16500 119244.000000
2950 16892 1 0.16500 119244.000000
2951 16969 1 0.16500 119244.000000
2951 17063 1 0.16500 119244.000000
2952 16969 1 0.16500 119244.000000
2952 17536 1 0.16500 119244.000000
2953 12406 1 0.16500 119244.000000
2953 16969 1 0.16500 119244.000000
2954 14700 1 0.16500 119244.000000
2954 16969 1 0.16500 119244.000000
2955 12407 1 0.16500 119244.000000
2955 15470 1 0.16500 119244.000000
2956 12407 1 0.16500 119244.000000
2956 16857 1 0.16500 119244.000000
2957 12407 1 0.16500 119244.000000
2957 14291 1 0.16500 119244.000000
2958 12408 1 0.16500 119244.000000
2958 15723 1 0.16500 119244.000000
2959 12408 1 0.16500 119244.000000
2959 16135 1 0.16500 119244.000000
2960 12408 1 0.16500 119244.000000
2960 15073 1 0.16500 119244.000000
2961 12408 1 0.16500 119244.000000
2961 16458 1 0.16500 119244.000000
2962 12409 1 0.16500 119244.000000
2962 13618 1 0.16500 119244.000000
2963 12409 1 0.16500 119244.000000
2963 16793 1 0.16500 119244.000000
2964 12409 1 0.16500 119244.000000
2964 13491 1 0.16500 119244.000000
2965 12409 1 0.16500 119244.000000
2965 16054 1 0.16500 119244.000000
2966 12410 1 0.16500 119244.000000
2966 14082 1 0.16500 119244.000000
2967 12410 1 0.16500 119244.000000
2967 13531 1 0.16500 119244.000000
2968 12410 1 0.16500 119244.000000
2968 14999 1 0.16500 119244.000000
2969 12410 1 0.16500 119244.000000
2969 16371 1 0.16500 119244.000000
2970 12411 1 0.16500 119244.000000
2970 16276 1 0.16500 119244.000000
2971 12411 1 0.16500 119244.000000
2971 12975 1 0.16500 119244.000000
2972 12653 1 0.16500 119244.000000
2972 12975 1 0.16500 119244.000000
2973 12411 1 0.16500 119244.000000
2973 14446 1 0.16500 119244.000000
2974 12412 1 0.16500 119244.000000
2974 12666 1 0.16500 119244.000000
2975 12412 1 0.16500 119244.000000
2975 13663 1 0.16500 119244.000000
2976 12412 1 0.16500 119244.000000
2976 14062 1 0.16500 119244.000000
2977 12412 1 0.16500 119244.000000
2977 14841 1 0.16500 119244.000000
2978 12413 1 0.16500 119244.000000
2978 14903 1 0.16500 119244.000000
2979 12413 1 0.16500 119244.000000
2979 13417 1 0.16500 119244.000000
2980 12413 1 0.16500 119244.000000
2980 17038 1 0.16500 119244.000000
2981 12413 1 0.16500 119244.000000
2981 16973 1 0.16500 119244.000000
2982 12414 1 0.16500 119244.000000
2982 14232 1 0.16500 119244.000000
2983 12414 1 0.16500 119244.000000
2983 13452 1 0.16500 119244.000000
2984 12414 1 0.16500 119244.000000
2984 13712 1 0.16500 119244.000000
2985 12414 1 0.16500 119244.000000
2985 13101 1 0.16500 119244.000000
2986 12415 1 0.16500 119244.000000
2986 17716 1 0.16500 119244.000000
2987 12415 1 0.16500 119244.000000
2987 15500 1 0.16500 119244.000000
2988 12415 1 0.16500 119244.000000
2988 15230 1 0.16500 119244.000000
2989 12302 1 0.16500 119244.000000
2989 17067 1 0.16500 119244.000000
2990 12302 1 0.16500 119244.000000
2990 17809 1 0.16500 119244.000000
2991 15003 1 0.16500 119244.000000
2991 17323 1 0.16500 119244.000000
2992 15662 1 0.16500 119244.000000
2992 16253 1 0.16500 119244.000000
2993 12696 1 0.16500 119244.000000
2993 16253 1 0.16500 119244.000000
2994 13103 1 0.16500 119244.000000
2994 16253 1 0.16500 119244.000000
2995 12416 1 0.16500 119244.000000
2995 16253 1 0.16500 119244.000000
2996 12417 1 0.16500 119244.000000
2996 15893 1 0.16500 119244.000000
2997 12417 1 0.16500 119244.000000
2997 13080 1 0.16500 119244.000000
2998 12418 1 0.16500 119244.000000
2998 15412 1 0.16500 119244.000000
2999 12418 1 0.16500 119244.000000
2999 17074 1 0.16500 119244.000000
3000 12418 1 0.16500 119244.000000
3000 15658 1 0.16500 119244.000000
3001 12418 1 0.16500 119244.000000
3001 12970 1 0.16500 119244.000000
3002 12419 1 0.16500 119244.000000
3002 12589 1 0.16500 119244.000000
3003 12419 1 0.16500 119244.000000
3003 15261 1 0.16500 119244.000000
3004 12420 1 0.16500 119244.000000
3004 14233 1 0.16500 119244.000000
3005 12420 1 0.16500 119244.000000
3005 13350 1 0.16500 119244.000000
3006 12420 1 0.16500 119244.000000
3006 14608 1 0.16500 119244.000000
3007 12421 1 0.16500 119244.000000
3007 16780 1 0.16500 119244.000000
3008 14090 1 0.16500 119244.000000
3008 14279 1 0.16500 119244.000000
3009 12421 1 0.16500 119244.000000
3009 14888 1 0.16500 119244.000000
3010 12421 1 0.16500 119244.000000
3010 14279 1 0.16500 119244.000000
3011 12423 1 0.16500 119244.000000
3011 17183 1 0.16500 119244.000000
3012 12423 1 0.16500 119244.000000
3012 13735 1 0.16500 119244.000000
3013 12423 1 0.16500 119244.000000
3013 17161 1 0.16500 119244.000000
3014 12423 1 0.16500 119244.000000
3014 16463 1 0.16500 119244.000000
3015 12424 1 0.16500 119244.000000
3015 13002 1 0.16500 119244.000000
3016 12424 1 0.16500 119244.000000
3016 17101 1 0.16500 119244.000000
3017 12424 1 0.16500 119244.000000
3017 14750 1 0.16500 119244.000000
3018 12425 1 0.16500 119244.000000
3018 14833 1 0.16500 119244.000000
3019 12425 1 0.16500 119244.000000
3019 15420 1 0.16500 119244.000000
3020 12425 1 0.16500 119244.000000
3020 14638 1 0.16500 119244.000000
3021 12425 1 0.16500 119244.000000
3021 16620 1 0.16500 119244.000000
3022 12426 1 0.16500 119244.000000
3022 14529 1 0.16500 119244.000000
3023 12426 1 0.16500 119244.000000
3023 12546 1 0.16500 119244.000000
3024 12426 1 0.16500 119244.000000
3024 15808 1 0.16500 119244.000000
3025 12427 1 0.16500 119244.000000
3025 14300 1 0.16500 119244.000000
3026 12427 1 0.16500 119244.000000
3026 12736 1 0.16500 119244.000000
3027 12427 1 0.16500 119244.000000
3027 16976 1 0.16500 119244.000000
3028 12427 1 0.16500 119244.000000
3028 14292 1 0.16500 119244.000000
3029 12428 1 0.16500 119244.000000
3029 16368 1 0.16500 119244.000000
3030 12428 1 0.16500 119244.000000
3030 16086 1 0.16500 119244.000000
3031 12428 1 0.16500 119244.000000
3031 12901 1 0.16500 119244.000000
3032 12428 1 0.16500 119244.000000
3032 12616 1 0.16500 119244.000000
3033 12429 1 0.16500 119244.000000
3033 16550 1 0.16500 119244.000000
3034 12429 1 0.16500 119244.000000
3034 13165 1 0.16500 119244.000000
3035 12429 1 0.16500 119244.000000
3035 14054 1 0.16500 119244.000000
3036 12430 1 0.16500 119244.000000
3036 16119 1 0.16500 119244.000000
3037 12430 1 0.16500 119244.000000
3037 13195 1 0.16500 119244.000000
3038 12430 1 0.16500 119244.000000
3038 12527 1 0.16500 119244.000000
3039 12431 1 0.16500 119244.000000
3039 17857 1 0.16500 119244.000000
3040 12431 1 0.16500 119244.000000
3040 15362 1 0.16500 119244.000000
3041 12431 1 0.16500 119244.000000
3041 16375 1 0.16500 119244.000000
3042 12432 1 0.16500 119244.000000
3042 14996 1 0.16500 119244.000000
3043 12433 1 0.16500 119244.000000
3043 16420 1 0.16500 119244.000000
3044 12433 1 0.16500 119244.000000
3044 15587 1 0.16500 119244.000000
3045 12433 1 0.16500 119244.000000
3045 13297 1 0.16500 119244.000000
3046 15749 1 0.16500 119244.000000
3046 16420 1 0.16500 119244.000000
3047 12434 1 0.16500 119244.000000
3047 17094 1 0.16500 119244.000000
3048 12434 1 0.16500 119244.000000
3048 17134 1 0.16500 119244.000000
3049 12435 1 0.16500 119244.000000
3049 14668 1 0.16500 119244.000000
3050 12435 1 0.16500 119244.000000
3050 16282 1 0.16500 119244.000000
3051 12435 1 0.16500 119244.000000
3051 13360 1 0.16500 119244.000000
3052 12435 1 0.16500 119244.000000
3052 16844 1 0.16500 119244.000000
3053 12436 1 0.16500 119244.000000
3053 16131 1 0.16500 119244.000000
3054 11647 1 0.16500 119244.000000
3054 12436 1 0.16500 119244.000000
3055 12436 1 0.16500 119244.000000
3055 15596 1 0.16500 119244.000000
3056 12039 1 0.16500 119244.000000
3056 13243 1 0.16500 119244.000000
3057 11891 1 0.16500 119244.000000
3057 15674 1 0.16500 119244.000000
3058 12438 1 0.16500 119244.000000
3058 14715 1 0.16500 119244.000000
3059 12438 1 0.16500 119244.000000
3059 16676 1 0.16500 119244.000000
3060 12438 1 0.16500 119244.000000
3060 16385 1 0.16500 119244.000000
3061 12439 1 0.16500 119244.000000
3061 13626 1 0.16500 119244.000000
3062 12439 1 0.16500 119244.000000
3062 16997 1 0.16500 119244.000000
3063 12440 1 0.16500 119244.000000
3063 12670 1 0.16500 119244.000000
3064 12440 1 0.16500 119244.000000
3064 14263 1 0.16500 119244.000000
3065 12440 1 0.16500 119244.000000
3065 14092 1 0.16500 119244.000000
3066 12440 1 0.16500 119244.000000
3066 16887 1 0.16500 119244.000000
3067 12441 1 0.16500 119244.000000
3067 14609 1 0.16500 119244.000000
3068 12441 1 0.16500 119244.000000
3068 15083 1 0.16500 119244.000000
3069 12441 1 0.16500 119244.000000
3069 17152 1 0.16500 119244.000000
3070 12442 1 0.16500 119244.000000
3070 14919 1 0.16500 119244.000000
3071 12442 1 0.16500 119244.000000
3071 17845 1 0.16500 119244.000000
3072 12442 1 0.16500 119244.000000
3072 15507 1 0.16500 119244.000000
3073 12442 1 0.16500 119244.000000
3073 16957 1 0.16500 119244.000000
3074 12443 1 0.16500 119244.000000
3074 13330 1 0.16500 119244.000000
3075 12443 1 0.16500 119244.000000
3075 16476 1 0.16500 119244.000000
3076 12443 1 0.16500 119244.000000
3076 14463 1 0.16500 119244.000000
3077 12444 1 0.16500 119244.000000
3077 13871 1 0.16500 119244.000000
3078 12444 1 0.16500 119244.000000
3078 16727 1 0.16500 119244.000000
3079 12444 1 0.16500 119244.000000
3079 16055 1 0.16500 119244.000000
3080 12445 1 0.16500 119244.000000
3080 16565 1 0.16500 119244.000000
3081 12445 1 0.16500 119244.000000
3081 17039 1 0.16500 119244.000000
3082 12446 1 0.16500 119244.000000
3082 16741 1 0.16500 119244.000000
3083 12446 1 0.16500 119244.000000
3083 16847 1 0.16500 119244.000000
3084 13883 1 0.16500 119244.000000
3084 15261 1 0.16500 119244.000000
3085 12447 1 0.16500 119244.000000
3085 16559 1 0.16500 119244.000000
3086 12447 1 0.16500 119244.000000
3086 13883 1 0.16500 119244.000000
3087 12448 1 0.16500 119244.000000
3087 14017 1 0.16500 119244.000000
3088 12448 1 0.16500 119244.000000
3088 12840 1 0.16500 119244.000000
3089 12448 1 0.16500 119244.000000
3089 15114 1 0.16500 119244.000000
3090 12449 1 0.16500 119244.000000
3090 13527 1 0.16500 119244.000000
3091 12449 1 0.16500 119244.000000
3091 13276 1 0.16500 119244.000000
3092 12449 1 0.16500 119244.000000
3092 14530 1 0.16500 119244.000000
3093 12449 1 0.16500 119244.000000
3093 12492 1 0.16500 119244.000000
3094 12450 1 0.16500 119244.000000
3094 15170 1 0.16500 119244.000000
3095 12450 1 0.16500 119244.000000
3095 13106 1 0.16500 119244.000000
3096 12450 1 0.16500 119244.000000
3096 15279 1 0.16500 119244.000000
3097 12451 1 0.16500 119244.000000
3097 14085 1 0.16500 119244.000000
3098 12451 1 0.16500 119244.000000
3098 14181 1 0.16500 119244.000000
3099 12451 1 0.16500 119244.000000
3099 16324 1 0.16500 119244.000000
3100 12452 1 0.16500 119244.000000
3100 16601 1 0.16500 119244.000000
3101 12452 1 0.16500 119244.000000
3101 14893 1 0.16500 119244.000000
3102 12453 1 0.16500 119244.000000
3102 14914 1 0.16500 119244.000000
3103 12453 1 0.16500 119244.000000
3103 13279 1 0.16500 119244.000000
3104 15174 1 0.16500 119244.000000
3104 17329 1 0.16500 119244.000000
3105 15889 1 0.16500 119244.000000
3105 17329 1 0.16500 119244.000000
3106 13994 1 0.16500 119244.000000
3106 17329 1 0.16500 119244.000000
3107 15867 1 0.16500 119244.000000
3107 16785 1 0.16500 119244.000000
3108 12807 1 0.16500 119244.000000
3108 15867 1 0.16500 119244.000000
3109 12454 1 0.16500 119244.000000
3109 17335 1 0.16500 119244.000000
3110 12455 1 0.16500 119244.000000
3110 16939 1 0.16500 119244.000000
3111 12455 1 0.16500 119244.000000
3111 13839 1 0.16500 119244.000000
3112 12455 1 0.16500 119244.000000
3112 14656 1 0.16500 119244.000000
3113 12456 1 0.16500 119244.000000
3113 14563 1 0.16500 119244.000000
3114 12456 1 0.16500 119244.000000
3114 17070 1 0.16500 119244.000000
3115 12456 1 0.16500 119244.000000
3115 13212 1 0.16500 119244.000000
3116 12456 1 0.16500 119244.000000
3116 16989 1 0.16500 119244.000000
3117 12457 1 0.16500 119244.000000
3117 13526 1 0.16500 119244.000000
3118 12457 1 0.16500 119244.000000
3118 14566 1 0.16500 119244.000000
3119 12458 1 0.16500 119244.000000
3119 17737 1 0.16500 119244.000000
3120 12458 1 0.16500 119244.000000
3120 15274 1 0.16500 119244.000000
3121 12458 1 0.16500 119244.000000
3121 15869 1 0.16500 119244.000000
3122 12459 1 0.16500 119244.000000
3122 15246 1 0.16500 119244.000000
3123 12459 1 0.16500 119244.000000
3123 15395 1 0.16500 119244.000000
3124 12459 1 0.16500 119244.000000
3124 15782 1 0.16500 119244.000000
3125 12459 1 0.16500 119244.000000
3125 15888 1 0.16500 119244.000000
3126 12460 1 0.16500 119244.000000
3126 15008 1 0.16500 119244.000000
3127 12460 1 0.16500 119244.000000
3127 16168 1 0.16500 119244.000000
3128 12460 1 0.16500 119244.000000
3128 17002 1 0.16500 119244.000000
3129 12460 1 0.16500 119244.000000
3129 17086 1 0.16500 119244.000000
3130 12461 1 0.16500 119244.000000
3130 14922 1 0.16500 119244.000000
3131 12461 1 0.16500 119244.000000
3131 13939 1 0.16500 119244.000000
3132 12461 1 0.16500 119244.000000
3132 12546 1 0.16500 119244.000000
3133 14455 1 0.16500 119244.000000
3133 16172 1 0.16500 119244.000000
3134 12462 1 0.16500 119244.000000
3134 14455 1 0.16500 119244.000000
3135 14455 1 0.16500 119244.000000
3135 15610 1 0.16500 119244.000000
3136 12462 1 0.16500 119244.000000
3136 16072 1 0.16500 119244.000000
3137 12463 1 0.16500 119244.000000
3137 16491 1 0.16500 119244.000000
3138 12463 1 0.16500 119244.000000
3138 15648 1 0.16500 119244.000000
3139 12463 1 0.16500 119244.000000
3139 13859 1 0.16500 119244.000000
3140 12464 1 0.16500 119244.000000
3140 16708 1 0.16500 119244.000000
3141 12464 1 0.16500 119244.000000
3141 15842 1 0.16500 119244.000000
3142 12464 1 0.16500 119244.000000
3142 13440 1 0.16500 119244.000000
3143 12464 1 0.16500 119244.000000
3143 14307 1 0.16500 119244.000000
3144 12465 1 0.16500 119244.000000
3144 14465 1 0.16500 119244.000000
3145 12465 1 0.16500 119244.000000
3145 15273 1 0.16500 119244.000000
3146 12465 1 0.16500 119244.000000
3146 13708 1 0.16500 119244.000000
3147 16162 1 0.16500 119244.000000
3147 17332 1 0.16500 119244.000000
3148 12466 1 0.16500 119244.000000
3148 17560 1 0.16500 119244.000000
3149 12466 1 0.16500 119244.000000
3149 16384 1 0.16500 119244.000000
3150 12467 1 0.16500 119244.000000
3150 14291 1 0.16500 119244.000000
3151 12467 1 0.16500 119244.000000
3151 13699 1 0.16500 119244.000000
3152 12467 1 0.16500 119244.000000
3152 12516 1 0.16500 119244.000000
3153 12467 1 0.16500 119244.000000
3153 13354 1 0.16500 119244.000000
3154 12468 1 0.16500 119244.000000
3154 16136 1 0.16500 119244.000000
3155 12468 1 0.16500 119244.000000
3155 16665 1 0.16500 119244.000000
3156 12468 1 0.16500 119244.000000
3156 13616 1 0.16500 119244.000000
3157 12469 1 0.16500 119244.000000
3157 14253 1 0.16500 119244.000000
3158 12469 1 0.16500 119244.000000
3158 16328 1 0.16500 119244.000000
3159 12469 1 0.16500 119244.000000
3159 16681 1 0.16500 119244.000000
3160 12469 1 0.16500 119244.000000
3160 15527 1 0.16500 119244.000000
3161 17149 1 0.16500 119244.000000
3161 17335 1 0.16500 119244.000000
3162 12470 1 0.16500 119244.000000
3162 16940 1 0.16500 119244.000000
3163 12470 1 0.16500 119244.000000
3163 15476 1 0.16500 119244.000000
3164 12470 1 0.16500 119244.000000
3164 12817 1 0.16500 119244.000000
3165 12471 1 0.16500 119244.000000
3165 14207 1 0.16500 119244.000000
3166 12471 1 0.16500 119244.000000
3166 14174 1 0.16500 119244.000000
3167 12471 1 0.16500 119244.000000
3167 12509 1 0.16500 119244.000000
3168 12471 1 0.16500 119244.000000
3168 12765 1 0.16500 119244.000000
3169 12472 1 0.16500 119244.000000
3169 15201 1 0.16500 119244.000000
3170 12472 1 0.16500 119244.000000
3170 15426 1 0.16500 119244.000000
3171 12472 1 0.16500 119244.000000
3171 13309 1 0.16500 119244.000000
3172 12472 1 0.16500 119244.000000
3172 13319 1 0.16500 119244.000000
3173 12473 1 0.16500 119244.000000
3173 14041 1 0.16500 119244.000000
3174 12473 1 0.16500 119244.000000
3174 14713 1 0.16500 119244.000000
3175 12473 1 0.16500 119244.000000
3175 13298 1 0.16500 119244.000000
3176 12473 1 0.16500 119244.000000
3176 13228 1 0.16500 119244.000000
3177 12474 1 0.16500 119244.000000
3177 13862 1 0.16500 119244.000000
3178 12474 1 0.16500 119244.000000
3178 15369 1 0.16500 119244.000000
3179 12474 1 0.16500 119244.000000
3179 14247 1 0.16500 119244.000000
3180 12474 1 0.16500 119244.000000
3180 13094 1 0.16500 119244.000000
3181 12475 1 0.16500 119244.000000
3181 13738 1 0.16500 119244.000000
3182 12475 1 0.16500 119244.000000
3182 13942 1 0.16500 119244.000000
3183 12475 1 0.16500 119244.000000
3183 15931 1 0.16500 119244.000000
3184 15084 1 0.16500 119244.000000
3184 17200 1 0.16500 119244.000000
3185 12476 1 0.16500 119244.000000
3185 16837 1 0.16500 119244.000000
3186 12476 1 0.16500 119244.000000
3186 13249 1 0.16500 119244.000000
3187 12476 1 0.16500 119244.000000
3187 14846 1 0.16500 119244.000000
3188 12477 1 0.16500 119244.000000
3188 15114 1 0.16500 119244.000000
3189 12477 1 0.16500 119244.000000
3189 17584 1 0.16500 119244.000000
3190 12478 1 0.16500 119244.000000
3190 14722 1 0.16500 119244.000000
3191 12478 1 0.16500 119244.000000
3191 14158 1 0.16500 119244.000000
3192 12478 1 0.16500 119244.000000
3192 16441 1 0.16500 119244.000000
3193 12478 1 0.16500 119244.000000
3193 12742 1 0.16500 119244.000000
3194 12479 1 0.16500 119244.000000
3194 16729 1 0.16500 119244.000000
3195 12479 1 0.16500 119244.000000
3195 17968 1 0.16500 119244.000000
3196 12659 1 0.16500 119244.000000
3196 16729 1 0.16500 119244.000000
3197 12479 1 0.16500 119244.000000
3197 14377 1 0.16500 119244.000000
3198 12480 1 0.16500 119244.000000
3198 16982 1 0.16500 119244.000000
3199 12480 1 0.16500 119244.000000
3199 13727 1 0.16500 119244.000000
3200 12480 1 0.16500 119244.000000
3200 13920 1 0.16500 119244.000000
3201 12480 1 0.16500 119244.000000
3201 17193 1 0.16500 119244.000000
3202 12481 1 0.16500 119244.000000
3202 14210 1 0.16500 119244.000000
3203 12481 1 0.16500 119244.000000
3203 13859 1 0.16500 119244.000000
3204 12481 1 0.16500 119244.000000
3204 15410 1 0.16500 119244.000000
3205 12481 1 0.16500 119244.000000
3205 14793 1 0.16500 119244.000000
3206 12482 1 0.16500 119244.000000
3206 16478 1 0.16500 119244.000000
3207 12482 1 0.16500 119244.000000
3207 16549 1 0.16500 119244.000000
3208 12482 1 0.16500 119244.000000
3208 14521 1 0.16500 119244.000000
3209 12483 1 0.16500 119244.000000
3209 15619 1 0.16500 119244.000000
3210 12483 1 0.16500 119244.000000
3210 14631 1 0.16500 119244.000000
3211 12483 1 0.16500 119244.000000
3211 16323 1 0.16500 119244.000000
3212 12483 1 0.16500 119244.000000
3212 15636 1 0.16500 119244.000000
3213 12484 1 0.16500 119244.000000
3213 12539 1 0.16500 119244.000000
3214 12570 1 0.16500 119244.000000
3214 15402 1 0.16500 119244.000000
3215 12484 1 0.16500 119244.000000
3215 12570 1 0.16500 119244.000000
3216 12485 1 0.16500 119244.000000
3216 13362 1 0.16500 119244.000000
3217 12485 1 0.16500 119244.000000
3217 12498 1 0.16500 119244.000000
3218 12485 1 0.16500 119244.000000
3218 15026 1 0.16500 119244.000000
3219 12486 1 0.16500 119244.000000
3219 17389 1 0.16500 119244.000000
3220 12486 1 0.16500 119244.000000
3220 14895 1 0.16500 119244.000000
3221 12486 1 0.16500 119244.000000
3221 17944 1 0.16500 119244.000000
3222 12486 1 0.16500 119244.000000
3222 12498 1 0.16500 119244.000000
3223 17686 1 0.16500 119244.000000
3223 18029 1 0.16500 119244.000000
3224 16512 1 0.16500 119244.000000
3224 18029 1 0.16500 119244.000000
3225 12487 1 0.16500 119244.000000
3225 16835 1 0.16500 119244.000000
3226 12487 1 0.16500 119244.000000
3226 14534 1 0.16500 119244.000000
3227 12487 1 0.16500 119244.000000
3227 13551 1 0.16500 119244.000000
3228 12487 1 0.16500 119244.000000
3228 13914 1 0.16500 119244.000000
3229 12488 1 0.16500 119244.000000
3229 15969 1 0.16500 119244.000000
3230 12488 1 0.16500 119244.000000
3230 13951 1 0.16500 119244.000000
3231 12488 1 0.16500 119244.000000
3231 12893 1 0.16500 119244.000000
3232 12488 1 0.16500 119244.000000
3232 12772 1 0.16500 119244.000000
3233 12489 1 0.16500 119244.000000
3233 13363 1 0.16500 119244.000000
3234 11960 1 0.16500 119244.000000
3234 12784 1 0.16500 119244.000000
3235 11960 1 0.16500 119244.000000
3235 14284 1 0.16500 119244.000000
3236 12490 1 0.16500 119244.000000
3236 13469 1 0.16500 119244.000000
3237 12490 1 0.16500 119244.000000
3237 15641 1 0.16500 119244.000000
3238 12490 1 0.16500 119244.000000
3238 17197 1 0.16500 119244.000000
3239 12490 1 0.16500 119244.000000
3239 13556 1 0.16500 119244.000000
3240 12491 1 0.16500 119244.000000
3240 14275 1 0.16500 119244.000000
3241 12491 1 0.16500 119244.000000
3241 15513 1 0.16500 119244.000000
3242 12491 1 0.16500 119244.000000
3242 16533 1 0.16500 119244.000000
3243 12492 1 0.16500 119244.000000
3243 16079 1 0.16500 119244.000000
3244 12492 1 0.16500 119244.000000
3244 13827 1 0.16500 119244.000000
3245 12492 1 0.16500 119244.000000
3245 13194 1 0.16500 119244.000000
3246 12493 1 0.16500 119244.000000
3246 13319 1 0.16500 119244.000000
3247 12493 1 0.16500 119244.000000
3247 14017 1 0.16500 119244.000000
3248 12477 1 0.16500 119244.000000
3248 12493 1 0.16500 119244.000000
3249 12493 1 0.16500 119244.000000
3249 12703 1 0.16500 119244.000000
3250 12494 1 0.16500 119244.000000
3250 12685 1 0.16500 119244.000000
3251 12494 1 0.16500 119244.000000
3251 14666 1 0.16500 119244.000000
3252 12494 1 0.16500 119244.000000
3252 14220 1 0.16500 119244.000000
3253 12495 1 0.16500 119244.000000
3253 13290 1 0.16500 119244.000000
3254 12495 1 0.16500 119244.000000
3254 16274 1 0.16500 119244.000000
3255 12495 1 0.16500 119244.000000
3255 13372 1 0.16500 119244.000000
3256 12496 1 0.16500 119244.000000
3256 16797 1 0.16500 119244.000000
3257 12496 1 0.16500 119244.000000
3257 14639 1 0.16500 119244.000000
3258 12496 1 0.16500 119244.000000
3258 15999 1 0.16500 119244.000000
3259 12496 1 0.16500 119244.000000
3259 12612 1 0.16500 119244.000000
3260 12497 1 0.16500 119244.000000
3260 14179 1 0.16500 119244.000000
3261 12497 1 0.16500 119244.000000
3261 14083 1 0.16500 119244.000000
3262 12497 1 0.16500 119244.000000
3262 13951 1 0.16500 119244.000000
3263 12497 1 0.16500 119244.000000
3263 14297 1 0.16500 119244.000000
3264 12498 1 0.16500 119244.000000
3264 14582 1 0.16500 119244.000000
3265 12499 1 0.16500 119244.000000
3265 13440 1 0.16500 119244.000000
3266 12499 1 0.16500 119244.000000
3266 12881 1 0.16500 119244.000000
3267 12499 1 0.16500 119244.000000
3267 13308 1 0.16500 119244.000000
3268 12499 1 0.16500 119244.000000
3268 13783 1 0.16500 119244.000000
3269 12500 1 0.16500 119244.000000
3269 16109 1 0.16500 119244.000000
3270 12500 1 0.16500 119244.000000
3270 13999 1 0.16500 119244.000000
3271 12500 1 0.16500 119244.000000
3271 12870 1 0.16500 119244.000000
3272 12500 1 0.16500 119244.000000
3272 14907 1 0.16500 119244.000000
3273 12501 1 0.16500 119244.000000
3273 13727 1 0.16500 119244.000000
3274 12501 1 0.16500 119244.000000
3274 12621 1 0.16500 119244.000000
3275 12501 1 0.16500 119244.000000
3275 17165 1 0.16500 119244.000000
3276 12501 1 0.16500 119244.000000
3276 16237 1 0.16500 119244.000000
3277 12502 1 0.16500 119244.000000
3277 15965 1 0.16500 119244.000000
3278 12502 1 0.16500 119244.000000
3278 15410 1 0.16500 119244.000000
3279 12503 1 0.16500 119244.000000
3279 12702 1 0.16500 119244.000000
3280 12503 1 0.16500 119244.000000
3280 15874 1 0.16500 119244.000000
3281 12503 1 0.16500 119244.000000
3281 13914 1 0.16500 119244.000000
3282 12504 1 0.16500 119244.000000
3282 17083 1 0.16500 119244.000000
3283 12504 1 0.16500 119244.000000
3283 17177 1 0.16500 119244.000000
3284 12505 1 0.16500 119244.000000
3284 12781 1 0.16500 119244.000000
3285 12505 1 0.16500 119244.000000
3285 15334 1 0.16500 119244.000000
3286 12506 1 0.16500 119244.000000
3286 13504 1 0.16500 119244.000000
3287 12506 1 0.16500 119244.000000
3287 16285 1 0.16500 119244.000000
3288 12507 1 0.16500 119244.000000
3288 13956 1 0.16500 119244.000000
3289 12507 1 0.16500 119244.000000
3289 13720 1 0.16500 119244.000000
3290 12507 1 0.16500 119244.000000
3290 13563 1 0.16500 119244.000000
3291 13237 1 0.16500 119244.000000
3291 13857 1 0.16500 119244.000000
3292 12508 1 0.16500 119244.000000
3292 13834 1 0.16500 119244.000000
3293 12508 1 0.16500 119244.000000
3293 13237 1 0.16500 119244.000000
3294 12508 1 0.16500 119244.000000
3294 13695 1 0.16500 119244.000000
3295 12509 1 0.16500 119244.000000
3295 13881 1 0.16500 119244.000000
3296 12509 1 0.16500 119244.000000
3296 15396 1 0.16500 119244.000000
3297 12509 1 0.16500 119244.000000
3297 14372 1 0.16500 119244.000000
3298 13576 1 0.16500 119244.000000
3298 14189 1 0.16500 119244.000000
3299 12510 1 0.16500 119244.000000
3299 13033 1 0.16500 119244.000000
3300 12510 1 0.16500 119244.000000
3300 13576 1 0.16500 119244.000000
3301 12510 1 0.16500 119244.000000
3301 13180 1 0.16500 119244.000000
3302 12511 1 0.16500 119244.000000
3302 13552 1 0.16500 119244.000000
3303 12511 1 0.16500 119244.000000
3303 17380 1 0.16500 119244.000000
3304 12511 1 0.16500 119244.000000
3304 15905 1 0.16500 119244.000000
3305 12512 1 0.16500 119244.000000
3305 15859 1 0.16500 119244.000000
3306 12512 1 0.16500 119244.000000
3306 14658 1 0.16500 119244.000000
3307 12512 1 0.16500 119244.000000
3307 15577 1 0.16500 119244.000000
3308 12512 1 0.16500 119244.000000
3308 12729 1 0.16500 119244.000000
3309 12324 1 0.16500 119244.000000
3309 12513 1 0.16500 119244.000000
3310 12513 1 0.16500 119244.000000
3310 13051 1 0.16500 119244.000000
3311 12513 1 0.16500 119244.000000
3311 14065 1 0.16500 119244.000000
3312 12513 1 0.16500 119244.000000
3312 16745 1 0.16500 119244.000000
3313 12514 1 0.16500 119244.000000
3313 16418 1 0.16500 119244.000000
3314 12514 1 0.16500 119244.000000
3314 16555 1 0.16500 119244.000000
3315 12514 1 0.16500 119244.000000
3315 12646 1 0.16500 119244.000000
3316 12514 1 0.16500 119244.000000
3316 16746 1 0.16500 119244.000000
3317 12515 1 0.16500 119244.000000
3317 14753 1 0.16500 119244.000000
3318 12515 1 0.16500 119244.000000
3318 16449 1 0.16500 119244.000000
3319 12515 1 0.16500 119244.000000
3319 14851 1 0.16500 119244.000000
3320 12516 1 0.16500 119244.000000
3320 16099 1 0.16500 119244.000000
3321 12516 1 0.16500 119244.000000
3321 16732 1 0.16500 119244.000000
3322 12516 1 0.16500 119244.000000
3322 14025 1 0.16500 119244.000000
3323 12517 1 0.16500 119244.000000
3323 15179 1 0.16500 119244.000000
3324 12517 1 0.16500 119244.000000
3324 13460 1 0.16500 119244.000000
3325 12518 1 0.16500 119244.000000
3325 13747 1 0.16500 119244.000000
3326 12518 1 0.16500 119244.000000
3326 14798 1 0.16500 119244.000000
3327 12518 1 0.16500 119244.000000
3327 13916 1 0.16500 119244.000000
3328 13443 1 0.16500 119244.000000
3328 14798 1 0.16500 119244.000000
3329 12519 1 0.16500 119244.000000
3329 14044 1 0.16500 119244.000000
3330 12519 1 0.16500 119244.000000
3330 13740 1 0.16500 119244.000000
3331 12519 1 0.16500 119244.000000
3331 13156 1 0.16500 119244.000000
3332 12519 1 0.16500 119244.000000
3332 14881 1 0.16500 119244.000000
3333 12520 1 0.16500 119244.000000
3333 17671 1 0.16500 119244.000000
3334 12520 1 0.16500 119244.000000
3334 14449 1 0.16500 119244.000000
3335 12520 1 0.16500 119244.000000
3335 14411 1 0.16500 119244.000000
3336 12521 1 0.16500 119244.000000
3336 15911 1 0.16500 119244.000000
3337 12521 1 0.16500 119244.000000
3337 12978 1 0.16500 119244.000000
3338 16130 1 0.16500 119244.000000
3338 17338 1 0.16500 119244.000000
3339 16538 1 0.16500 119244.000000
3339 17338 1 0.16500 119244.000000
3340 12522 1 0.16500 119244.000000
3340 13986 1 0.16500 119244.000000
3341 12522 1 0.16500 119244.000000
3341 13574 1 0.16500 119244.000000
3342 12522 1 0.16500 119244.000000
3342 13684 1 0.16500 119244.000000
3343 12522 1 0.16500 119244.000000
3343 16353 1 0.16500 119244.000000
3344 12523 1 0.16500 119244.000000
3344 14160 1 0.16500 119244.000000
3345 12523 1 0.16500 119244.000000
3345 15472 1 0.16500 119244.000000
3346 12523 1 0.16500 119244.000000
3346 12907 1 0.16500 119244.000000
3347 12523 1 0.16500 119244.000000
3347 17923 1 0.16500 119244.000000
3348 12524 1 0.16500 119244.000000
3348 15191 1 0.16500 119244.000000
3349 12524 1 0.16500 119244.000000
3349 14922 1 0.16500 119244.000000
3350 12524 1 0.16500 119244.000000
3350 12869 1 0.16500 119244.000000
3351 14198 1 0.16500 119244.000000
3351 17341 1 0.16500 119244.000000
3352 15686 1 0.16500 119244.000000
3352 17341 1 0.16500 119244.000000
3353 17341 1 0.16500 119244.000000
3353 17977 1 0.16500 119244.000000
3354 12525 1 0.16500 119244.000000
3354 15040 1 0.16500 119244.000000
3355 12525 1 0.16500 119244.000000
3355 16742 1 0.16500 119244.000000
3356 12525 1 0.16500 119244.000000
3356 15083 1 0.16500 119244.000000
3357 14446 1 0.16500 119244.000000
3357 17189 1 0.16500 119244.000000
3358 12526 1 0.16500 119244.000000
3358 13386 1 0.16500 119244.000000
3359 12526 1 0.16500 119244.000000
3359 14446 1 0.16500 119244.000000
3360 12526 1 0.16500 119244.000000
3360 12750 1 0.16500 119244.000000
3361 12527 1 0.16500 119244.000000
3361 14977 1 0.16500 119244.000000
3362 12527 1 0.16500 119244.000000
3362 16878 1 0.16500 119244.000000
3363 12527 1 0.16500 119244.000000
3363 13365 1 0.16500 119244.000000
3364 12528 1 0.16500 119244.000000
3364 12784 1 0.16500 119244.000000
3365 12528 1 0.16500 119244.000000
3365 17380 1 0.16500 119244.000000
3366 13888 1 0.16500 119244.000000
3366 16981 1 0.16500 119244.000000
3367 12528 1 0.16500 119244.000000
3367 13888 1 0.16500 119244.000000
3368 12529 1 0.16500 119244.000000
3368 13508 1 0.16500 119244.000000
3369 12529 1 0.16500 119244.000000
3369 13520 1 0.16500 119244.000000
3370 12529 1 0.16500 119244.000000
3370 16286 1 0.16500 119244.000000
3371 13733 1 0.16500 119244.000000
3371 17344 1 0.16500 119244.000000
3372 12530 1 0.16500 119244.000000
3372 13889 1 0.16500 119244.000000
3373 12530 1 0.16500 119244.000000
3373 13498 1 0.16500 119244.000000
3374 12530 1 0.16500 119244.000000
3374 12549 1 0.16500 119244.000000
3375 12530 1 0.16500 119244.000000
3375 15882 1 0.16500 119244.000000
3376 12531 1 0.16500 119244.000000
3376 15029 1 0.16500 119244.000000
3377 12531 1 0.16500 119244.000000
3377 15845 1 0.16500 119244.000000
3378 12531 1 0.16500 119244.000000
3378 15800 1 0.16500 119244.000000
3379 13718 1 0.16500 119244.000000
3379 17347 1 0.16500 119244.000000
3380 15951 1 0.16500 119244.000000
3380 17347 1 0.16500 119244.000000
3381 12532 1 0.16500 119244.000000
3381 15220 1 0.16500 119244.000000
3382 12532 1 0.16500 119244.000000
3382 15096 1 0.16500 119244.000000
3383 12532 1 0.16500 119244.000000
3383 13046 1 0.16500 119244.000000
3384 12532 1 0.16500 119244.000000
3384 14417 1 0.16500 119244.000000
3385 12533 1 0.16500 119244.000000
3385 15422 1 0.16500 119244.000000
3386 12533 1 0.16500 119244.000000
3386 13103 1 0.16500 119244.000000
3387 12533 1 0.16500 119244.000000
3387 13818 1 0.16500 119244.000000
3388 12534 1 0.16500 119244.000000
3388 16444 1 0.16500 119244.000000
3389 12534 1 0.16500 119244.000000
3389 13430 1 0.16500 119244.000000
3390 12534 1 0.16500 119244.000000
3390 14833 1 0.16500 119244.000000
3391 12534 1 0.16500 119244.000000
3391 14031 1 0.16500 119244.000000
3392 12535 1 0.16500 119244.000000
3392 14659 1 0.16500 119244.000000
3393 12535 1 0.16500 119244.000000
3393 13205 1 0.16500 119244.000000
3394 12535 1 0.16500 119244.000000
3394 17112 1 0.16500 119244.000000
3395 12535 1 0.16500 119244.000000
3395 14003 1 0.16500 119244.000000
3396 12536 1 0.16500 119244.000000
3396 12812 1 0.16500 119244.000000
3397 12536 1 0.16500 119244.000000
3397 14581 1 0.16500 119244.000000
3398 12536 1 0.16500 119244.000000
3398 17066 1 0.16500 119244.000000
3399 12537 1 0.16500 119244.000000
3399 16587 1 0.16500 119244.000000
3400 12537 1 0.16500 119244.000000
3400 13814 1 0.16500 119244.000000
3401 12537 1 0.16500 119244.000000
3401 14246 1 0.16500 119244.000000
3402 12538 1 0.16500 119244.000000
3402 15226 1 0.16500 119244.000000
3403 12538 1 0.16500 119244.000000
3403 14104 1 0.16500 119244.000000
3404 12538 1 0.16500 119244.000000
3404 15753 1 0.16500 119244.000000
3405 12538 1 0.16500 119244.000000
3405 14584 1 0.16500 119244.000000
3406 12539 1 0.16500 119244.000000
3406 16756 1 0.16500 119244.000000
3407 12854 1 0.16500 119244.000000
3407 15343 1 0.16500 119244.000000
3408 12540 1 0.16500 119244.000000
3408 12854 1 0.16500 119244.000000
3409 12540 1 0.16500 119244.000000
3409 15712 1 0.16500 119244.000000
3410 12541 1 0.16500 119244.000000
3410 16816 1 0.16500 119244.000000
3411 12541 1 0.16500 119244.000000
3411 17007 1 0.16500 119244.000000
3412 12541 1 0.16500 119244.000000
3412 14868 1 0.16500 119244.000000
3413 12541 1 0.16500 119244.000000
3413 16902 1 0.16500 119244.000000
3414 12542 1 0.16500 119244.000000
3414 13369 1 0.16500 119244.000000
3415 13369 1 0.16500 119244.000000
3415 14456 1 0.16500 119244.000000
3416 12542 1 0.16500 119244.000000
3416 13171 1 0.16500 119244.000000
3417 15100 1 0.16500 119244.000000
3417 17350 1 0.16500 119244.000000
3418 16838 1 0.16500 119244.000000
3418 17350 1 0.16500 119244.000000
3419 17350 1 0.16500 119244.000000
3419 17530 1 0.16500 119244.000000
3420 12543 1 0.16500 119244.000000
3420 15060 1 0.16500 119244.000000
3421 12543 1 0.16500 119244.000000
3421 15539 1 0.16500 119244.000000
3422 12543 1 0.16500 119244.000000
3422 16134 1 0.16500 119244.000000
3423 12543 1 0.16500 119244.000000
3423 16175 1 0.16500 119244.000000
3424 12544 1 0.16500 119244.000000
3424 16117 1 0.16500 119244.000000
3425 12544 1 0.16500 119244.000000
3425 14156 1 0.16500 119244.000000
3426 12545 1 0.16500 119244.000000
3426 15971 1 0.16500 119244.000000
3427 12545 1 0.16500 119244.000000
3427 14382 1 0.16500 119244.000000
3428 12545 1 0.16500 119244.000000
3428 16523 1 0.16500 119244.000000
3429 12545 1 0.16500 119244.000000
3429 15093 1 0.16500 119244.000000
3430 15776 1 0.16500 119244.000000
3430 17353 1 0.16500 119244.000000
3431 14813 1 0.16500 119244.000000
3431 17353 1 0.16500 119244.000000
3432 12394 1 0.16500 119244.000000
3432 12546 1 0.16500 119244.000000
3433 12546 1 0.16500 119244.000000
3433 14448 1 0.16500 119244.000000
3434 12559 1 0.16500 119244.000000
3434 17326 1 0.16500 119244.000000
3435 12547 1 0.16500 119244.000000
3435 15125 1 0.16500 119244.000000
3436 12547 1 0.16500 119244.000000
3436 12590 1 0.16500 119244.000000
3437 12547 1 0.16500 119244.000000
3437 15328 1 0.16500 119244.000000
3438 12547 1 0.16500 119244.000000
3438 15056 1 0.16500 119244.000000
3439 12548 1 0.16500 119244.000000
3439 13205 1 0.16500 119244.000000
3440 12548 1 0.16500 119244.000000
3440 13262 1 0.16500 119244.000000
3441 12548 1 0.16500 119244.000000
3441 16979 1 0.16500 119244.000000
3442 12548 1 0.16500 119244.000000
3442 15949 1 0.16500 119244.000000
3443 12549 1 0.16500 119244.000000
3443 14756 1 0.16500 119244.000000
3444 12550 1 0.16500 119244.000000
3444 13345 1 0.16500 119244.000000
3445 12550 1 0.16500 119244.000000
3445 13780 1 0.16500 119244.000000
3446 12550 1 0.16500 119244.000000
3446 14050 1 0.16500 119244.000000
3447 12550 1 0.16500 119244.000000
3447 13845 1 0.16500 119244.000000
3448 12551 1 0.16500 119244.000000
3448 13221 1 0.16500 119244.000000
3449 12551 1 0.16500 119244.000000
3449 14951 1 0.16500 119244.000000
3450 12484 1 0.16500 119244.000000
3450 12551 1 0.16500 119244.000000
3451 12551 1 0.16500 119244.000000
3451 16164 1 0.16500 119244.000000
3452 12552 1 0.16500 119244.000000
3452 14976 1 0.16500 119244.000000
3453 12552 1 0.16500 119244.000000
3453 13575 1 0.16500 119244.000000
3454 12553 1 0.16500 119244.000000
3454 15105 1 0.16500 119244.000000
3455 12553 1 0.16500 119244.000000
3455 12587 1 0.16500 119244.000000
3456 12553 1 0.16500 119244.000000
3456 16236 1 0.16500 119244.000000
3457 12554 1 0.16500 119244.000000
3457 16740 1 0.16500 119244.000000
3458 15130 1 0.16500 119244.000000
3458 17120 1 0.16500 119244.000000
3459 12554 1 0.16500 119244.000000
3459 13172 1 0.16500 119244.000000
3460 12555 1 0.16500 119244.000000
3460 16124 1 0.16500 119244.000000
3461 12555 1 0.16500 119244.000000
3461 14635 1 0.16500 119244.000000
3462 12555 1 0.16500 119244.000000
3462 16350 1 0.16500 119244.000000
3463 12555 1 0.16500 119244.000000
3463 17986 1 0.16500 119244.000000
3464 11790 1 0.16500 119244.000000
3464 12556 1 0.16500 119244.000000
3465 12556 1 0.16500 119244.000000
3465 15181 1 0.16500 119244.000000
3466 12556 1 0.16500 119244.000000
3466 15582 1 0.16500 119244.000000
3467 12556 1 0.16500 119244.000000
3467 16513 1 0.16500 119244.000000
3468 12557 1 0.16500 119244.000000
3468 16430 1 0.16500 119244.000000
3469 12557 1 0.16500 119244.000000
3469 14439 1 0.16500 119244.000000
3470 12557 1 0.16500 119244.000000
3470 16602 1 0.16500 119244.000000
3471 12558 1 0.16500 119244.000000
3471 13900 1 0.16500 119244.000000
3472 12558 1 0.16500 119244.000000
3472 15381 1 0.16500 119244.000000
3473 12558 1 0.16500 119244.000000
3473 15373 1 0.16500 119244.000000
3474 12558 1 0.16500 119244.000000
3474 13702 1 0.16500 119244.000000
3475 12559 1 0.16500 119244.000000
3475 16094 1 0.16500 119244.000000
3476 12559 1 0.16500 119244.000000
3476 14697 1 0.16500 119244.000000
3477 12560 1 0.16500 119244.000000
3477 12642 1 0.16500 119244.000000
3478 12560 1 0.16500 119244.000000
3478 14540 1 0.16500 119244.000000
3479 12560 1 0.16500 119244.000000
3479 17572 1 0.16500 119244.000000
3480 12561 1 0.16500 119244.000000
3480 13705 1 0.16500 119244.000000
3481 12561 1 0.16500 119244.000000
3481 16439 1 0.16500 119244.000000
3482 12561 1 0.16500 119244.000000
3482 14559 1 0.16500 119244.000000
3483 12561 1 0.16500 119244.000000
3483 14256 1 0.16500 119244.000000
3484 12562 1 0.16500 119244.000000
3484 15336 1 0.16500 119244.000000
3485 12562 1 0.16500 119244.000000
3485 17188 1 0.16500 119244.000000
3486 12563 1 0.16500 119244.000000
3486 15928 1 0.16500 119244.000000
3487 12563 1 0.16500 119244.000000
3487 13700 1 0.16500 119244.000000
3488 12563 1 0.16500 119244.000000
3488 15236 1 0.16500 119244.000000
3489 12564 1 0.16500 119244.000000
3489 17013 1 0.16500 119244.000000
3490 12422 1 0.16500 119244.000000
3490 12564 1 0.16500 119244.000000
3491 12564 1 0.16500 119244.000000
3491 13473 1 0.16500 119244.000000
3492 13771 1 0.16500 119244.000000
3492 15679 1 0.16500 119244.000000
3493 13771 1 0.16500 119244.000000
3493 15895 1 0.16500 119244.000000
3494 14684 1 0.16500 119244.000000
3494 16704 1 0.16500 119244.000000
3495 12565 1 0.16500 119244.000000
3495 14014 1 0.16500 119244.000000
3496 12565 1 0.16500 119244.000000
3496 15552 1 0.16500 119244.000000
3497 12565 1 0.16500 119244.000000
3497 16331 1 0.16500 119244.000000
3498 12565 1 0.16500 119244.000000
3498 15324 1 0.16500 119244.000000
3499 12566 1 0.16500 119244.000000
3499 16832 1 0.16500 119244.000000
3500 12566 1 0.16500 119244.000000
3500 12775 1 0.16500 119244.000000
3501 12566 1 0.16500 119244.000000
3501 14226 1 0.16500 119244.000000
3502 12566 1 0.16500 119244.000000
3502 15287 1 0.16500 119244.000000
3503 12567 1 0.16500 119244.000000
3503 13832 1 0.16500 119244.000000
3504 12567 1 0.16500 119244.000000
3504 13935 1 0.16500 119244.000000
3505 12567 1 0.16500 119244.000000
3505 16656 1 0.16500 119244.000000
3506 12568 1 0.16500 119244.000000
3506 14669 1 0.16500 119244.000000
3507 12568 1 0.16500 119244.000000
3507 15485 1 0.16500 119244.000000
3508 12568 1 0.16500 119244.000000
3508 15320 1 0.16500 119244.000000
3509 12568 1 0.16500 119244.000000
3509 16401 1 0.16500 119244.000000
3510 12569 1 0.16500 119244.000000
3510 14179 1 0.16500 119244.000000
3511 12569 1 0.16500 119244.000000
3511 14193 1 0.16500 119244.000000
3512 12569 1 0.16500 119244.000000
3512 15491 1 0.16500 119244.000000
3513 12569 1 0.16500 119244.000000
3513 16903 1 0.16500 119244.000000
3514 12570 1 0.16500 119244.000000
3514 15371 1 0.16500 119244.000000
3515 12570 1 0.16500 119244.000000
3515 16427 1 0.16500 119244.000000
3516 12571 1 0.16500 119244.000000
3516 15859 1 0.16500 119244.000000
3517 12571 1 0.16500 119244.000000
3517 12904 1 0.16500 119244.000000
3518 12572 1 0.16500 119244.000000
3518 14572 1 0.16500 119244.000000
3519 12572 1 0.16500 119244.000000
3519 13932 1 0.16500 119244.000000
3520 12572 1 0.16500 119244.000000
3520 13327 1 0.16500 119244.000000
3521 12573 1 0.16500 119244.000000
3521 16363 1 0.16500 119244.000000
3522 12573 1 0.16500 119244.000000
3522 13701 1 0.16500 119244.000000
3523 12573 1 0.16500 119244.000000
3523 16491 1 0.16500 119244.000000
3524 12573 1 0.16500 119244.000000
3524 16484 1 0.16500 119244.000000
3525 14662 1 0.16500 119244.000000
3525 17356 1 0.16500 119244.000000
3526 15915 1 0.16500 119244.000000
3526 17356 1 0.16500 119244.000000
3527 15618 1 0.16500 119244.000000
3527 17356 1 0.16500 119244.000000
3528 12574 1 0.16500 119244.000000
3528 17049 1 0.16500 119244.000000
3529 12574 1 0.16500 119244.000000
3529 16754 1 0.16500 119244.000000
3530 12574 1 0.16500 119244.000000
3530 16170 1 0.16500 119244.000000
3531 12575 1 0.16500 119244.000000
3531 14272 1 0.16500 119244.000000
3532 12575 1 0.16500 119244.000000
3532 13582 1 0.16500 119244.000000
3533 12575 1 0.16500 119244.000000
3533 14065 1 0.16500 119244.000000
3534 12575 1 0.16500 119244.000000
3534 16301 1 0.16500 119244.000000
3535 12576 1 0.16500 119244.000000
3535 13069 1 0.16500 119244.000000
3536 12576 1 0.16500 119244.000000
3536 17188 1 0.16500 119244.000000
3537 12576 1 0.16500 119244.000000
3537 16518 1 0.16500 119244.000000
3538 12577 1 0.16500 119244.000000
3538 17108 1 0.16500 119244.000000
3539 12577 1 0.16500 119244.000000
3539 13225 1 0.16500 119244.000000
3540 12577 1 0.16500 119244.000000
3540 14834 1 0.16500 119244.000000
3541 12577 1 0.16500 119244.000000
3541 14525 1 0.16500 119244.000000
3542 12578 1 0.16500 119244.000000
3542 12769 1 0.16500 119244.000000
3543 12578 1 0.16500 119244.000000
3543 16834 1 0.16500 119244.000000
3544 12578 1 0.16500 119244.000000
3544 14746 1 0.16500 119244.000000
3545 12578 1 0.16500 119244.000000
3545 14969 1 0.16500 119244.000000
3546 12579 1 0.16500 119244.000000
3546 16525 1 0.16500 119244.000000
3547 12579 1 0.16500 119244.000000
3547 12957 1 0.16500 119244.000000
3548 12579 1 0.16500 119244.000000
3548 15214 1 0.16500 119244.000000
3549 12580 1 0.16500 119244.000000
3549 17596 1 0.16500 119244.000000
3550 12580 1 0.16500 119244.000000
3550 15137 1 0.16500 119244.000000
3551 12580 1 0.16500 119244.000000
3551 15270 1 0.16500 119244.000000
3552 12580 1 0.16500 119244.000000
3552 15980 1 0.16500 119244.000000
3553 12581 1 0.16500 119244.000000
3553 14686 1 0.16500 119244.000000
3554 12581 1 0.16500 119244.000000
3554 14137 1 0.16500 119244.000000
3555 12582 1 0.16500 119244.000000
3555 16896 1 0.16500 119244.000000
3556 12582 1 0.16500 119244.000000
3556 12828 1 0.16500 119244.000000
3557 12582 1 0.16500 119244.000000
3557 16946 1 0.16500 119244.000000
3558 12582 1 0.16500 119244.000000
3558 15521 1 0.16500 119244.000000
3559 15692 1 0.16500 119244.000000
3559 17359 1 0.16500 119244.000000
3560 15825 1 0.16500 119244.000000
3560 17359 1 0.16500 119244.000000
3561 14160 1 0.16500 119244.000000
3561 17359 1 0.16500 119244.000000
3562 16432 1 0.16500 119244.000000
3562 17109 1 0.16500 119244.000000
3563 12583 1 0.16500 119244.000000
3563 12678 1 0.16500 119244.000000
3564 12583 1 0.16500 119244.000000
3564 16432 1 0.16500 119244.000000
3565 13245 1 0.16500 119244.000000
3565 16432 1 0.16500 119244.000000
3566 12584 1 0.16500 119244.000000
3566 13995 1 0.16500 119244.000000
3567 12584 1 0.16500 119244.000000
3567 16218 1 0.16500 119244.000000
3568 12584 1 0.16500 119244.000000
3568 15607 1 0.16500 119244.000000
3569 12585 1 0.16500 119244.000000
3569 17992 1 0.16500 119244.000000
3570 12585 1 0.16500 119244.000000
3570 16405 1 0.16500 119244.000000
3571 12586 1 0.16500 119244.000000
3571 15057 1 0.16500 119244.000000
3572 12586 1 0.16500 119244.000000
3572 13698 1 0.16500 119244.000000
3573 12586 1 0.16500 119244.000000
3573 14889 1 0.16500 119244.000000
3574 12586 1 0.16500 119244.000000
3574 12840 1 0.16500 119244.000000
3575 12587 1 0.16500 119244.000000
3575 13223 1 0.16500 119244.000000
3576 12587 1 0.16500 119244.000000
3576 16879 1 0.16500 119244.000000
3577 12039 1 0.16500 119244.000000
3577 13705 1 0.16500 119244.000000
3578 12588 1 0.16500 119244.000000
3578 13831 1 0.16500 119244.000000
3579 12588 1 0.16500 119244.000000
3579 14559 1 0.16500 119244.000000
3580 12589 1 0.16500 119244.000000
3580 16830 1 0.16500 119244.000000
3581 12589 1 0.16500 119244.000000
3581 16214 1 0.16500 119244.000000
3582 12589 1 0.16500 119244.000000
3582 15954 1 0.16500 119244.000000
3583 12590 1 0.16500 119244.000000
3583 14810 1 0.16500 119244.000000
3584 12591 1 0.16500 119244.000000
3584 15702 1 0.16500 119244.000000
3585 12591 1 0.16500 119244.000000
3585 16154 1 0.16500 119244.000000
3586 12591 1 0.16500 119244.000000
3586 13343 1 0.16500 119244.000000
3587 13486 1 0.16500 119244.000000
3587 16909 1 0.16500 119244.000000
3588 12592 1 0.16500 119244.000000
3588 13486 1 0.16500 119244.000000
3589 12592 1 0.16500 119244.000000
3589 17014 1 0.16500 119244.000000
3590 12592 1 0.16500 119244.000000
3590 13610 1 0.16500 119244.000000
3591 12593 1 0.16500 119244.000000
3591 16083 1 0.16500 119244.000000
3592 12593 1 0.16500 119244.000000
3592 12941 1 0.16500 119244.000000
3593 12593 1 0.16500 119244.000000
3593 13328 1 0.16500 119244.000000
3594 12593 1 0.16500 119244.000000
3594 15709 1 0.16500 119244.000000
3595 12594 1 0.16500 119244.000000
3595 14211 1 0.16500 119244.000000
3596 12594 1 0.16500 119244.000000
3596 16538 1 0.16500 119244.000000
3597 12594 1 0.16500 119244.000000
3597 14849 1 0.16500 119244.000000
3598 12595 1 0.16500 119244.000000
3598 15437 1 0.16500 119244.000000
3599 12595 1 0.16500 119244.000000
3599 12785 1 0.16500 119244.000000
3600 12595 1 0.16500 119244.000000
3600 12690 1 0.16500 119244.000000
3601 12596 1 0.16500 119244.000000
3601 15242 1 0.16500 119244.000000
3602 12597 1 0.16500 119244.000000
3602 15086 1 0.16500 119244.000000
3603 12597 1 0.16500 119244.000000
3603 13394 1 0.16500 119244.000000
3604 12597 1 0.16500 119244.000000
3604 13392 1 0.16500 119244.000000
3605 12598 1 0.16500 119244.000000
3605 14781 1 0.16500 119244.000000
3606 12598 1 0.16500 119244.000000
3606 14390 1 0.16500 119244.000000
3607 12598 1 0.16500 119244.000000
3607 14820 1 0.16500 119244.000000
3608 12598 1 0.16500 119244.000000
3608 14693 1 0.16500 119244.000000
3609 12599 1 0.16500 119244.000000
3609 15654 1 0.16500 119244.000000
3610 12599 1 0.16500 119244.000000
3610 14614 1 0.16500 119244.000000
3611 12599 1 0.16500 119244.000000
3611 16654 1 0.16500 119244.000000
3612 12599 1 0.16500 119244.000000
3612 15847 1 0.16500 119244.000000
3613 12600 1 0.16500 119244.000000
3613 15340 1 0.16500 119244.000000
3614 12600 1 0.16500 119244.000000
3614 13040 1 0.16500 119244.000000
3615 12600 1 0.16500 119244.000000
3615 15468 1 0.16500 119244.000000
3616 12600 1 0.16500 119244.000000
3616 13657 1 0.16500 119244.000000
3617 11999 1 0.16500 119244.000000
3617 15576 1 0.16500 119244.000000
3618 12601 1 0.16500 119244.000000
3618 14083 1 0.16500 119244.000000
3619 12601 1 0.16500 119244.000000
3619 13305 1 0.16500 119244.000000
3620 12602 1 0.16500 119244.000000
3620 15743 1 0.16500 119244.000000
3621 12602 1 0.16500 119244.000000
3621 14934 1 0.16500 119244.000000
3622 12602 1 0.16500 119244.000000
3622 16210 1 0.16500 119244.000000
3623 12603 1 0.16500 119244.000000
3623 12928 1 0.16500 119244.000000
3624 12603 1 0.16500 119244.000000
3624 16257 1 0.16500 119244.000000
3625 16257 1 0.16500 119244.000000
3625 17434 1 0.16500 119244.000000
3626 12603 1 0.16500 119244.000000
3626 16966 1 0.16500 119244.000000
3627 12604 1 0.16500 119244.000000
3627 17419 1 0.16500 119244.000000
3628 13346 1 0.16500 119244.000000
3628 14956 1 0.16500 119244.000000
3629 12605 1 0.16500 119244.000000
3629 14136 1 0.16500 119244.000000
3630 14136 1 0.16500 119244.000000
3630 16110 1 0.16500 119244.000000
3631 12605 1 0.16500 119244.000000
3631 15715 1 0.16500 119244.000000
3632 12606 1 0.16500 119244.000000
3632 13131 1 0.16500 119244.000000
3633 12606 1 0.16500 119244.000000
3633 17099 1 0.16500 119244.000000
3634 12606 1 0.16500 119244.000000
3634 14077 1 0.16500 119244.000000
3635 15467 1 0.16500 119244.000000
3635 17099 1 0.16500 119244.000000
3636 12607 1 0.16500 119244.000000
3636 16546 1 0.16500 119244.000000
3637 12607 1 0.16500 119244.000000
3637 14433 1 0.16500 119244.000000
3638 12608 1 0.16500 119244.000000
3638 16203 1 0.16500 119244.000000
3639 12608 1 0.16500 119244.000000
3639 16224 1 0.16500 119244.000000
3640 12608 1 0.16500 119244.000000
3640 16805 1 0.16500 119244.000000
3641 12608 1 0.16500 119244.000000
3641 14571 1 0.16500 119244.000000
3642 12609 1 0.16500 119244.000000
3642 16064 1 0.16500 119244.000000
3643 12609 1 0.16500 119244.000000
3643 15508 1 0.16500 119244.000000
3644 12610 1 0.16500 119244.000000
3644 17767 1 0.16500 119244.000000
3645 12610 1 0.16500 119244.000000
3645 17473 1 0.16500 119244.000000
3646 12611 1 0.16500 119244.000000
3646 14667 1 0.16500 119244.000000
3647 12611 1 0.16500 119244.000000
3647 13803 1 0.16500 119244.000000
3648 12611 1 0.16500 119244.000000
3648 13245 1 0.16500 119244.000000
3649 12612 1 0.16500 119244.000000
3649 13572 1 0.16500 119244.000000
3650 12612 1 0.16500 119244.000000
3650 15723 1 0.16500 119244.000000
3651 12613 1 0.16500 119244.000000
3651 16379 1 0.16500 119244.000000
3652 12613 1 0.16500 119244.000000
3652 12743 1 0.16500 119244.000000
3653 12613 1 0.16500 119244.000000
3653 16847 1 0.16500 119244.000000
3654 12614 1 0.16500 119244.000000
3654 13500 1 0.16500 119244.000000
3655 12165 1 0.16500 119244.000000
3655 14219 1 0.16500 119244.000000
3656 12614 1 0.16500 119244.000000
3656 14403 1 0.16500 119244.000000
3657 12614 1 0.16500 119244.000000
3657 14219 1 0.16500 119244.000000
3658 12615 1 0.16500 119244.000000
3658 16856 1 0.16500 119244.000000
3659 12615 1 0.16500 119244.000000
3659 15495 1 0.16500 119244.000000
3660 12615 1 0.16500 119244.000000
3660 15583 1 0.16500 119244.000000
3661 12616 1 0.16500 119244.000000
3661 15268 1 0.16500 119244.000000
3662 12616 1 0.16500 119244.000000
3662 16210 1 0.16500 119244.000000
3663 12616 1 0.16500 119244.000000
3663 15495 1 0.16500 119244.000000
3664 12617 1 0.16500 119244.000000
3664 12842 1 0.16500 119244.000000
3665 12617 1 0.16500 119244.000000
3665 13657 1 0.16500 119244.000000
3666 12617 1 0.16500 119244.000000
3666 14210 1 0.16500 119244.000000
3667 12617 1 0.16500 119244.000000
3667 14431 1 0.16500 119244.000000
3668 12618 1 0.16500 119244.000000
3668 15229 1 0.16500 119244.000000
3669 12618 1 0.16500 119244.000000
3669 15087 1 0.16500 119244.000000
3670 12618 1 0.16500 119244.000000
3670 12707 1 0.16500 119244.000000
3671 12618 1 0.16500 119244.000000
3671 16664 1 0.16500 119244.000000
3672 12619 1 0.16500 119244.000000
3672 13472 1 0.16500 119244.000000
3673 12619 1 0.16500 119244.000000
3673 14879 1 0.16500 119244.000000
3674 12619 1 0.16500 119244.000000
3674 14593 1 0.16500 119244.000000
3675 12619 1 0.16500 119244.000000
3675 14933 1 0.16500 119244.000000
3676 16943 1 0.16500 119244.000000
3676 17362 1 0.16500 119244.000000
3677 15289 1 0.16500 119244.000000
3677 17362 1 0.16500 119244.000000
3678 12620 1 0.16500 119244.000000
3678 15988 1 0.16500 119244.000000
3679 12620 1 0.16500 119244.000000
3679 13034 1 0.16500 119244.000000
3680 12620 1 0.16500 119244.000000
3680 16134 1 0.16500 119244.000000
3681 12621 1 0.16500 119244.000000
3681 16072 1 0.16500 119244.000000
3682 12621 1 0.16500 119244.000000
3682 14213 1 0.16500 119244.000000
3683 12622 1 0.16500 119244.000000
3683 16494 1 0.16500 119244.000000
3684 12622 1 0.16500 119244.000000
3684 16745 1 0.16500 119244.000000
3685 12622 1 0.16500 119244.000000
3685 16023 1 0.16500 119244.000000
3686 12623 1 0.16500 119244.000000
3686 13099 1 0.16500 119244.000000
3687 12623 1 0.16500 119244.000000
3687 12809 1 0.16500 119244.000000
3688 12624 1 0.16500 119244.000000
3688 13103 1 0.16500 119244.000000
3689 12624 1 0.16500 119244.000000
3689 16217 1 0.16500 119244.000000
3690 12624 1 0.16500 119244.000000
3690 16524 1 0.16500 119244.000000
3691 12625 1 0.16500 119244.000000
3691 14799 1 0.16500 119244.000000
3692 12625 1 0.16500 119244.000000
3692 15836 1 0.16500 119244.000000
3693 12625 1 0.16500 119244.000000
3693 13452 1 0.16500 119244.000000
3694 12626 1 0.16500 119244.000000
3694 16965 1 0.16500 119244.000000
3695 11776 1 0.16500 119244.000000
3695 12626 1 0.16500 119244.000000
3696 12626 1 0.16500 119244.000000
3696 15233 1 0.16500 119244.000000
3697 12626 1 0.16500 119244.000000
3697 16985 1 0.16500 119244.000000
3698 12627 1 0.16500 119244.000000
3698 14106 1 0.16500 119244.000000
3699 12627 1 0.16500 119244.000000
3699 14048 1 0.16500 119244.000000
3700 12627 1 0.16500 119244.000000
3700 15623 1 0.16500 119244.000000
3701 12627 1 0.16500 119244.000000
3701 12886 1 0.16500 119244.000000
3702 12628 1 0.16500 119244.000000
3702 13687 1 0.16500 119244.000000
3703 12628 1 0.16500 119244.000000
3703 14256 1 0.16500 119244.000000
3704 12629 1 0.16500 119244.000000
3704 15337 1 0.16500 119244.000000
3705 12629 1 0.16500 119244.000000
3705 16435 1 0.16500 119244.000000
3706 12629 1 0.16500 119244.000000
3706 12695 1 0.16500 119244.000000
3707 12629 1 0.16500 119244.000000
3707 13982 1 0.16500 119244.000000
3708 13434 1 0.16500 119244.000000
3708 14457 1 0.16500 119244.000000
3709 12630 1 0.16500 119244.000000
3709 13434 1 0.16500 119244.000000
3710 12630 1 0.16500 119244.000000
3710 17132 1 0.16500 119244.000000
3711 12630 1 0.16500 119244.000000
3711 16592 1 0.16500 119244.000000
3712 12631 1 0.16500 119244.000000
3712 13692 1 0.16500 119244.000000
3713 12631 1 0.16500 119244.000000
3713 13053 1 0.16500 119244.000000
3714 13692 1 0.16500 119244.000000
3714 14434 1 0.16500 119244.000000
3715 12631 1 0.16500 119244.000000
3715 15602 1 0.16500 119244.000000
3716 12632 1 0.16500 119244.000000
3716 16465 1 0.16500 119244.000000
3717 12632 1 0.16500 119244.000000
3717 13125 1 0.16500 119244.000000
3718 12632 1 0.16500 119244.000000
3718 16732 1 0.16500 119244.000000
3719 12632 1 0.16500 119244.000000
3719 13735 1 0.16500 119244.000000
3720 12633 1 0.16500 119244.000000
3720 13948 1 0.16500 119244.000000
3721 12633 1 0.16500 119244.000000
3721 12861 1 0.16500 119244.000000
3722 12633 1 0.16500 119244.000000
3722 14400 1 0.16500 119244.000000
3723 12634 1 0.16500 119244.000000
3723 14672 1 0.16500 119244.000000
3724 12634 1 0.16500 119244.000000
3724 14345 1 0.16500 119244.000000
3725 12634 1 0.16500 119244.000000
3725 12985 1 0.16500 119244.000000
3726 12635 1 0.16500 119244.000000
3726 15983 1 0.16500 119244.000000
3727 12635 1 0.16500 119244.000000
3727 15939 1 0.16500 119244.000000
3728 12636 1 0.16500 119244.000000
3728 13766 1 0.16500 119244.000000
3729 13589 1 0.16500 119244.000000
3729 13766 1 0.16500 119244.000000
3730 12636 1 0.16500 119244.000000
3730 15793 1 0.16500 119244.000000
3731 12636 1 0.16500 119244.000000
3731 16786 1 0.16500 119244.000000
3732 12637 1 0.16500 119244.000000
3732 17048 1 0.16500 119244.000000
3733 12637 1 0.16500 119244.000000
3733 13263 1 0.16500 119244.000000
3734 12637 1 0.16500 119244.000000
3734 14775 1 0.16500 119244.000000
3735 12637 1 0.16500 119244.000000
3735 17089 1 0.16500 119244.000000
3736 12638 1 0.16500 119244.000000
3736 17998 1 0.16500 119244.000000
3737 12638 1 0.16500 119244.000000
3737 16462 1 0.16500 119244.000000
3738 12639 1 0.16500 119244.000000
3738 17147 1 0.16500 119244.000000
3739 12526 1 0.16500 119244.000000
3739 12639 1 0.16500 119244.000000
3740 12639 1 0.16500 119244.000000
3740 15901 1 0.16500 119244.000000
3741 12640 1 0.16500 119244.000000
3741 14739 1 0.16500 119244.000000
3742 12640 1 0.16500 119244.000000
3742 16647 1 0.16500 119244.000000
3743 12640 1 0.16500 119244.000000
3743 13214 1 0.16500 119244.000000
3744 12640 1 0.16500 119244.000000
3744 16048 1 0.16500 119244.000000
3745 12641 1 0.16500 119244.000000
3745 15357 1 0.16500 119244.000000
3746 12641 1 0.16500 119244.000000
3746 17137 1 0.16500 119244.000000
3747 12641 1 0.16500 119244.000000
3747 13390 1 0.16500 119244.000000
3748 12641 1 0.16500 119244.000000
3748 17076 1 0.16500 119244.000000
3749 12642 1 0.16500 119244.000000
3749 13240 1 0.16500 119244.000000
3750 12642 1 0.16500 119244.000000
3750 17090 1 0.16500 119244.000000
3751 12643 1 0.16500 119244.000000
3751 17431 1 0.16500 119244.000000
3752 12643 1 0.16500 119244.000000
3752 17025 1 0.16500 119244.000000
3753 12643 1 0.16500 119244.000000
3753 13057 1 0.16500 119244.000000
3754 12643 1 0.16500 119244.000000
3754 12691 1 0.16500 119244.000000
3755 12644 1 0.16500 119244.000000
3755 14005 1 0.16500 119244.000000
3756 12644 1 0.16500 119244.000000
3756 14646 1 0.16500 119244.000000
3757 12644 1 0.16500 119244.000000
3757 16744 1 0.16500 119244.000000
3758 12644 1 0.16500 119244.000000
3758 12933 1 0.16500 119244.000000
3759 12292 1 0.16500 119244.000000
3759 12894 1 0.16500 119244.000000
3760 12645 1 0.16500 119244.000000
3760 15350 1 0.16500 119244.000000
3761 12645 1 0.16500 119244.000000
3761 16876 1 0.16500 119244.000000
3762 12646 1 0.16500 119244.000000
3762 13717 1 0.16500 119244.000000
3763 12646 1 0.16500 119244.000000
3763 16664 1 0.16500 119244.000000
3764 12647 1 0.16500 119244.000000
3764 14579 1 0.16500 119244.000000
3765 12647 1 0.16500 119244.000000
3765 16568 1 0.16500 119244.000000
3766 12648 1 0.16500 119244.000000
3766 14071 1 0.16500 119244.000000
3767 12648 1 0.16500 119244.000000
3767 14316 1 0.16500 119244.000000
3768 12648 1 0.16500 119244.000000
3768 15617 1 0.16500 119244.000000
3769 12648 1 0.16500 119244.000000
3769 15140 1 0.16500 119244.000000
3770 11850 1 0.16500 119244.000000
3770 16145 1 0.16500 119244.000000
3771 17365 1 0.16500 119244.000000
3771 17566 1 0.16500 119244.000000
3772 17365 1 0.16500 119244.000000
3772 17674 1 0.16500 119244.000000
3773 12650 1 0.16500 119244.000000
3773 17647 1 0.16500 119244.000000
3774 12650 1 0.16500 119244.000000
3774 14012 1 0.16500 119244.000000
3775 12650 1 0.16500 119244.000000
3775 16880 1 0.16500 119244.000000
3776 12651 1 0.16500 119244.000000
3776 17145 1 0.16500 119244.000000
3777 12651 1 0.16500 119244.000000
3777 13102 1 0.16500 119244.000000
3778 12651 1 0.16500 119244.000000
3778 13120 1 0.16500 119244.000000
3779 12651 1 0.16500 119244.000000
3779 17524 1 0.16500 119244.000000
3780 12652 1 0.16500 119244.000000
3780 16011 1 0.16500 119244.000000
3781 12652 1 0.16500 119244.000000
3781 14659 1 0.16500 119244.000000
3782 12652 1 0.16500 119244.000000
3782 16105 1 0.16500 119244.000000
3783 12652 1 0.16500 119244.000000
3783 12923 1 0.16500 119244.000000
3784 12653 1 0.16500 119244.000000
3784 16861 1 0.16500 119244.000000
3785 12653 1 0.16500 119244.000000
3785 16542 1 0.16500 119244.000000
3786 12653 1 0.16500 119244.000000
3786 13878 1 0.16500 119244.000000
3787 12654 1 0.16500 119244.000000
3787 13628 1 0.16500 119244.000000
3788 12654 1 0.16500 119244.000000
3788 12659 1 0.16500 119244.000000
3789 12654 1 0.16500 119244.000000
3789 13311 1 0.16500 119244.000000
3790 12655 1 0.16500 119244.000000
3790 13417 1 0.16500 119244.000000
3791 12655 1 0.16500 119244.000000
3791 15602 1 0.16500 119244.000000
3792 12655 1 0.16500 119244.000000
3792 14982 1 0.16500 119244.000000
3793 12656 1 0.16500 119244.000000
3793 15071 1 0.16500 119244.000000
3794 12656 1 0.16500 119244.000000
3794 13162 1 0.16500 119244.000000
3795 12656 1 0.16500 119244.000000
3795 16589 1 0.16500 119244.000000
3796 11972 1 0.16500 119244.000000
3796 12656 1 0.16500 119244.000000
3797 12657 1 0.16500 119244.000000
3797 13731 1 0.16500 119244.000000
3798 12657 1 0.16500 119244.000000
3798 12855 1 0.16500 119244.000000
3799 12657 1 0.16500 119244.000000
3799 13572 1 0.16500 119244.000000
3800 12657 1 0.16500 119244.000000
3800 16870 1 0.16500 119244.000000
3801 12658 1 0.16500 119244.000000
3801 16446 1 0.16500 119244.000000
3802 12658 1 0.16500 119244.000000
3802 13332 1 0.16500 119244.000000
3803 12658 1 0.16500 119244.000000
3803 14024 1 0.16500 119244.000000
3804 12658 1 0.16500 119244.000000
3804 14044 1 0.16500 119244.000000
3805 12654 1 0.16500 119244.000000
3805 12679 1 0.16500 119244.000000
3806 12659 1 0.16500 119244.000000
3806 13179 1 0.16500 119244.000000
3807 12659 1 0.16500 119244.000000
3807 15571 1 0.16500 119244.000000
3808 12660 1 0.16500 119244.000000
3808 15556 1 0.16500 119244.000000
3809 12660 1 0.16500 119244.000000
3809 15227 1 0.16500 119244.000000
3810 12660 1 0.16500 119244.000000
3810 13003 1 0.16500 119244.000000
3811 12660 1 0.16500 119244.000000
3811 14461 1 0.16500 119244.000000
3812 14954 1 0.16500 119244.000000
3812 17144 1 0.16500 119244.000000
3813 12661 1 0.16500 119244.000000
3813 13550 1 0.16500 119244.000000
3814 12661 1 0.16500 119244.000000
3814 16995 1 0.16500 119244.000000
3815 12661 1 0.16500 119244.000000
3815 14954 1 0.16500 119244.000000
3816 12662 1 0.16500 119244.000000
3816 14859 1 0.16500 119244.000000
3817 12662 1 0.16500 119244.000000
3817 14146 1 0.16500 119244.000000
3818 12662 1 0.16500 119244.000000
3818 13668 1 0.16500 119244.000000
3819 12663 1 0.16500 119244.000000
3819 14360 1 0.16500 119244.000000
3820 12663 1 0.16500 119244.000000
3820 15060 1 0.16500 119244.000000
3821 12663 1 0.16500 119244.000000
3821 14324 1 0.16500 119244.000000
3822 12663 1 0.16500 119244.000000
3822 15487 1 0.16500 119244.000000
3823 12664 1 0.16500 119244.000000
3823 15593 1 0.16500 119244.000000
3824 12664 1 0.16500 119244.000000
3824 14941 1 0.16500 119244.000000
3825 12664 1 0.16500 119244.000000
3825 15154 1 0.16500 119244.000000
3826 12665 1 0.16500 119244.000000
3826 16427 1 0.16500 119244.000000
3827 12665 1 0.16500 119244.000000
3827 14364 1 0.16500 119244.000000
3828 12665 1 0.16500 119244.000000
3828 13280 1 0.16500 119244.000000
3829 12666 1 0.16500 119244.000000
3829 16903 1 0.16500 119244.000000
3830 12666 1 0.16500 119244.000000
3830 15577 1 0.16500 119244.000000
3831 12666 1 0.16500 119244.000000
3831 15166 1 0.16500 119244.000000
3832 12667 1 0.16500 119244.000000
3832 17290 1 0.16500 119244.000000
3833 14553 1 0.16500 119244.000000
3833 17058 1 0.16500 119244.000000
3834 12667 1 0.16500 119244.000000
3834 15505 1 0.16500 119244.000000
3835 12668 1 0.16500 119244.000000
3835 16134 1 0.16500 119244.000000
3836 12668 1 0.16500 119244.000000
3836 14375 1 0.16500 119244.000000
3837 12668 1 0.16500 119244.000000
3837 17011 1 0.16500 119244.000000
3838 12669 1 0.16500 119244.000000
3838 14623 1 0.16500 119244.000000
3839 12669 1 0.16500 119244.000000
3839 14026 1 0.16500 119244.000000
3840 12669 1 0.16500 119244.000000
3840 14338 1 0.16500 119244.000000
3841 12669 1 0.16500 119244.000000
3841 16782 1 0.16500 119244.000000
3842 12670 1 0.16500 119244.000000
3842 13272 1 0.16500 119244.000000
3843 12670 1 0.16500 119244.000000
3843 15261 1 0.16500 119244.000000
3844 12670 1 0.16500 119244.000000
3844 16454 1 0.16500 119244.000000
3845 12671 1 0.16500 119244.000000
3845 17677 1 0.16500 119244.000000
3846 12671 1 0.16500 119244.000000
3846 15833 1 0.16500 119244.000000
3847 12671 1 0.16500 119244.000000
3847 13246 1 0.16500 119244.000000
3848 12671 1 0.16500 119244.000000
3848 16762 1 0.16500 119244.000000
3849 12672 1 0.16500 119244.000000
3849 14016 1 0.16500 119244.000000
3850 12672 1 0.16500 119244.000000
3850 13026 1 0.16500 119244.000000
3851 12672 1 0.16500 119244.000000
3851 13349 1 0.16500 119244.000000
3852 12673 1 0.16500 119244.000000
3852 13756 1 0.16500 119244.000000
3853 12673 1 0.16500 119244.000000
3853 15439 1 0.16500 119244.000000
3854 12673 1 0.16500 119244.000000
3854 16827 1 0.16500 119244.000000
3855 12674 1 0.16500 119244.000000
3855 16480 1 0.16500 119244.000000
3856 12674 1 0.16500 119244.000000
3856 14909 1 0.16500 119244.000000
3857 12674 1 0.16500 119244.000000
3857 16611 1 0.16500 119244.000000
3858 12674 1 0.16500 119244.000000
3858 14059 1 0.16500 119244.000000
3859 12675 1 0.16500 119244.000000
3859 13712 1 0.16500 119244.000000
3860 12675 1 0.16500 119244.000000
3860 16873 1 0.16500 119244.000000
3861 12675 1 0.16500 119244.000000
3861 16688 1 0.16500 119244.000000
3862 12675 1 0.16500 119244.000000
3862 14343 1 0.16500 119244.000000
3863 12676 1 0.16500 119244.000000
3863 14522 1 0.16500 119244.000000
3864 12676 1 0.16500 119244.000000
3864 16079 1 0.16500 119244.000000
3865 12676 1 0.16500 119244.000000
3865 17053 1 0.16500 119244.000000
3866 12676 1 0.16500 119244.000000
3866 16100 1 0.16500 119244.000000
3867 12677 1 0.16500 119244.000000
3867 13731 1 0.16500 119244.000000
3868 12677 1 0.16500 119244.000000
3868 15920 1 0.16500 119244.000000
3869 12678 1 0.16500 119244.000000
3869 16183 1 0.16500 119244.000000
3870 12679 1 0.16500 119244.000000
3870 16682 1 0.16500 119244.000000
3871 12679 1 0.16500 119244.000000
3871 13716 1 0.16500 119244.000000
3872 12679 1 0.16500 119244.000000
3872 13391 1 0.16500 119244.000000
3873 12680 1 0.16500 119244.000000
3873 13702 1 0.16500 119244.000000
3874 12680 1 0.16500 119244.000000
3874 15051 1 0.16500 119244.000000
3875 12680 1 0.16500 119244.000000
3875 15601 1 0.16500 119244.000000
3876 12680 1 0.16500 119244.000000
3876 13223 1 0.16500 119244.000000
3877 12681 1 0.16500 119244.000000
3877 13327 1 0.16500 119244.000000
3878 12681 1 0.16500 119244.000000
3878 16027 1 0.16500 119244.000000
3879 15816 1 0.16500 119244.000000
3879 17368 1 0.16500 119244.000000
3880 14803 1 0.16500 119244.000000
3880 17368 1 0.16500 119244.000000
3881 15926 1 0.16500 119244.000000
3881 17368 1 0.16500 119244.000000
3882 12682 1 0.16500 119244.000000
3882 15319 1 0.16500 119244.000000
3883 12682 1 0.16500 119244.000000
3883 14420 1 0.16500 119244.000000
3884 12682 1 0.16500 119244.000000
3884 13698 1 0.16500 119244.000000
3885 12682 1 0.16500 119244.000000
3885 15133 1 0.16500 119244.000000
3886 12683 1 0.16500 119244.000000
3886 15268 1 0.16500 119244.000000
3887 12683 1 0.16500 119244.000000
3887 16086 1 0.16500 119244.000000
3888 12683 1 0.16500 119244.000000
3888 16525 1 0.16500 119244.000000
3889 12684 1 0.16500 119244.000000
3889 16404 1 0.16500 119244.000000
3890 12684 1 0.16500 119244.000000
3890 13730 1 0.16500 119244.000000
3891 12684 1 0.16500 119244.000000
3891 14740 1 0.16500 119244.000000
3892 12685 1 0.16500 119244.000000
3892 13838 1 0.16500 119244.000000
3893 12685 1 0.16500 119244.000000
3893 12807 1 0.16500 119244.000000
3894 12685 1 0.16500 119244.000000
3894 16030 1 0.16500 119244.000000
3895 12686 1 0.16500 119244.000000
3895 16279 1 0.16500 119244.000000
3896 12686 1 0.16500 119244.000000
3896 15020 1 0.16500 119244.000000
3897 12686 1 0.16500 119244.000000
3897 15040 1 0.16500 119244.000000
3898 12686 1 0.16500 119244.000000
3898 15952 1 0.16500 119244.000000
3899 12687 1 0.16500 119244.000000
3899 16054 1 0.16500 119244.000000
3900 12687 1 0.16500 119244.000000
3900 13666 1 0.16500 119244.000000
3901 12687 1 0.16500 119244.000000
3901 17124 1 0.16500 119244.000000
3902 12688 1 0.16500 119244.000000
3902 14741 1 0.16500 119244.000000
3903 12688 1 0.16500 119244.000000
3903 14231 1 0.16500 119244.000000
3904 12688 1 0.16500 119244.000000
3904 17398 1 0.16500 119244.000000
3905 12688 1 0.16500 119244.000000
3905 12715 1 0.16500 119244.000000
3906 12689 1 0.16500 119244.000000
3906 15321 1 0.16500 119244.000000
3907 12689 1 0.16500 119244.000000
3907 13841 1 0.16500 119244.000000
3908 12689 1 0.16500 119244.000000
3908 15691 1 0.16500 119244.000000
3909 12689 1 0.16500 119244.000000
3909 12997 1 0.16500 119244.000000
3910 12690 1 0.16500 119244.000000
3910 15824 1 0.16500 119244.000000
3911 12690 1 0.16500 119244.000000
3911 14819 1 0.16500 119244.000000
3912 12690 1 0.16500 119244.000000
3912 12993 1 0.16500 119244.000000
3913 12691 1 0.16500 119244.000000
3913 15128 1 0.16500 119244.000000
3914 12691 1 0.16500 119244.000000
3914 14458 1 0.16500 119244.000000
3915 12692 1 0.16500 119244.000000
3915 14927 1 0.16500 119244.000000
3916 12692 1 0.16500 119244.000000
3916 15868 1 0.16500 119244.000000
3917 12692 1 0.16500 119244.000000
3917 13262 1 0.16500 119244.000000
3918 12692 1 0.16500 119244.000000
3918 17176 1 0.16500 119244.000000
3919 14319 1 0.16500 119244.000000
3919 14884 1 0.16500 119244.000000
3920 12693 1 0.16500 119244.000000
3920 14319 1 0.16500 119244.000000
3921 12693 1 0.16500 119244.000000
3921 17107 1 0.16500 119244.000000
3922 14689 1 0.16500 119244.000000
3922 17602 1 0.16500 119244.000000
3923 12694 1 0.16500 119244.000000
3923 14689 1 0.16500 119244.000000
3924 12695 1 0.16500 119244.000000
3924 15898 1 0.16500 119244.000000
3925 12695 1 0.16500 119244.000000
3925 15720 1 0.16500 119244.000000
3926 12695 1 0.16500 119244.000000
3926 14506 1 0.16500 119244.000000
3927 12696 1 0.16500 119244.000000
3927 15671 1 0.16500 119244.000000
3928 12696 1 0.16500 119244.000000
3928 15081 1 0.16500 119244.000000
3929 12697 1 0.16500 119244.000000
3929 13671 1 0.16500 119244.000000
3930 12697 1 0.16500 119244.000000
3930 17671 1 0.16500 119244.000000
3931 12698 1 0.16500 119244.000000
3931 14991 1 0.16500 119244.000000
3932 12698 1 0.16500 119244.000000
3932 16068 1 0.16500 119244.000000
3933 12698 1 0.16500 119244.000000
3933 15047 1 0.16500 119244.000000
3934 12698 1 0.16500 119244.000000
3934 14307 1 0.16500 119244.000000
3935 13660 1 0.16500 119244.000000
3935 15679 1 0.16500 119244.000000
3936 12699 1 0.16500 119244.000000
3936 13660 1 0.16500 119244.000000
3937 12700 1 0.16500 119244.000000
3937 13720 1 0.16500 119244.000000
3938 12700 1 0.16500 119244.000000
3938 14166 1 0.16500 119244.000000
3939 12701 1 0.16500 119244.000000
3939 15421 1 0.16500 119244.000000
3940 12701 1 0.16500 119244.000000
3940 13388 1 0.16500 119244.000000
3941 12701 1 0.16500 119244.000000
3941 14424 1 0.16500 119244.000000
3942 12701 1 0.16500 119244.000000
3942 16164 1 0.16500 119244.000000
3943 12702 1 0.16500 119244.000000
3943 14142 1 0.16500 119244.000000
3944 12702 1 0.16500 119244.000000
3944 13544 1 0.16500 119244.000000
3945 12702 1 0.16500 119244.000000
3945 15769 1 0.16500 119244.000000
3946 12703 1 0.16500 119244.000000
3946 15937 1 0.16500 119244.000000
3947 12704 1 0.16500 119244.000000
3947 14281 1 0.16500 119244.000000
3948 12704 1 0.16500 119244.000000
3948 13864 1 0.16500 119244.000000
3949 12704 1 0.16500 119244.000000
3949 15273 1 0.16500 119244.000000
3950 12705 1 0.16500 119244.000000
3950 13109 1 0.16500 119244.000000
3951 12705 1 0.16500 119244.000000
3951 15167 1 0.16500 119244.000000
3952 12705 1 0.16500 119244.000000
3952 13483 1 0.16500 119244.000000
3953 12705 1 0.16500 119244.000000
3953 14116 1 0.16500 119244.000000
3954 12706 1 0.16500 119244.000000
3954 13949 1 0.16500 119244.000000
3955 12706 1 0.16500 119244.000000
3955 14434 1 0.16500 119244.000000
3956 13949 1 0.16500 119244.000000
3956 17749 1 0.16500 119244.000000
3957 12706 1 0.16500 119244.000000
3957 13692 1 0.16500 119244.000000
3958 12707 1 0.16500 119244.000000
3958 14974 1 0.16500 119244.000000
3959 12707 1 0.16500 119244.000000
3959 15154 1 0.16500 119244.000000
3960 12708 1 0.16500 119244.000000
3960 14805 1 0.16500 119244.000000
3961 12708 1 0.16500 119244.000000
3961 12882 1 0.16500 119244.000000
3962 12709 1 0.16500 119244.000000
3962 14153 1 0.16500 119244.000000
3963 12709 1 0.16500 119244.000000
3963 15222 1 0.16500 119244.000000
3964 12709 1 0.16500 119244.000000
3964 13502 1 0.16500 119244.000000
3965 12709 1 0.16500 119244.000000
3965 15571 1 0.16500 119244.000000
3966 12710 1 0.16500 119244.000000
3966 14669 1 0.16500 119244.000000
3967 12710 1 0.16500 119244.000000
3967 15832 1 0.16500 119244.000000
3968 12710 1 0.16500 119244.000000
3968 14768 1 0.16500 119244.000000
3969 12710 1 0.16500 119244.000000
3969 14112 1 0.16500 119244.000000
3970 12711 1 0.16500 119244.000000
3970 15942 1 0.16500 119244.000000
3971 12711 1 0.16500 119244.000000
3971 12724 1 0.16500 119244.000000
3972 12017 1 0.16500 119244.000000
3972 13931 1 0.16500 119244.000000
3973 12712 1 0.16500 119244.000000
3973 13450 1 0.16500 119244.000000
3974 12712 1 0.16500 119244.000000
3974 16854 1 0.16500 119244.000000
3975 12712 1 0.16500 119244.000000
3975 15414 1 0.16500 119244.000000
3976 12712 1 0.16500 119244.000000
3976 15897 1 0.16500 119244.000000
3977 12713 1 0.16500 119244.000000
3977 15020 1 0.16500 119244.000000
3978 12713 1 0.16500 119244.000000
3978 16042 1 0.16500 119244.000000
3979 12714 1 0.16500 119244.000000
3979 14390 1 0.16500 119244.000000
3980 12714 1 0.16500 119244.000000
3980 13598 1 0.16500 119244.000000
3981 12714 1 0.16500 119244.000000
3981 15085 1 0.16500 119244.000000
3982 12715 1 0.16500 119244.000000
3982 17047 1 0.16500 119244.000000
3983 12715 1 0.16500 119244.000000
3983 14733 1 0.16500 119244.000000
3984 12715 1 0.16500 119244.000000
3984 14154 1 0.16500 119244.000000
3985 12716 1 0.16500 119244.000000
3985 14910 1 0.16500 119244.000000
3986 12716 1 0.16500 119244.000000
3986 17184 1 0.16500 119244.000000
3987 12716 1 0.16500 119244.000000
3987 16486 1 0.16500 119244.000000
3988 12716 1 0.16500 119244.000000
3988 15247 1 0.16500 119244.000000
3989 12717 1 0.16500 119244.000000
3989 16033 1 0.16500 119244.000000
3990 12717 1 0.16500 119244.000000
3990 13661 1 0.16500 119244.000000
3991 12717 1 0.16500 119244.000000
3991 14664 1 0.16500 119244.000000
3992 12717 1 0.16500 119244.000000
3992 15043 1 0.16500 119244.000000
3993 12718 1 0.16500 119244.000000
3993 16277 1 0.16500 119244.000000
3994 12718 1 0.16500 119244.000000
3994 13530 1 0.16500 119244.000000
3995 12718 1 0.16500 119244.000000
3995 15595 1 0.16500 119244.000000
3996 12718 1 0.16500 119244.000000
3996 13447 1 0.16500 119244.000000
3997 12719 1 0.16500 119244.000000
3997 17074 1 0.16500 119244.000000
3998 12719 1 0.16500 119244.000000
3998 14682 1 0.16500 119244.000000
3999 12719 1 0.16500 119244.000000
3999 14560 1 0.16500 119244.000000
4000 12720 1 0.16500 119244.000000
4000 15038 1 0.16500 119244.000000
4001 12720 1 0.16500 119244.000000
4001 15044 1 0.16500 119244.000000
4002 12720 1 0.16500 119244.000000
4002 16078 1 0.16500 119244.000000
4003 12721 1 0.16500 119244.000000
4003 16391 1 0.16500 119244.000000
4004 12721 1 0.16500 119244.000000
4004 16776 1 0.16500 119244.000000
4005 12722 1 0.16500 119244.000000
4005 14043 1 0.16500 119244.000000
4006 12722 1 0.16500 119244.000000
4006 16374 1 0.16500 119244.000000
4007 12722 1 0.16500 119244.000000
4007 14975 1 0.16500 119244.000000
4008 12722 1 0.16500 119244.000000
4008 15004 1 0.16500 119244.000000
4009 12723 1 0.16500 119244.000000
4009 16034 1 0.16500 119244.000000
4010 12411 1 0.16500 119244.000000
4010 12723 1 0.16500 119244.000000
4011 12723 1 0.16500 119244.000000
4011 14476 1 0.16500 119244.000000
4012 12724 1 0.16500 119244.000000
4012 14068 1 0.16500 119244.000000
4013 12724 1 0.16500 119244.000000
4013 13300 1 0.16500 119244.000000
4014 12725 1 0.16500 119244.000000
4014 17749 1 0.16500 119244.000000
4015 12725 1 0.16500 119244.000000
4015 13573 1 0.16500 119244.000000
4016 12725 1 0.16500 119244.000000
4016 13853 1 0.16500 119244.000000
4017 12726 1 0.16500 119244.000000
4017 15259 1 0.16500 119244.000000
4018 12726 1 0.16500 119244.000000
4018 17851 1 0.16500 119244.000000
4019 12727 1 0.16500 119244.000000
4019 15130 1 0.16500 119244.000000
4020 12727 1 0.16500 119244.000000
4020 15428 1 0.16500 119244.000000
4021 12727 1 0.16500 119244.000000
4021 16919 1 0.16500 119244.000000
4022 13110 1 0.16500 119244.000000
4022 16685 1 0.16500 119244.000000
4023 12728 1 0.16500 119244.000000
4023 17608 1 0.16500 119244.000000
4024 12728 1 0.16500 119244.000000
4024 13170 1 0.16500 119244.000000
4025 12728 1 0.16500 119244.000000
4025 16685 1 0.16500 119244.000000
4026 12729 1 0.16500 119244.000000
4026 13568 1 0.16500 119244.000000
4027 13568 1 0.16500 119244.000000
4027 16920 1 0.16500 119244.000000
4028 12730 1 0.16500 119244.000000
4028 13670 1 0.16500 119244.000000
4029 12730 1 0.16500 119244.000000
4029 16836 1 0.16500 119244.000000
4030 11834 1 0.16500 119244.000000
4030 15348 1 0.16500 119244.000000
4031 12731 1 0.16500 119244.000000
4031 16412 1 0.16500 119244.000000
4032 12731 1 0.16500 119244.000000
4032 12984 1 0.16500 119244.000000
4033 15918 1 0.16500 119244.000000
4033 17371 1 0.16500 119244.000000
4034 14329 1 0.16500 119244.000000
4034 17371 1 0.16500 119244.000000
4035 12732 1 0.16500 119244.000000
4035 14933 1 0.16500 119244.000000
4036 13778 1 0.16500 119244.000000
4036 16089 1 0.16500 119244.000000
4037 12732 1 0.16500 119244.000000
4037 17141 1 0.16500 119244.000000
4038 12732 1 0.16500 119244.000000
4038 16089 1 0.16500 119244.000000
4039 12733 1 0.16500 119244.000000
4039 15729 1 0.16500 119244.000000
4040 12733 1 0.16500 119244.000000
4040 14633 1 0.16500 119244.000000
4041 12734 1 0.16500 119244.000000
4041 17914 1 0.16500 119244.000000
4042 12734 1 0.16500 119244.000000
4042 16116 1 0.16500 119244.000000
4043 12735 1 0.16500 119244.000000
4043 15948 1 0.16500 119244.000000
4044 12735 1 0.16500 119244.000000
4044 12755 1 0.16500 119244.000000
4045 12735 1 0.16500 119244.000000
4045 16800 1 0.16500 119244.000000
4046 12736 1 0.16500 119244.000000
4046 12929 1 0.16500 119244.000000
4047 12736 1 0.16500 119244.000000
4047 13512 1 0.16500 119244.000000
4048 12736 1 0.16500 119244.000000
4048 14126 1 0.16500 119244.000000
4049 12737 1 0.16500 119244.000000
4049 15563 1 0.16500 119244.000000
4050 12737 1 0.16500 119244.000000
4050 17848 1 0.16500 119244.000000
4051 12737 1 0.16500 119244.000000
4051 17797 1 0.16500 119244.000000
4052 12737 1 0.16500 119244.000000
4052 15194 1 0.16500 119244.000000
4053 12738 1 0.16500 119244.000000
4053 15422 1 0.16500 119244.000000
4054 12738 1 0.16500 119244.000000
4054 13880 1 0.16500 119244.000000
4055 12738 1 0.16500 119244.000000
4055 15228 1 0.16500 119244.000000
4056 12739 1 0.16500 119244.000000
4056 14251 1 0.16500 119244.000000
4057 12739 1 0.16500 119244.000000
4057 15771 1 0.16500 119244.000000
4058 12739 1 0.16500 119244.000000
4058 16038 1 0.16500 119244.000000
4059 12740 1 0.16500 119244.000000
4059 14071 1 0.16500 119244.000000
4060 12740 1 0.16500 119244.000000
4060 17716 1 0.16500 119244.000000
4061 12740 1 0.16500 119244.000000
4061 13089 1 0.16500 119244.000000
4062 12741 1 0.16500 119244.000000
4062 16061 1 0.16500 119244.000000
4063 12741 1 0.16500 119244.000000
4063 16190 1 0.16500 119244.000000
4064 12741 1 0.16500 119244.000000
4064 14246 1 0.16500 119244.000000
4065 12741 1 0.16500 119244.000000
4065 12786 1 0.16500 119244.000000
4066 12742 1 0.16500 119244.000000
4066 16292 1 0.16500 119244.000000
4067 12247 1 0.16500 119244.000000
4067 16292 1 0.16500 119244.000000
4068 12742 1 0.16500 119244.000000
4068 15115 1 0.16500 119244.000000
4069 12743 1 0.16500 119244.000000
4069 14602 1 0.16500 119244.000000
4070 12744 1 0.16500 119244.000000
4070 15789 1 0.16500 119244.000000
4071 12744 1 0.16500 119244.000000
4071 15879 1 0.16500 119244.000000
4072 12744 1 0.16500 119244.000000
4072 12970 1 0.16500 119244.000000
4073 12744 1 0.16500 119244.000000
4073 15238 1 0.16500 119244.000000
4074 12745 1 0.16500 119244.000000
4074 16774 1 0.16500 119244.000000
4075 12745 1 0.16500 119244.000000
4075 12816 1 0.16500 119244.000000
4076 12745 1 0.16500 119244.000000
4076 15173 1 0.16500 119244.000000
4077 12746 1 0.16500 119244.000000
4077 15735 1 0.16500 119244.000000
4078 12746 1 0.16500 119244.000000
4078 16140 1 0.16500 119244.000000
4079 12746 1 0.16500 119244.000000
4079 13251 1 0.16500 119244.000000
4080 12746 1 0.16500 119244.000000
4080 16512 1 0.16500 119244.000000
4081 12053 1 0.16500 119244.000000
4081 15174 1 0.16500 119244.000000
4082 12747 1 0.16500 119244.000000
4082 17851 1 0.16500 119244.000000
4083 12747 1 0.16500 119244.000000
4083 12949 1 0.16500 119244.000000
4084 12748 1 0.16500 119244.000000
4084 14206 1 0.16500 119244.000000
4085 12748 1 0.16500 119244.000000
4085 13215 1 0.16500 119244.000000
4086 12749 1 0.16500 119244.000000
4086 15732 1 0.16500 119244.000000
4087 12749 1 0.16500 119244.000000
4087 16652 1 0.16500 119244.000000
4088 12749 1 0.16500 119244.000000
4088 15106 1 0.16500 119244.000000
4089 12750 1 0.16500 119244.000000
4089 12843 1 0.16500 119244.000000
4090 12750 1 0.16500 119244.000000
4090 14252 1 0.16500 119244.000000
4091 12750 1 0.16500 119244.000000
4091 13976 1 0.16500 119244.000000
4092 12751 1 0.16500 119244.000000
4092 14317 1 0.16500 119244.000000
4093 12751 1 0.16500 119244.000000
4093 13798 1 0.16500 119244.000000
4094 12751 1 0.16500 119244.000000
4094 13436 1 0.16500 119244.000000
4095 12751 1 0.16500 119244.000000
4095 15475 1 0.16500 119244.000000
4096 12752 1 0.16500 119244.000000
4096 13822 1 0.16500 119244.000000
4097 12752 1 0.16500 119244.000000
4097 15746 1 0.16500 119244.000000
4098 12752 1 0.16500 119244.000000
4098 13924 1 0.16500 119244.000000
4099 12752 1 0.16500 119244.000000
4099 15870 1 0.16500 119244.000000
4100 12753 1 0.16500 119244.000000
4100 13760 1 0.16500 119244.000000
4101 13760 1 0.16500 119244.000000
4101 16675 1 0.16500 119244.000000
4102 12754 1 0.16500 119244.000000
4102 17707 1 0.16500 119244.000000
4103 12754 1 0.16500 119244.000000
4103 13587 1 0.16500 119244.000000
4104 12755 1 0.16500 119244.000000
4104 13703 1 0.16500 119244.000000
4105 12755 1 0.16500 119244.000000
4105 17021 1 0.16500 119244.000000
4106 12755 1 0.16500 119244.000000
4106 16767 1 0.16500 119244.000000
4107 13340 1 0.16500 119244.000000
4107 17030 1 0.16500 119244.000000
4108 12756 1 0.16500 119244.000000
4108 13340 1 0.16500 119244.000000
4109 12756 1 0.16500 119244.000000
4109 17137 1 0.16500 119244.000000
4110 12756 1 0.16500 119244.000000
4110 15914 1 0.16500 119244.000000
4111 13334 1 0.16500 119244.000000
4111 13462 1 0.16500 119244.000000
4112 12757 1 0.16500 119244.000000
4112 12959 1 0.16500 119244.000000
4113 12757 1 0.16500 119244.000000
4113 14537 1 0.16500 119244.000000
4114 12758 1 0.16500 119244.000000
4114 15037 1 0.16500 119244.000000
4115 12758 1 0.16500 119244.000000
4115 15295 1 0.16500 119244.000000
4116 12758 1 0.16500 119244.000000
4116 16990 1 0.16500 119244.000000
4117 12758 1 0.16500 119244.000000
4117 16697 1 0.16500 119244.000000
4118 12759 1 0.16500 119244.000000
4118 15607 1 0.16500 119244.000000
4119 12759 1 0.16500 119244.000000
4119 17062 1 0.16500 119244.000000
4120 12760 1 0.16500 119244.000000
4120 17042 1 0.16500 119244.000000
4121 12760 1 0.16500 119244.000000
4121 15183 1 0.16500 119244.000000
4122 12760 1 0.16500 119244.000000
4122 15950 1 0.16500 119244.000000
4123 12760 1 0.16500 119244.000000
4123 14687 1 0.16500 119244.000000
4124 12761 1 0.16500 119244.000000
4124 16050 1 0.16500 119244.000000
4125 12761 1 0.16500 119244.000000
4125 16918 1 0.16500 119244.000000
4126 12761 1 0.16500 119244.000000
4126 14237 1 0.16500 119244.000000
4127 12761 1 0.16500 119244.000000
4127 16521 1 0.16500 119244.000000
4128 12762 1 0.16500 119244.000000
4128 13681 1 0.16500 119244.000000
4129 12762 1 0.16500 119244.000000
4129 16204 1 0.16500 119244.000000
4130 12763 1 0.16500 119244.000000
4130 16036 1 0.16500 119244.000000
4131 12763 1 0.16500 119244.000000
4131 13507 1 0.16500 119244.000000
4132 12764 1 0.16500 119244.000000
4132 15262 1 0.16500 119244.000000
4133 12764 1 0.16500 119244.000000
4133 12965 1 0.16500 119244.000000
4134 12764 1 0.16500 119244.000000
4134 15186 1 0.16500 119244.000000
4135 12765 1 0.16500 119244.000000
4135 14206 1 0.16500 119244.000000
4136 12765 1 0.16500 119244.000000
4136 14236 1 0.16500 119244.000000
4137 12765 1 0.16500 119244.000000
4137 12821 1 0.16500 119244.000000
4138 12766 1 0.16500 119244.000000
4138 14929 1 0.16500 119244.000000
4139 12766 1 0.16500 119244.000000
4139 16473 1 0.16500 119244.000000
4140 12766 1 0.16500 119244.000000
4140 15157 1 0.16500 119244.000000
4141 12767 1 0.16500 119244.000000
4141 15554 1 0.16500 119244.000000
4142 12767 1 0.16500 119244.000000
4142 15929 1 0.16500 119244.000000
4143 12767 1 0.16500 119244.000000
4143 12838 1 0.16500 119244.000000
4144 12767 1 0.16500 119244.000000
4144 12958 1 0.16500 119244.000000
4145 12768 1 0.16500 119244.000000
4145 16920 1 0.16500 119244.000000
4146 12768 1 0.16500 119244.000000
4146 13873 1 0.16500 119244.000000
4147 12768 1 0.16500 119244.000000
4147 15859 1 0.16500 119244.000000
4148 12768 1 0.16500 119244.000000
4148 15355 1 0.16500 119244.000000
4149 12769 1 0.16500 119244.000000
4149 16096 1 0.16500 119244.000000
4150 12769 1 0.16500 119244.000000
4150 17890 1 0.16500 119244.000000
4151 12770 1 0.16500 119244.000000
4151 15503 1 0.16500 119244.000000
4152 12770 1 0.16500 119244.000000
4152 13699 1 0.16500 119244.000000
4153 12770 1 0.16500 119244.000000
4153 14025 1 0.16500 119244.000000
4154 12771 1 0.16500 119244.000000
4154 14585 1 0.16500 119244.000000
4155 12771 1 0.16500 119244.000000
4155 16382 1 0.16500 119244.000000
4156 12771 1 0.16500 119244.000000
4156 13871 1 0.16500 119244.000000
4157 12771 1 0.16500 119244.000000
4157 14600 1 0.16500 119244.000000
4158 12772 1 0.16500 119244.000000
4158 16329 1 0.16500 119244.000000
4159 12772 1 0.16500 119244.000000
4159 16291 1 0.16500 119244.000000
4160 12773 1 0.16500 119244.000000
4160 16821 1 0.16500 119244.000000
4161 12773 1 0.16500 119244.000000
4161 15730 1 0.16500 119244.000000
4162 12773 1 0.16500 119244.000000
4162 15560 1 0.16500 119244.000000
4163 12774 1 0.16500 119244.000000
4163 15351 1 0.16500 119244.000000
4164 12774 1 0.16500 119244.000000
4164 14586 1 0.16500 119244.000000
4165 12774 1 0.16500 119244.000000
4165 16632 1 0.16500 119244.000000
4166 12774 1 0.16500 119244.000000
4166 14096 1 0.16500 119244.000000
4167 11727 1 0.16500 119244.000000
4167 12775 1 0.16500 119244.000000
4168 11727 1 0.16500 119244.000000
4168 16950 1 0.16500 119244.000000
4169 12776 1 0.16500 119244.000000
4169 14989 1 0.16500 119244.000000
4170 12776 1 0.16500 119244.000000
4170 15917 1 0.16500 119244.000000
4171 12776 1 0.16500 119244.000000
4171 14202 1 0.16500 119244.000000
4172 12777 1 0.16500 119244.000000
4172 14717 1 0.16500 119244.000000
4173 12778 1 0.16500 119244.000000
4173 14937 1 0.16500 119244.000000
4174 12778 1 0.16500 119244.000000
4174 15410 1 0.16500 119244.000000
4175 12778 1 0.16500 119244.000000
4175 12783 1 0.16500 119244.000000
4176 12779 1 0.16500 119244.000000
4176 16653 1 0.16500 119244.000000
4177 12779 1 0.16500 119244.000000
4177 15187 1 0.16500 119244.000000
4178 12779 1 0.16500 119244.000000
4178 13995 1 0.16500 119244.000000
4179 12780 1 0.16500 119244.000000
4179 12920 1 0.16500 119244.000000
4180 12780 1 0.16500 119244.000000
4180 16037 1 0.16500 119244.000000
4181 12780 1 0.16500 119244.000000
4181 13952 1 0.16500 119244.000000
4182 12781 1 0.16500 119244.000000
4182 13065 1 0.16500 119244.000000
4183 12781 1 0.16500 119244.000000
4183 16083 1 0.16500 119244.000000
4184 12782 1 0.16500 119244.000000
4184 13265 1 0.16500 119244.000000
4185 12782 1 0.16500 119244.000000
4185 15737 1 0.16500 119244.000000
4186 12783 1 0.16500 119244.000000
4186 15648 1 0.16500 119244.000000
4187 12783 1 0.16500 119244.000000
4187 15486 1 0.16500 119244.000000
4188 12783 1 0.16500 119244.000000
4188 15965 1 0.16500 119244.000000
4189 12784 1 0.16500 119244.000000
4189 13700 1 0.16500 119244.000000
4190 12784 1 0.16500 119244.000000
4190 16573 1 0.16500 119244.000000
4191 12785 1 0.16500 119244.000000
4191 13054 1 0.16500 119244.000000
4192 12785 1 0.16500 119244.000000
4192 14646 1 0.16500 119244.000000
4193 12785 1 0.16500 119244.000000
4193 13100 1 0.16500 119244.000000
4194 12786 1 0.16500 119244.000000
4194 13021 1 0.16500 119244.000000
4195 12786 1 0.16500 119244.000000
4195 16933 1 0.16500 119244.000000
4196 12786 1 0.16500 119244.000000
4196 14082 1 0.16500 119244.000000
4197 12787 1 0.16500 119244.000000
4197 14103 1 0.16500 119244.000000
4198 12787 1 0.16500 119244.000000
4198 16247 1 0.16500 119244.000000
4199 12787 1 0.16500 119244.000000
4199 14023 1 0.16500 119244.000000
4200 12787 1 0.16500 119244.000000
4200 16361 1 0.16500 119244.000000
4201 12788 1 0.16500 119244.000000
4201 14715 1 0.16500 119244.000000
4202 12788 1 0.16500 119244.000000
4202 16154 1 0.16500 119244.000000
4203 12788 1 0.16500 119244.000000
4203 15647 1 0.16500 119244.000000
4204 12788 1 0.16500 119244.000000
4204 16826 1 0.16500 119244.000000
4205 12789 1 0.16500 119244.000000
4205 16998 1 0.16500 119244.000000
4206 12789 1 0.16500 119244.000000
4206 13643 1 0.16500 119244.000000
4207 12789 1 0.16500 119244.000000
4207 17605 1 0.16500 119244.000000
4208 12790 1 0.16500 119244.000000
4208 16828 1 0.16500 119244.000000
4209 12790 1 0.16500 119244.000000
4209 17905 1 0.16500 119244.000000
4210 12791 1 0.16500 119244.000000
4210 13148 1 0.16500 119244.000000
4211 12791 1 0.16500 119244.000000
4211 13479 1 0.16500 119244.000000
4212 12791 1 0.16500 119244.000000
4212 14477 1 0.16500 119244.000000
4213 12792 1 0.16500 119244.000000
4213 14164 1 0.16500 119244.000000
4214 12792 1 0.16500 119244.000000
4214 14760 1 0.16500 119244.000000
4215 12792 1 0.16500 119244.000000
4215 16821 1 0.16500 119244.000000
4216 12792 1 0.16500 119244.000000
4216 14249 1 0.16500 119244.000000
4217 12793 1 0.16500 119244.000000
4217 16574 1 0.16500 119244.000000
4218 12793 1 0.16500 119244.000000
4218 17126 1 0.16500 119244.000000
4219 12793 1 0.16500 119244.000000
4219 14789 1 0.16500 119244.000000
4220 12793 1 0.16500 119244.000000
4220 14341 1 0.16500 119244.000000
4221 12794 1 0.16500 119244.000000
4221 16530 1 0.16500 119244.000000
4222 12794 1 0.16500 119244.000000
4222 13075 1 0.16500 119244.000000
4223 12794 1 0.16500 119244.000000
4223 13521 1 0.16500 119244.000000
4224 12794 1 0.16500 119244.000000
4224 17464 1 0.16500 119244.000000
4225 12795 1 0.16500 119244.000000
4225 14027 1 0.16500 119244.000000
4226 12795 1 0.16500 119244.000000
4226 14461 1 0.16500 119244.000000
4227 12795 1 0.16500 119244.000000
4227 13893 1 0.16500 119244.000000
4228 12795 1 0.16500 119244.000000
4228 13722 1 0.16500 119244.000000
4229 12796 1 0.16500 119244.000000
4229 13977 1 0.16500 119244.000000
4230 12796 1 0.16500 119244.000000
4230 15342 1 0.16500 119244.000000
4231 12796 1 0.16500 119244.000000
4231 14064 1 0.16500 119244.000000
4232 12797 1 0.16500 119244.000000
4232 13045 1 0.16500 119244.000000
4233 12797 1 0.16500 119244.000000
4233 14988 1 0.16500 119244.000000
4234 12797 1 0.16500 119244.000000
4234 15566 1 0.16500 119244.000000
4235 12797 1 0.16500 119244.000000
4235 16131 1 0.16500 119244.000000
4236 14270 1 0.16500 119244.000000
4236 17374 1 0.16500 119244.000000
4237 12798 1 0.16500 119244.000000
4237 13631 1 0.16500 119244.000000
4238 12798 1 0.16500 119244.000000
4238 17962 1 0.16500 119244.000000
4239 12798 1 0.16500 119244.000000
4239 13643 1 0.16500 119244.000000
4240 12798 1 0.16500 119244.000000
4240 16424 1 0.16500 119244.000000
4241 12799 1 0.16500 119244.000000
4241 15443 1 0.16500 119244.000000
4242 12799 1 0.16500 119244.000000
4242 14408 1 0.16500 119244.000000
4243 12799 1 0.16500 119244.000000
4243 16503 1 0.16500 119244.000000
4244 12800 1 0.16500 119244.000000
4244 13036 1 0.16500 119244.000000
4245 12800 1 0.16500 119244.000000
4245 12850 1 0.16500 119244.000000
4246 12800 1 0.16500 119244.000000
4246 15981 1 0.16500 119244.000000
4247 12800 1 0.16500 119244.000000
4247 15286 1 0.16500 119244.000000
4248 12801 1 0.16500 119244.000000
4248 15871 1 0.16500 119244.000000
4249 12801 1 0.16500 119244.000000
4249 14561 1 0.16500 119244.000000
4250 12801 1 0.16500 119244.000000
4250 14266 1 0.16500 119244.000000
4251 12801 1 0.16500 119244.000000
4251 16933 1 0.16500 119244.000000
4252 12802 1 0.16500 119244.000000
4252 15766 1 0.16500 119244.000000
4253 12802 1 0.16500 119244.000000
4253 13436 1 0.16500 119244.000000
4254 12802 1 0.16500 119244.000000
4254 13778 1 0.16500 119244.000000
4255 12803 1 0.16500 119244.000000
4255 15601 1 0.16500 119244.000000
4256 12803 1 0.16500 119244.000000
4256 14681 1 0.16500 119244.000000
4257 12803 1 0.16500 119244.000000
4257 16879 1 0.16500 119244.000000
4258 12803 1 0.16500 119244.000000
4258 16575 1 0.16500 119244.000000
4259 12804 1 0.16500 119244.000000
4259 13961 1 0.16500 119244.000000
4260 12804 1 0.16500 119244.000000
4260 14116 1 0.16500 119244.000000
4261 12804 1 0.16500 119244.000000
4261 15180 1 0.16500 119244.000000
4262 12805 1 0.16500 119244.000000
4262 12945 1 0.16500 119244.000000
4263 12805 1 0.16500 119244.000000
4263 15425 1 0.16500 119244.000000
4264 12805 1 0.16500 119244.000000
4264 17153 1 0.16500 119244.000000
4265 12805 1 0.16500 119244.000000
4265 16485 1 0.16500 119244.000000
4266 12806 1 0.16500 119244.000000
4266 14725 1 0.16500 119244.000000
4267 12806 1 0.16500 119244.000000
4267 13649 1 0.16500 119244.000000
4268 12806 1 0.16500 119244.000000
4268 15820 1 0.16500 119244.000000
4269 12806 1 0.16500 119244.000000
4269 15484 1 0.16500 119244.000000
4270 12807 1 0.16500 119244.000000
4270 14342 1 0.16500 119244.000000
4271 12807 1 0.16500 119244.000000
4271 14222 1 0.16500 119244.000000
4272 12808 1 0.16500 119244.000000
4272 12813 1 0.16500 119244.000000
4273 12808 1 0.16500 119244.000000
4273 15953 1 0.16500 119244.000000
4274 12808 1 0.16500 119244.000000
4274 15714 1 0.16500 119244.000000
4275 12808 1 0.16500 119244.000000
4275 15793 1 0.16500 119244.000000
4276 12809 1 0.16500 119244.000000
4276 15423 1 0.16500 119244.000000
4277 12809 1 0.16500 119244.000000
4277 17064 1 0.16500 119244.000000
4278 12810 1 0.16500 119244.000000
4278 17491 1 0.16500 119244.000000
4279 12810 1 0.16500 119244.000000
4279 16407 1 0.16500 119244.000000
4280 12810 1 0.16500 119244.000000
4280 14183 1 0.16500 119244.000000
4281 12810 1 0.16500 119244.000000
4281 17653 1 0.16500 119244.000000
4282 12811 1 0.16500 119244.000000
4282 15958 1 0.16500 119244.000000
4283 12811 1 0.16500 119244.000000
4283 17031 1 0.16500 119244.000000
4284 12812 1 0.16500 119244.000000
4284 15416 1 0.16500 119244.000000
4285 12867 1 0.16500 119244.000000
4285 15416 1 0.16500 119244.000000
4286 12812 1 0.16500 119244.000000
4286 13450 1 0.16500 119244.000000
4287 12813 1 0.16500 119244.000000
4287 15390 1 0.16500 119244.000000
4288 12813 1 0.16500 119244.000000
4288 12963 1 0.16500 119244.000000
4289 12813 1 0.16500 119244.000000
4289 14983 1 0.16500 119244.000000
4290 12814 1 0.16500 119244.000000
4290 17188 1 0.16500 119244.000000
4291 12814 1 0.16500 119244.000000
4291 13331 1 0.16500 119244.000000
4292 12814 1 0.16500 119244.000000
4292 16764 1 0.16500 119244.000000
4293 12814 1 0.16500 119244.000000
4293 13457 1 0.16500 119244.000000
4294 12815 1 0.16500 119244.000000
4294 14360 1 0.16500 119244.000000
4295 11774 1 0.16500 119244.000000
4295 14208 1 0.16500 119244.000000
4296 12815 1 0.16500 119244.000000
4296 14967 1 0.16500 119244.000000
4297 12816 1 0.16500 119244.000000
4297 13714 1 0.16500 119244.000000
4298 12816 1 0.16500 119244.000000
4298 16631 1 0.16500 119244.000000
4299 12817 1 0.16500 119244.000000
4299 14829 1 0.16500 119244.000000
4300 12817 1 0.16500 119244.000000
4300 17052 1 0.16500 119244.000000
4301 12817 1 0.16500 119244.000000
4301 15419 1 0.16500 119244.000000
4302 12818 1 0.16500 119244.000000
4302 12899 1 0.16500 119244.000000
4303 12899 1 0.16500 119244.000000
4303 15360 1 0.16500 119244.000000
4304 12818 1 0.16500 119244.000000
4304 14632 1 0.16500 119244.000000
4305 12819 1 0.16500 119244.000000
4305 15656 1 0.16500 119244.000000
4306 12819 1 0.16500 119244.000000
4306 13914 1 0.16500 119244.000000
4307 12819 1 0.16500 119244.000000
4307 13966 1 0.16500 119244.000000
4308 12819 1 0.16500 119244.000000
4308 16223 1 0.16500 119244.000000
4309 12820 1 0.16500 119244.000000
4309 12856 1 0.16500 119244.000000
4310 12820 1 0.16500 119244.000000
4310 14966 1 0.16500 119244.000000
4311 12820 1 0.16500 119244.000000
4311 16080 1 0.16500 119244.000000
4312 12821 1 0.16500 119244.000000
4312 13374 1 0.16500 119244.000000
4313 12821 1 0.16500 119244.000000
4313 16774 1 0.16500 119244.000000
4314 12822 1 0.16500 119244.000000
4314 15820 1 0.16500 119244.000000
4315 12822 1 0.16500 119244.000000
4315 14413 1 0.16500 119244.000000
4316 12822 1 0.16500 119244.000000
4316 16684 1 0.16500 119244.000000
4317 12823 1 0.16500 119244.000000
4317 16687 1 0.16500 119244.000000
4318 12823 1 0.16500 119244.000000
4318 15023 1 0.16500 119244.000000
4319 12823 1 0.16500 119244.000000
4319 14107 1 0.16500 119244.000000
4320 14107 1 0.16500 119244.000000
4320 17008 1 0.16500 119244.000000
4321 12824 1 0.16500 119244.000000
4321 13938 1 0.16500 119244.000000
4322 12824 1 0.16500 119244.000000
4322 12971 1 0.16500 119244.000000
4323 12824 1 0.16500 119244.000000
4323 15209 1 0.16500 119244.000000
4324 12824 1 0.16500 119244.000000
4324 14131 1 0.16500 119244.000000
4325 12825 1 0.16500 119244.000000
4325 14458 1 0.16500 119244.000000
4326 12825 1 0.16500 119244.000000
4326 17025 1 0.16500 119244.000000
4327 12826 1 0.16500 119244.000000
4327 13156 1 0.16500 119244.000000
4328 12826 1 0.16500 119244.000000
4328 15477 1 0.16500 119244.000000
4329 12826 1 0.16500 119244.000000
4329 15199 1 0.16500 119244.000000
4330 12826 1 0.16500 119244.000000
4330 14604 1 0.16500 119244.000000
4331 12827 1 0.16500 119244.000000
4331 15462 1 0.16500 119244.000000
4332 12614 1 0.16500 119244.000000
4332 12827 1 0.16500 119244.000000
4333 12827 1 0.16500 119244.000000
4333 16335 1 0.16500 119244.000000
4334 12827 1 0.16500 119244.000000
4334 15615 1 0.16500 119244.000000
4335 12828 1 0.16500 119244.000000
4335 14854 1 0.16500 119244.000000
4336 12828 1 0.16500 119244.000000
4336 13983 1 0.16500 119244.000000
4337 12828 1 0.16500 119244.000000
4337 16792 1 0.16500 119244.000000
4338 12829 1 0.16500 119244.000000
4338 17461 1 0.16500 119244.000000
4339 12829 1 0.16500 119244.000000
4339 16570 1 0.16500 119244.000000
4340 12829 1 0.16500 119244.000000
4340 17677 1 0.16500 119244.000000
4341 12830 1 0.16500 119244.000000
4341 15710 1 0.16500 119244.000000
4342 12830 1 0.16500 119244.000000
4342 17107 1 0.16500 119244.000000
4343 12830 1 0.16500 119244.000000
4343 15284 1 0.16500 119244.000000
4344 12830 1 0.16500 119244.000000
4344 15009 1 0.16500 119244.000000
4345 12831 1 0.16500 119244.000000
4345 15368 1 0.16500 119244.000000
4346 12831 1 0.16500 119244.000000
4346 14396 1 0.16500 119244.000000
4347 12831 1 0.16500 119244.000000
4347 14651 1 0.16500 119244.000000
4348 12831 1 0.16500 119244.000000
4348 15923 1 0.16500 119244.000000
4349 12832 1 0.16500 119244.000000
4349 13435 1 0.16500 119244.000000
4350 12832 1 0.16500 119244.000000
4350 14900 1 0.16500 119244.000000
4351 12832 1 0.16500 119244.000000
4351 15938 1 0.16500 119244.000000
4352 12832 1 0.16500 119244.000000
4352 15586 1 0.16500 119244.000000
4353 12833 1 0.16500 119244.000000
4353 13870 1 0.16500 119244.000000
4354 12833 1 0.16500 119244.000000
4354 13249 1 0.16500 119244.000000
4355 12833 1 0.16500 119244.000000
4355 15236 1 0.16500 119244.000000
4356 12833 1 0.16500 119244.000000
4356 14737 1 0.16500 119244.000000
4357 12834 1 0.16500 119244.000000
4357 16616 1 0.16500 119244.000000
4358 12834 1 0.16500 119244.000000
4358 15892 1 0.16500 119244.000000
4359 12834 1 0.16500 119244.000000
4359 13738 1 0.16500 119244.000000
4360 12834 1 0.16500 119244.000000
4360 16582 1 0.16500 119244.000000
4361 12835 1 0.16500 119244.000000
4361 16473 1 0.16500 119244.000000
4362 12835 1 0.16500 119244.000000
4362 14094 1 0.16500 119244.000000
4363 12835 1 0.16500 119244.000000
4363 17791 1 0.16500 119244.000000
4364 12835 1 0.16500 119244.000000
4364 12908 1 0.16500 119244.000000
4365 12836 1 0.16500 119244.000000
4365 16909 1 0.16500 119244.000000
4366 12836 1 0.16500 119244.000000
4366 13815 1 0.16500 119244.000000
4367 12836 1 0.16500 119244.000000
4367 16057 1 0.16500 119244.000000
4368 12836 1 0.16500 119244.000000
4368 13339 1 0.16500 119244.000000
4369 12837 1 0.16500 119244.000000
4369 15706 1 0.16500 119244.000000
4370 12837 1 0.16500 119244.000000
4370 15786 1 0.16500 119244.000000
4371 12837 1 0.16500 119244.000000
4371 12889 1 0.16500 119244.000000
4372 12838 1 0.16500 119244.000000
4372 16231 1 0.16500 119244.000000
4373 12838 1 0.16500 119244.000000
4373 16748 1 0.16500 119244.000000
4374 12839 1 0.16500 119244.000000
4374 13649 1 0.16500 119244.000000
4375 12840 1 0.16500 119244.000000
4375 14795 1 0.16500 119244.000000
4376 12840 1 0.16500 119244.000000
4376 14103 1 0.16500 119244.000000
4377 12841 1 0.16500 119244.000000
4377 15362 1 0.16500 119244.000000
4378 12841 1 0.16500 119244.000000
4378 14857 1 0.16500 119244.000000
4379 12841 1 0.16500 119244.000000
4379 16293 1 0.16500 119244.000000
4380 12842 1 0.16500 119244.000000
4380 16571 1 0.16500 119244.000000
4381 12842 1 0.16500 119244.000000
4381 13040 1 0.16500 119244.000000
4382 12843 1 0.16500 119244.000000
4382 14004 1 0.16500 119244.000000
4383 12843 1 0.16500 119244.000000
4383 13964 1 0.16500 119244.000000
4384 12843 1 0.16500 119244.000000
4384 17147 1 0.16500 119244.000000
4385 12844 1 0.16500 119244.000000
4385 16810 1 0.16500 119244.000000
4386 12844 1 0.16500 119244.000000
4386 16610 1 0.16500 119244.000000
4387 12844 1 0.16500 119244.000000
4387 15470 1 0.16500 119244.000000
4388 12844 1 0.16500 119244.000000
4388 15775 1 0.16500 119244.000000
4389 12845 1 0.16500 119244.000000
4389 16408 1 0.16500 119244.000000
4390 12845 1 0.16500 119244.000000
4390 15130 1 0.16500 119244.000000
4391 12846 1 0.16500 119244.000000
4391 17692 1 0.16500 119244.000000
4392 12996 1 0.16500 119244.000000
4392 17692 1 0.16500 119244.000000
4393 12846 1 0.16500 119244.000000
4393 13638 1 0.16500 119244.000000
4394 12847 1 0.16500 119244.000000
4394 16065 1 0.16500 119244.000000
4395 12847 1 0.16500 119244.000000
4395 14494 1 0.16500 119244.000000
4396 12847 1 0.16500 119244.000000
4396 15246 1 0.16500 119244.000000
4397 12847 1 0.16500 119244.000000
4397 14598 1 0.16500 119244.000000
4398 12848 1 0.16500 119244.000000
4398 16579 1 0.16500 119244.000000
4399 12848 1 0.16500 119244.000000
4399 14525 1 0.16500 119244.000000
4400 12848 1 0.16500 119244.000000
4400 15132 1 0.16500 119244.000000
4401 12849 1 0.16500 119244.000000
4401 15404 1 0.16500 119244.000000
4402 12849 1 0.16500 119244.000000
4402 14447 1 0.16500 119244.000000
4403 12849 1 0.16500 119244.000000
4403 16353 1 0.16500 119244.000000
4404 12850 1 0.16500 119244.000000
4404 16862 1 0.16500 119244.000000
4405 12850 1 0.16500 119244.000000
4405 15315 1 0.16500 119244.000000
4406 12850 1 0.16500 119244.000000
4406 14322 1 0.16500 119244.000000
4407 12851 1 0.16500 119244.000000
4407 14020 1 0.16500 119244.000000
4408 12851 1 0.16500 119244.000000
4408 15103 1 0.16500 119244.000000
4409 12851 1 0.16500 119244.000000
4409 15428 1 0.16500 119244.000000
4410 12852 1 0.16500 119244.000000
4410 16585 1 0.16500 119244.000000
4411 12852 1 0.16500 119244.000000
4411 13569 1 0.16500 119244.000000
4412 12852 1 0.16500 119244.000000
4412 13789 1 0.16500 119244.000000
4413 12853 1 0.16500 119244.000000
4413 17076 1 0.16500 119244.000000
4414 12853 1 0.16500 119244.000000
4414 17005 1 0.16500 119244.000000
4415 12853 1 0.16500 119244.000000
4415 15298 1 0.16500 119244.000000
4416 12853 1 0.16500 119244.000000
4416 16603 1 0.16500 119244.000000
4417 12854 1 0.16500 119244.000000
4417 13960 1 0.16500 119244.000000
4418 12854 1 0.16500 119244.000000
4418 12919 1 0.16500 119244.000000
4419 12540 1 0.16500 119244.000000
4419 17656 1 0.16500 119244.000000
4420 12855 1 0.16500 119244.000000
4420 12921 1 0.16500 119244.000000
4421 12855 1 0.16500 119244.000000
4421 14871 1 0.16500 119244.000000
4422 12855 1 0.16500 119244.000000
4422 12935 1 0.16500 119244.000000
4423 12856 1 0.16500 119244.000000
4423 16725 1 0.16500 119244.000000
4424 12856 1 0.16500 119244.000000
4424 15710 1 0.16500 119244.000000
4425 12857 1 0.16500 119244.000000
4425 15036 1 0.16500 119244.000000
4426 12857 1 0.16500 119244.000000
4426 15644 1 0.16500 119244.000000
4427 12857 1 0.16500 119244.000000
4427 13192 1 0.16500 119244.000000
4428 12858 1 0.16500 119244.000000
4428 14785 1 0.16500 119244.000000
4429 12858 1 0.16500 119244.000000
4429 13313 1 0.16500 119244.000000
4430 12858 1 0.16500 119244.000000
4430 13554 1 0.16500 119244.000000
4431 12858 1 0.16500 119244.000000
4431 17197 1 0.16500 119244.000000
4432 12859 1 0.16500 119244.000000
4432 16854 1 0.16500 119244.000000
4433 12859 1 0.16500 119244.000000
4433 13762 1 0.16500 119244.000000
4434 12859 1 0.16500 119244.000000
4434 14826 1 0.16500 119244.000000
4435 13548 1 0.16500 119244.000000
4435 17377 1 0.16500 119244.000000
4436 12860 1 0.16500 119244.000000
4436 14533 1 0.16500 119244.000000
4437 12860 1 0.16500 119244.000000
4437 16457 1 0.16500 119244.000000
4438 12860 1 0.16500 119244.000000
4438 15879 1 0.16500 119244.000000
4439 12860 1 0.16500 119244.000000
4439 15986 1 0.16500 119244.000000
4440 12861 1 0.16500 119244.000000
4440 14971 1 0.16500 119244.000000
4441 12861 1 0.16500 119244.000000
4441 13489 1 0.16500 119244.000000
4442 12862 1 0.16500 119244.000000
4442 14472 1 0.16500 119244.000000
4443 12862 1 0.16500 119244.000000
4443 13447 1 0.16500 119244.000000
4444 11705 1 0.16500 119244.000000
4444 12862 1 0.16500 119244.000000
4445 12862 1 0.16500 119244.000000
4445 17052 1 0.16500 119244.000000
4446 12863 1 0.16500 119244.000000
4446 15721 1 0.16500 119244.000000
4447 12863 1 0.16500 119244.000000
4447 15772 1 0.16500 119244.000000
4448 12863 1 0.16500 119244.000000
4448 17185 1 0.16500 119244.000000
4449 12863 1 0.16500 119244.000000
4449 13321 1 0.16500 119244.000000
4450 12864 1 0.16500 119244.000000
4450 16249 1 0.16500 119244.000000
4451 12864 1 0.16500 119244.000000
4451 15804 1 0.16500 119244.000000
4452 12864 1 0.16500 119244.000000
4452 16980 1 0.16500 119244.000000
4453 12865 1 0.16500 119244.000000
4453 14483 1 0.16500 119244.000000
4454 12865 1 0.16500 119244.000000
4454 17413 1 0.16500 119244.000000
4455 12865 1 0.16500 119244.000000
4455 13868 1 0.16500 119244.000000
4456 12866 1 0.16500 119244.000000
4456 15642 1 0.16500 119244.000000
4457 12866 1 0.16500 119244.000000
4457 13370 1 0.16500 119244.000000
4458 12866 1 0.16500 119244.000000
4458 13020 1 0.16500 119244.000000
4459 12867 1 0.16500 119244.000000
4459 13219 1 0.16500 119244.000000
4460 12867 1 0.16500 119244.000000
4460 13965 1 0.16500 119244.000000
4461 12868 1 0.16500 119244.000000
4461 14598 1 0.16500 119244.000000
4462 12868 1 0.16500 119244.000000
4462 12900 1 0.16500 119244.000000
4463 11836 1 0.16500 119244.000000
4463 12868 1 0.16500 119244.000000
4464 12869 1 0.16500 119244.000000
4464 13391 1 0.16500 119244.000000
4465 12869 1 0.16500 119244.000000
4465 16682 1 0.16500 119244.000000
4466 12870 1 0.16500 119244.000000
4466 13417 1 0.16500 119244.000000
4467 12870 1 0.16500 119244.000000
4467 14825 1 0.16500 119244.000000
4468 12870 1 0.16500 119244.000000
4468 13612 1 0.16500 119244.000000
4469 12871 1 0.16500 119244.000000
4469 16677 1 0.16500 119244.000000
4470 12871 1 0.16500 119244.000000
4470 14741 1 0.16500 119244.000000
4471 12871 1 0.16500 119244.000000
4471 15875 1 0.16500 119244.000000
4472 12871 1 0.16500 119244.000000
4472 14943 1 0.16500 119244.000000
4473 12872 1 0.16500 119244.000000
4473 14977 1 0.16500 119244.000000
4474 12872 1 0.16500 119244.000000
4474 15319 1 0.16500 119244.000000
4475 12872 1 0.16500 119244.000000
4475 14889 1 0.16500 119244.000000
4476 12873 1 0.16500 119244.000000
4476 15926 1 0.16500 119244.000000
4477 12873 1 0.16500 119244.000000
4477 17156 1 0.16500 119244.000000
4478 12873 1 0.16500 119244.000000
4478 16676 1 0.16500 119244.000000
4479 12874 1 0.16500 119244.000000
4479 15937 1 0.16500 119244.000000
4480 14816 1 0.16500 119244.000000
4480 16721 1 0.16500 119244.000000
4481 12874 1 0.16500 119244.000000
4481 16721 1 0.16500 119244.000000
4482 12875 1 0.16500 119244.000000
4482 14006 1 0.16500 119244.000000
4483 12875 1 0.16500 119244.000000
4483 14161 1 0.16500 119244.000000
4484 12875 1 0.16500 119244.000000
4484 14769 1 0.16500 119244.000000
4485 12875 1 0.16500 119244.000000
4485 16959 1 0.16500 119244.000000
4486 12876 1 0.16500 119244.000000
4486 15981 1 0.16500 119244.000000
4487 12876 1 0.16500 119244.000000
4487 15634 1 0.16500 119244.000000
4488 12876 1 0.16500 119244.000000
4488 14010 1 0.16500 119244.000000
4489 12876 1 0.16500 119244.000000
4489 17104 1 0.16500 119244.000000
4490 12877 1 0.16500 119244.000000
4490 14538 1 0.16500 119244.000000
4491 12877 1 0.16500 119244.000000
4491 16710 1 0.16500 119244.000000
4492 12877 1 0.16500 119244.000000
4492 13374 1 0.16500 119244.000000
4493 12877 1 0.16500 119244.000000
4493 15035 1 0.16500 119244.000000
4494 12878 1 0.16500 119244.000000
4494 17776 1 0.16500 119244.000000
4495 15039 1 0.16500 119244.000000
4495 16512 1 0.16500 119244.000000
4496 12878 1 0.16500 119244.000000
4496 15039 1 0.16500 119244.000000
4497 12878 1 0.16500 119244.000000
4497 16294 1 0.16500 119244.000000
4498 12879 1 0.16500 119244.000000
4498 13806 1 0.16500 119244.000000
4499 12879 1 0.16500 119244.000000
4499 13467 1 0.16500 119244.000000
4500 12879 1 0.16500 119244.000000
4500 16060 1 0.16500 119244.000000
4501 12880 1 0.16500 119244.000000
4501 16265 1 0.16500 119244.000000
4502 12880 1 0.16500 119244.000000
4502 17093 1 0.16500 119244.000000
4503 12880 1 0.16500 119244.000000
4503 17032 1 0.16500 119244.000000
4504 12881 1 0.16500 119244.000000
4504 16531 1 0.16500 119244.000000
4505 12881 1 0.16500 119244.000000
4505 16686 1 0.16500 119244.000000
4506 12881 1 0.16500 119244.000000
4506 15465 1 0.16500 119244.000000
4507 12882 1 0.16500 119244.000000
4507 16761 1 0.16500 119244.000000
4508 12882 1 0.16500 119244.000000
4508 17003 1 0.16500 119244.000000
4509 12883 1 0.16500 119244.000000
4509 15162 1 0.16500 119244.000000
4510 12883 1 0.16500 119244.000000
4510 16128 1 0.16500 119244.000000
4511 13552 1 0.16500 119244.000000
4511 17383 1 0.16500 119244.000000
4512 14415 1 0.16500 119244.000000
4512 17383 1 0.16500 119244.000000
4513 17383 1 0.16500 119244.000000
4513 17497 1 0.16500 119244.000000
4514 13851 1 0.16500 119244.000000
4514 17542 1 0.16500 119244.000000
4515 14887 1 0.16500 119244.000000
4515 17386 1 0.16500 119244.000000
4516 14337 1 0.16500 119244.000000
4516 17386 1 0.16500 119244.000000
4517 17386 1 0.16500 119244.000000
4517 17950 1 0.16500 119244.000000
4518 12884 1 0.16500 119244.000000
4518 16181 1 0.16500 119244.000000
4519 12884 1 0.16500 119244.000000
4519 16854 1 0.16500 119244.000000
4520 12884 1 0.16500 119244.000000
4520 17056 1 0.16500 119244.000000
4521 12884 1 0.16500 119244.000000
4521 13131 1 0.16500 119244.000000
4522 12885 1 0.16500 119244.000000
4522 15442 1 0.16500 119244.000000
4523 12885 1 0.16500 119244.000000
4523 15717 1 0.16500 119244.000000
4524 12886 1 0.16500 119244.000000
4524 15936 1 0.16500 119244.000000
4525 12886 1 0.16500 119244.000000
4525 14647 1 0.16500 119244.000000
4526 12887 1 0.16500 119244.000000
4526 13732 1 0.16500 119244.000000
4527 12887 1 0.16500 119244.000000
4527 16267 1 0.16500 119244.000000
4528 11892 1 0.16500 119244.000000
4528 12887 1 0.16500 119244.000000
4529 12887 1 0.16500 119244.000000
4529 16390 1 0.16500 119244.000000
4530 12888 1 0.16500 119244.000000
4530 16894 1 0.16500 119244.000000
4531 12889 1 0.16500 119244.000000
4531 16948 1 0.16500 119244.000000
4532 12889 1 0.16500 119244.000000
4532 17023 1 0.16500 119244.000000
4533 12232 1 0.16500 119244.000000
4533 12889 1 0.16500 119244.000000
4534 12890 1 0.16500 119244.000000
4534 15848 1 0.16500 119244.000000
4535 12890 1 0.16500 119244.000000
4535 14749 1 0.16500 119244.000000
4536 12891 1 0.16500 119244.000000
4536 15650 1 0.16500 119244.000000
4537 12891 1 0.16500 119244.000000
4537 15526 1 0.16500 119244.000000
4538 12891 1 0.16500 119244.000000
4538 16714 1 0.16500 119244.000000
4539 12892 1 0.16500 119244.000000
4539 15313 1 0.16500 119244.000000
4540 12893 1 0.16500 119244.000000
4540 15049 1 0.16500 119244.000000
4541 12893 1 0.16500 119244.000000
4541 16389 1 0.16500 119244.000000
4542 12893 1 0.16500 119244.000000
4542 15576 1 0.16500 119244.000000
4543 12894 1 0.16500 119244.000000
4543 14364 1 0.16500 119244.000000
4544 12894 1 0.16500 119244.000000
4544 14424 1 0.16500 119244.000000
4545 12894 1 0.16500 119244.000000
4545 13070 1 0.16500 119244.000000
4546 12895 1 0.16500 119244.000000
4546 14704 1 0.16500 119244.000000
4547 12895 1 0.16500 119244.000000
4547 13616 1 0.16500 119244.000000
4548 12895 1 0.16500 119244.000000
4548 14644 1 0.16500 119244.000000
4549 12895 1 0.16500 119244.000000
4549 16964 1 0.16500 119244.000000
4550 12896 1 0.16500 119244.000000
4550 16178 1 0.16500 119244.000000
4551 12896 1 0.16500 119244.000000
4551 14886 1 0.16500 119244.000000
4552 12896 1 0.16500 119244.000000
4552 15733 1 0.16500 119244.000000
4553 14464 1 0.16500 119244.000000
4553 15145 1 0.16500 119244.000000
4554 12897 1 0.16500 119244.000000
4554 13496 1 0.16500 119244.000000
4555 12897 1 0.16500 119244.000000
4555 16979 1 0.16500 119244.000000
4556 12897 1 0.16500 119244.000000
4556 15145 1 0.16500 119244.000000
4557 12898 1 0.16500 119244.000000
4557 12953 1 0.16500 119244.000000
4558 12898 1 0.16500 119244.000000
4558 16715 1 0.16500 119244.000000
4559 12898 1 0.16500 119244.000000
4559 14277 1 0.16500 119244.000000
4560 12818 1 0.16500 119244.000000
4560 17067 1 0.16500 119244.000000
4561 12899 1 0.16500 119244.000000
4561 17083 1 0.16500 119244.000000
4562 12899 1 0.16500 119244.000000
4562 15250 1 0.16500 119244.000000
4563 12900 1 0.16500 119244.000000
4563 14589 1 0.16500 119244.000000
4564 12900 1 0.16500 119244.000000
4564 13650 1 0.16500 119244.000000
4565 12901 1 0.16500 119244.000000
4565 16163 1 0.16500 119244.000000
4566 12901 1 0.16500 119244.000000
4566 15972 1 0.16500 119244.000000
4567 12902 1 0.16500 119244.000000
4567 16037 1 0.16500 119244.000000
4568 12903 1 0.16500 119244.000000
4568 14688 1 0.16500 119244.000000
4569 12903 1 0.16500 119244.000000
4569 13690 1 0.16500 119244.000000
4570 12903 1 0.16500 119244.000000
4570 17139 1 0.16500 119244.000000
4571 12903 1 0.16500 119244.000000
4571 13061 1 0.16500 119244.000000
4572 12904 1 0.16500 119244.000000
4572 15491 1 0.16500 119244.000000
4573 12904 1 0.16500 119244.000000
4573 16252 1 0.16500 119244.000000
4574 12904 1 0.16500 119244.000000
4574 15577 1 0.16500 119244.000000
4575 12905 1 0.16500 119244.000000
4575 15712 1 0.16500 119244.000000
4576 12905 1 0.16500 119244.000000
4576 17542 1 0.16500 119244.000000
4577 12905 1 0.16500 119244.000000
4577 17656 1 0.16500 119244.000000
4578 12905 1 0.16500 119244.000000
4578 13482 1 0.16500 119244.000000
4579 12906 1 0.16500 119244.000000
4579 13944 1 0.16500 119244.000000
4580 12906 1 0.16500 119244.000000
4580 15829 1 0.16500 119244.000000
4581 12906 1 0.16500 119244.000000
4581 15108 1 0.16500 119244.000000
4582 12906 1 0.16500 119244.000000
4582 15975 1 0.16500 119244.000000
4583 12907 1 0.16500 119244.000000
4583 13658 1 0.16500 119244.000000
4584 13658 1 0.16500 119244.000000
4584 15893 1 0.16500 119244.000000
4585 12908 1 0.16500 119244.000000
4585 16630 1 0.16500 119244.000000
4586 12909 1 0.16500 119244.000000
4586 15149 1 0.16500 119244.000000
4587 12909 1 0.16500 119244.000000
4587 17971 1 0.16500 119244.000000
4588 12909 1 0.16500 119244.000000
4588 14862 1 0.16500 119244.000000
4589 13209 1 0.16500 119244.000000
4589 15865 1 0.16500 119244.000000
4590 13405 1 0.16500 119244.000000
4590 15865 1 0.16500 119244.000000
4591 12910 1 0.16500 119244.000000
4591 15865 1 0.16500 119244.000000
4592 14114 1 0.16500 119244.000000
4592 15865 1 0.16500 119244.000000
4593 15134 1 0.16500 119244.000000
4593 15613 1 0.16500 119244.000000
4594 12911 1 0.16500 119244.000000
4594 15439 1 0.16500 119244.000000
4595 12911 1 0.16500 119244.000000
4595 15613 1 0.16500 119244.000000
4596 12912 1 0.16500 119244.000000
4596 13264 1 0.16500 119244.000000
4597 12912 1 0.16500 119244.000000
4597 16101 1 0.16500 119244.000000
4598 12912 1 0.16500 119244.000000
4598 16017 1 0.16500 119244.000000
4599 12913 1 0.16500 119244.000000
4599 14271 1 0.16500 119244.000000
4600 12913 1 0.16500 119244.000000
4600 13038 1 0.16500 119244.000000
4601 12913 1 0.16500 119244.000000
4601 15712 1 0.16500 119244.000000
4602 12913 1 0.16500 119244.000000
4602 15687 1 0.16500 119244.000000
4603 16796 1 0.16500 119244.000000
4603 17389 1 0.16500 119244.000000
4604 16795 1 0.16500 119244.000000
4604 17389 1 0.16500 119244.000000
4605 12914 1 0.16500 119244.000000
4605 16520 1 0.16500 119244.000000
4606 12914 1 0.16500 119244.000000
4606 12966 1 0.16500 119244.000000
4607 14241 1 0.16500 119244.000000
4607 16850 1 0.16500 119244.000000
4608 14241 1 0.16500 119244.000000
4608 16015 1 0.16500 119244.000000
4609 12915 1 0.16500 119244.000000
4609 13749 1 0.16500 119244.000000
4610 12915 1 0.16500 119244.000000
4610 15915 1 0.16500 119244.000000
4611 12915 1 0.16500 119244.000000
4611 16221 1 0.16500 119244.000000
4612 12915 1 0.16500 119244.000000
4612 16266 1 0.16500 119244.000000
4613 12916 1 0.16500 119244.000000
4613 16514 1 0.16500 119244.000000
4614 12916 1 0.16500 119244.000000
4614 14639 1 0.16500 119244.000000
4615 12916 1 0.16500 119244.000000
4615 15388 1 0.16500 119244.000000
4616 12916 1 0.16500 119244.000000
4616 15920 1 0.16500 119244.000000
4617 12917 1 0.16500 119244.000000
4617 17410 1 0.16500 119244.000000
4618 12917 1 0.16500 119244.000000
4618 15363 1 0.16500 119244.000000
4619 12917 1 0.16500 119244.000000
4619 15975 1 0.16500 119244.000000
4620 12918 1 0.16500 119244.000000
4620 16317 1 0.16500 119244.000000
4621 12918 1 0.16500 119244.000000
4621 13845 1 0.16500 119244.000000
4622 12918 1 0.16500 119244.000000
4622 14865 1 0.16500 119244.000000
4623 12919 1 0.16500 119244.000000
4623 15651 1 0.16500 119244.000000
4624 11738 1 0.16500 119244.000000
4624 12919 1 0.16500 119244.000000
4625 12780 1 0.16500 119244.000000
4625 14809 1 0.16500 119244.000000
4626 12920 1 0.16500 119244.000000
4626 15243 1 0.16500 119244.000000
4627 12920 1 0.16500 119244.000000
4627 13419 1 0.16500 119244.000000
4628 12921 1 0.16500 119244.000000
4628 15757 1 0.16500 119244.000000
4629 12921 1 0.16500 119244.000000
4629 14186 1 0.16500 119244.000000
4630 12922 1 0.16500 119244.000000
4630 13785 1 0.16500 119244.000000
4631 12922 1 0.16500 119244.000000
4631 15738 1 0.16500 119244.000000
4632 12922 1 0.16500 119244.000000
4632 13471 1 0.16500 119244.000000
4633 12922 1 0.16500 119244.000000
4633 15046 1 0.16500 119244.000000
4634 12923 1 0.16500 119244.000000
4634 14192 1 0.16500 119244.000000
4635 12923 1 0.16500 119244.000000
4635 16332 1 0.16500 119244.000000
4636 12924 1 0.16500 119244.000000
4636 17111 1 0.16500 119244.000000
4637 12924 1 0.16500 119244.000000
4637 13863 1 0.16500 119244.000000
4638 12924 1 0.16500 119244.000000
4638 13314 1 0.16500 119244.000000
4639 11744 1 0.16500 119244.000000
4639 16941 1 0.16500 119244.000000
4640 11744 1 0.16500 119244.000000
4640 14279 1 0.16500 119244.000000
4641 12926 1 0.16500 119244.000000
4641 16691 1 0.16500 119244.000000
4642 12926 1 0.16500 119244.000000
4642 15853 1 0.16500 119244.000000
4643 12926 1 0.16500 119244.000000
4643 15442 1 0.16500 119244.000000
4644 12926 1 0.16500 119244.000000
4644 13905 1 0.16500 119244.000000
4645 12927 1 0.16500 119244.000000
4645 14612 1 0.16500 119244.000000
4646 12927 1 0.16500 119244.000000
4646 16524 1 0.16500 119244.000000
4647 12927 1 0.16500 119244.000000
4647 17165 1 0.16500 119244.000000
4648 12928 1 0.16500 119244.000000
4648 12944 1 0.16500 119244.000000
4649 12928 1 0.16500 119244.000000
4649 12941 1 0.16500 119244.000000
4650 12928 1 0.16500 119244.000000
4650 13366 1 0.16500 119244.000000
4651 12929 1 0.16500 119244.000000
4651 16717 1 0.16500 119244.000000
4652 12929 1 0.16500 119244.000000
4652 17008 1 0.16500 119244.000000
4653 12929 1 0.16500 119244.000000
4653 13395 1 0.16500 119244.000000
4654 12930 1 0.16500 119244.000000
4654 13154 1 0.16500 119244.000000
4655 12930 1 0.16500 119244.000000
4655 14443 1 0.16500 119244.000000
4656 12930 1 0.16500 119244.000000
4656 13640 1 0.16500 119244.000000
4657 12930 1 0.16500 119244.000000
4657 16281 1 0.16500 119244.000000
4658 12931 1 0.16500 119244.000000
4658 14064 1 0.16500 119244.000000
4659 12931 1 0.16500 119244.000000
4659 15638 1 0.16500 119244.000000
4660 12932 1 0.16500 119244.000000
4660 17140 1 0.16500 119244.000000
4661 12932 1 0.16500 119244.000000
4661 17187 1 0.16500 119244.000000
4662 12932 1 0.16500 119244.000000
4662 16426 1 0.16500 119244.000000
4663 12932 1 0.16500 119244.000000
4663 13406 1 0.16500 119244.000000
4664 12933 1 0.16500 119244.000000
4664 14242 1 0.16500 119244.000000
4665 12933 1 0.16500 119244.000000
4665 16161 1 0.16500 119244.000000
4666 12933 1 0.16500 119244.000000
4666 15903 1 0.16500 119244.000000
4667 12934 1 0.16500 119244.000000
4667 17097 1 0.16500 119244.000000
4668 12934 1 0.16500 119244.000000
4668 16839 1 0.16500 119244.000000
4669 12934 1 0.16500 119244.000000
4669 15938 1 0.16500 119244.000000
4670 12934 1 0.16500 119244.000000
4670 13329 1 0.16500 119244.000000
4671 12935 1 0.16500 119244.000000
4671 15324 1 0.16500 119244.000000
4672 12935 1 0.16500 119244.000000
4672 14771 1 0.16500 119244.000000
4673 12935 1 0.16500 119244.000000
4673 16243 1 0.16500 119244.000000
4674 12936 1 0.16500 119244.000000
4674 14663 1 0.16500 119244.000000
4675 12936 1 0.16500 119244.000000
4675 13968 1 0.16500 119244.000000
4676 14318 1 0.16500 119244.000000
4676 15813 1 0.16500 119244.000000
4677 12936 1 0.16500 119244.000000
4677 15813 1 0.16500 119244.000000
4678 12937 1 0.16500 119244.000000
4678 13184 1 0.16500 119244.000000
4679 12937 1 0.16500 119244.000000
4679 13953 1 0.16500 119244.000000
4680 12937 1 0.16500 119244.000000
4680 16774 1 0.16500 119244.000000
4681 12937 1 0.16500 119244.000000
4681 16766 1 0.16500 119244.000000
4682 12938 1 0.16500 119244.000000
4682 16883 1 0.16500 119244.000000
4683 12938 1 0.16500 119244.000000
4683 16965 1 0.16500 119244.000000
4684 12939 1 0.16500 119244.000000
4684 14627 1 0.16500 119244.000000
4685 12939 1 0.16500 119244.000000
4685 13459 1 0.16500 119244.000000
4686 12939 1 0.16500 119244.000000
4686 14798 1 0.16500 119244.000000
4687 12939 1 0.16500 119244.000000
4687 13412 1 0.16500 119244.000000
4688 12940 1 0.16500 119244.000000
4688 15374 1 0.16500 119244.000000
4689 12940 1 0.16500 119244.000000
4689 15211 1 0.16500 119244.000000
4690 12940 1 0.16500 119244.000000
4690 13066 1 0.16500 119244.000000
4691 14836 1 0.16500 119244.000000
4691 17392 1 0.16500 119244.000000
4692 13978 1 0.16500 119244.000000
4692 17392 1 0.16500 119244.000000
4693 15463 1 0.16500 119244.000000
4693 17392 1 0.16500 119244.000000
4694 12941 1 0.16500 119244.000000
4694 16345 1 0.16500 119244.000000
4695 12941 1 0.16500 119244.000000
4695 16689 1 0.16500 119244.000000
4696 12942 1 0.16500 119244.000000
4696 13626 1 0.16500 119244.000000
4697 12942 1 0.16500 119244.000000
4697 16377 1 0.16500 119244.000000
4698 12943 1 0.16500 119244.000000
4698 15668 1 0.16500 119244.000000
4699 12943 1 0.16500 119244.000000
4699 15980 1 0.16500 119244.000000
4700 12944 1 0.16500 119244.000000
4700 14365 1 0.16500 119244.000000
4701 12944 1 0.16500 119244.000000
4701 14648 1 0.16500 119244.000000
4702 12945 1 0.16500 119244.000000
4702 16058 1 0.16500 119244.000000
4703 12945 1 0.16500 119244.000000
4703 13645 1 0.16500 119244.000000
4704 12945 1 0.16500 119244.000000
4704 14584 1 0.16500 119244.000000
4705 12946 1 0.16500 119244.000000
4705 14185 1 0.16500 119244.000000
4706 12946 1 0.16500 119244.000000
4706 15669 1 0.16500 119244.000000
4707 12946 1 0.16500 119244.000000
4707 14347 1 0.16500 119244.000000
4708 12947 1 0.16500 119244.000000
4708 14194 1 0.16500 119244.000000
4709 12947 1 0.16500 119244.000000
4709 17422 1 0.16500 119244.000000
4710 12947 1 0.16500 119244.000000
4710 15540 1 0.16500 119244.000000
4711 12948 1 0.16500 119244.000000
4711 15064 1 0.16500 119244.000000
4712 12948 1 0.16500 119244.000000
4712 14483 1 0.16500 119244.000000
4713 12948 1 0.16500 119244.000000
4713 12964 1 0.16500 119244.000000
4714 12948 1 0.16500 119244.000000
4714 15514 1 0.16500 119244.000000
4715 12949 1 0.16500 119244.000000
4715 13412 1 0.16500 119244.000000
4716 12949 1 0.16500 119244.000000
4716 14876 1 0.16500 119244.000000
4717 12950 1 0.16500 119244.000000
4717 13526 1 0.16500 119244.000000
4718 12950 1 0.16500 119244.000000
4718 16884 1 0.16500 119244.000000
4719 12950 1 0.16500 119244.000000
4719 16119 1 0.16500 119244.000000
4720 12950 1 0.16500 119244.000000
4720 14223 1 0.16500 119244.000000
4721 12951 1 0.16500 119244.000000
4721 13849 1 0.16500 119244.000000
4722 12951 1 0.16500 119244.000000
4722 13007 1 0.16500 119244.000000
4723 12951 1 0.16500 119244.000000
4723 12961 1 0.16500 119244.000000
4724 12951 1 0.16500 119244.000000
4724 14007 1 0.16500 119244.000000
4725 12952 1 0.16500 119244.000000
4725 16699 1 0.16500 119244.000000
4726 12952 1 0.16500 119244.000000
4726 17057 1 0.16500 119244.000000
4727 12952 1 0.16500 119244.000000
4727 16472 1 0.16500 119244.000000
4728 12952 1 0.16500 119244.000000
4728 15299 1 0.16500 119244.000000
4729 12953 1 0.16500 119244.000000
4729 13632 1 0.16500 119244.000000
4730 12953 1 0.16500 119244.000000
4730 13550 1 0.16500 119244.000000
4731 12953 1 0.16500 119244.000000
4731 14585 1 0.16500 119244.000000
4732 12954 1 0.16500 119244.000000
4732 14716 1 0.16500 119244.000000
4733 12954 1 0.16500 119244.000000
4733 17172 1 0.16500 119244.000000
4734 12954 1 0.16500 119244.000000
4734 13083 1 0.16500 119244.000000
4735 12954 1 0.16500 119244.000000
4735 16678 1 0.16500 119244.000000
4736 12955 1 0.16500 119244.000000
4736 14500 1 0.16500 119244.000000
4737 12955 1 0.16500 119244.000000
4737 17614 1 0.16500 119244.000000
4738 12956 1 0.16500 119244.000000
4738 15213 1 0.16500 119244.000000
4739 12956 1 0.16500 119244.000000
4739 16184 1 0.16500 119244.000000
4740 12956 1 0.16500 119244.000000
4740 16720 1 0.16500 119244.000000
4741 12956 1 0.16500 119244.000000
4741 13586 1 0.16500 119244.000000
4742 12957 1 0.16500 119244.000000
4742 14563 1 0.16500 119244.000000
4743 12957 1 0.16500 119244.000000
4743 14306 1 0.16500 119244.000000
4744 12957 1 0.16500 119244.000000
4744 13027 1 0.16500 119244.000000
4745 12958 1 0.16500 119244.000000
4745 16735 1 0.16500 119244.000000
4746 12958 1 0.16500 119244.000000
4746 13453 1 0.16500 119244.000000
4747 12959 1 0.16500 119244.000000
4747 14899 1 0.16500 119244.000000
4748 12959 1 0.16500 119244.000000
4748 16769 1 0.16500 119244.000000
4749 12959 1 0.16500 119244.000000
4749 15979 1 0.16500 119244.000000
4750 12960 1 0.16500 119244.000000
4750 13219 1 0.16500 119244.000000
4751 12960 1 0.16500 119244.000000
4751 14041 1 0.16500 119244.000000
4752 12961 1 0.16500 119244.000000
4752 14035 1 0.16500 119244.000000
4753 12961 1 0.16500 119244.000000
4753 15626 1 0.16500 119244.000000
4754 12961 1 0.16500 119244.000000
4754 16645 1 0.16500 119244.000000
4755 14349 1 0.16500 119244.000000
4755 16645 1 0.16500 119244.000000
4756 12962 1 0.16500 119244.000000
4756 13208 1 0.16500 119244.000000
4757 12962 1 0.16500 119244.000000
4757 16585 1 0.16500 119244.000000
4758 12962 1 0.16500 119244.000000
4758 15067 1 0.16500 119244.000000
4759 12963 1 0.16500 119244.000000
4759 16550 1 0.16500 119244.000000
4760 14274 1 0.16500 119244.000000
4760 14770 1 0.16500 119244.000000
4761 12963 1 0.16500 119244.000000
4761 14770 1 0.16500 119244.000000
4762 12964 1 0.16500 119244.000000
4762 14060 1 0.16500 119244.000000
4763 12964 1 0.16500 119244.000000
4763 16690 1 0.16500 119244.000000
4764 12964 1 0.16500 119244.000000
4764 13268 1 0.16500 119244.000000
4765 12965 1 0.16500 119244.000000
4765 15525 1 0.16500 119244.000000
4766 12966 1 0.16500 119244.000000
4766 15632 1 0.16500 119244.000000
4767 12966 1 0.16500 119244.000000
4767 15869 1 0.16500 119244.000000
4768 12966 1 0.16500 119244.000000
4768 15900 1 0.16500 119244.000000
4769 12967 1 0.16500 119244.000000
4769 14516 1 0.16500 119244.000000
4770 12967 1 0.16500 119244.000000
4770 14751 1 0.16500 119244.000000
4771 14148 1 0.16500 119244.000000
4771 17395 1 0.16500 119244.000000
4772 14392 1 0.16500 119244.000000
4772 17395 1 0.16500 119244.000000
4773 12968 1 0.16500 119244.000000
4773 15239 1 0.16500 119244.000000
4774 12968 1 0.16500 119244.000000
4774 13232 1 0.16500 119244.000000
4775 12968 1 0.16500 119244.000000
4775 13486 1 0.16500 119244.000000
4776 12968 1 0.16500 119244.000000
4776 15271 1 0.16500 119244.000000
4777 12969 1 0.16500 119244.000000
4777 13592 1 0.16500 119244.000000
4778 12969 1 0.16500 119244.000000
4778 13680 1 0.16500 119244.000000
4779 12969 1 0.16500 119244.000000
4779 17965 1 0.16500 119244.000000
4780 12969 1 0.16500 119244.000000
4780 13032 1 0.16500 119244.000000
4781 12970 1 0.16500 119244.000000
4781 16238 1 0.16500 119244.000000
4782 12970 1 0.16500 119244.000000
4782 15742 1 0.16500 119244.000000
4783 14139 1 0.16500 119244.000000
4783 16238 1 0.16500 119244.000000
4784 12971 1 0.16500 119244.000000
4784 16694 1 0.16500 119244.000000
4785 12971 1 0.16500 119244.000000
4785 13990 1 0.16500 119244.000000
4786 12972 1 0.16500 119244.000000
4786 16946 1 0.16500 119244.000000
4787 12972 1 0.16500 119244.000000
4787 13274 1 0.16500 119244.000000
4788 12972 1 0.16500 119244.000000
4788 14854 1 0.16500 119244.000000
4789 12667 1 0.16500 119244.000000
4789 12973 1 0.16500 119244.000000
4790 12974 1 0.16500 119244.000000
4790 16621 1 0.16500 119244.000000
4791 12974 1 0.16500 119244.000000
4791 13988 1 0.16500 119244.000000
4792 12974 1 0.16500 119244.000000
4792 17398 1 0.16500 119244.000000
4793 12975 1 0.16500 119244.000000
4793 14252 1 0.16500 119244.000000
4794 12975 1 0.16500 119244.000000
4794 13580 1 0.16500 119244.000000
4795 12976 1 0.16500 119244.000000
4795 13438 1 0.16500 119244.000000
4796 12977 1 0.16500 119244.000000
4796 15512 1 0.16500 119244.000000
4797 12977 1 0.16500 119244.000000
4797 14123 1 0.16500 119244.000000
4798 12977 1 0.16500 119244.000000
4798 15856 1 0.16500 119244.000000
4799 12977 1 0.16500 119244.000000
4799 15353 1 0.16500 119244.000000
4800 12978 1 0.16500 119244.000000
4800 16664 1 0.16500 119244.000000
4801 12979 1 0.16500 119244.000000
4801 13453 1 0.16500 119244.000000
4802 13453 1 0.16500 119244.000000
4802 16823 1 0.16500 119244.000000
4803 12979 1 0.16500 119244.000000
4803 15512 1 0.16500 119244.000000
4804 12980 1 0.16500 119244.000000
4804 16446 1 0.16500 119244.000000
4805 12980 1 0.16500 119244.000000
4805 15281 1 0.16500 119244.000000
4806 12355 1 0.16500 119244.000000
4806 13356 1 0.16500 119244.000000
4807 12981 1 0.16500 119244.000000
4807 13967 1 0.16500 119244.000000
4808 12981 1 0.16500 119244.000000
4808 15142 1 0.16500 119244.000000
4809 12981 1 0.16500 119244.000000
4809 15671 1 0.16500 119244.000000
4810 12982 1 0.16500 119244.000000
4810 14320 1 0.16500 119244.000000
4811 14320 1 0.16500 119244.000000
4811 15006 1 0.16500 119244.000000
4812 12982 1 0.16500 119244.000000
4812 15914 1 0.16500 119244.000000
4813 12983 1 0.16500 119244.000000
4813 15207 1 0.16500 119244.000000
4814 12983 1 0.16500 119244.000000
4814 13782 1 0.16500 119244.000000
4815 15763 1 0.16500 119244.000000
4815 18034 1 0.16500 119244.000000
4816 15237 1 0.16500 119244.000000
4816 18034 1 0.16500 119244.000000
4817 12984 1 0.16500 119244.000000
4817 17635 1 0.16500 119244.000000
4818 12985 1 0.16500 119244.000000
4818 16493 1 0.16500 119244.000000
4819 12985 1 0.16500 119244.000000
4819 13867 1 0.16500 119244.000000
4820 12985 1 0.16500 119244.000000
4820 15884 1 0.16500 119244.000000
4821 12986 1 0.16500 119244.000000
4821 13112 1 0.16500 119244.000000
4822 12986 1 0.16500 119244.000000
4822 14353 1 0.16500 119244.000000
4823 12986 1 0.16500 119244.000000
4823 14451 1 0.16500 119244.000000
4824 12986 1 0.16500 119244.000000
4824 15492 1 0.16500 119244.000000
4825 12987 1 0.16500 119244.000000
4825 16395 1 0.16500 119244.000000
4826 12987 1 0.16500 119244.000000
4826 16356 1 0.16500 119244.000000
4827 12987 1 0.16500 119244.000000
4827 14839 1 0.16500 119244.000000
4828 12988 1 0.16500 119244.000000
4828 14425 1 0.16500 119244.000000
4829 12988 1 0.16500 119244.000000
4829 13319 1 0.16500 119244.000000
4830 12988 1 0.16500 119244.000000
4830 16038 1 0.16500 119244.000000
4831 12989 1 0.16500 119244.000000
4831 16906 1 0.16500 119244.000000
4832 12989 1 0.16500 119244.000000
4832 15298 1 0.16500 119244.000000
4833 12989 1 0.16500 119244.000000
4833 16262 1 0.16500 119244.000000
4834 12989 1 0.16500 119244.000000
4834 13347 1 0.16500 119244.000000
4835 12990 1 0.16500 119244.000000
4835 15434 1 0.16500 119244.000000
4836 12990 1 0.16500 119244.000000
4836 17155 1 0.16500 119244.000000
4837 12990 1 0.16500 119244.000000
4837 13657 1 0.16500 119244.000000
4838 12991 1 0.16500 119244.000000
4838 14315 1 0.16500 119244.000000
4839 12991 1 0.16500 119244.000000
4839 13651 1 0.16500 119244.000000
4840 12991 1 0.16500 119244.000000
4840 15355 1 0.16500 119244.000000
4841 12992 1 0.16500 119244.000000
4841 14271 1 0.16500 119244.000000
4842 12992 1 0.16500 119244.000000
4842 15349 1 0.16500 119244.000000
4843 12992 1 0.16500 119244.000000
4843 14971 1 0.16500 119244.000000
4844 12992 1 0.16500 119244.000000
4844 13546 1 0.16500 119244.000000
4845 12993 1 0.16500 119244.000000
4845 13433 1 0.16500 119244.000000
4846 12993 1 0.16500 119244.000000
4846 14109 1 0.16500 119244.000000
4847 12993 1 0.16500 119244.000000
4847 15260 1 0.16500 119244.000000
4848 16288 1 0.16500 119244.000000
4848 16466 1 0.16500 119244.000000
4849 12994 1 0.16500 119244.000000
4849 16466 1 0.16500 119244.000000
4850 12995 1 0.16500 119244.000000
4850 15047 1 0.16500 119244.000000
4851 12995 1 0.16500 119244.000000
4851 14404 1 0.16500 119244.000000
4852 12995 1 0.16500 119244.000000
4852 16593 1 0.16500 119244.000000
4853 12996 1 0.16500 119244.000000
4853 16457 1 0.16500 119244.000000
4854 12996 1 0.16500 119244.000000
4854 14892 1 0.16500 119244.000000
4855 12996 1 0.16500 119244.000000
4855 15412 1 0.16500 119244.000000
4856 12997 1 0.16500 119244.000000
4856 16517 1 0.16500 119244.000000
4857 12997 1 0.16500 119244.000000
4857 16416 1 0.16500 119244.000000
4858 12998 1 0.16500 119244.000000
4858 16752 1 0.16500 119244.000000
4859 12998 1 0.16500 119244.000000
4859 13724 1 0.16500 119244.000000
4860 12378 1 0.16500 119244.000000
4860 15281 1 0.16500 119244.000000
4861 12999 1 0.16500 119244.000000
4861 13642 1 0.16500 119244.000000
4862 12999 1 0.16500 119244.000000
4862 13548 1 0.16500 119244.000000
4863 13000 1 0.16500 119244.000000
4863 16541 1 0.16500 119244.000000
4864 13000 1 0.16500 119244.000000
4864 16845 1 0.16500 119244.000000
4865 13000 1 0.16500 119244.000000
4865 15081 1 0.16500 119244.000000
4866 13000 1 0.16500 119244.000000
4866 17196 1 0.16500 119244.000000
4867 13001 1 0.16500 119244.000000
4867 15415 1 0.16500 119244.000000
4868 13001 1 0.16500 119244.000000
4868 15718 1 0.16500 119244.000000
4869 13001 1 0.16500 119244.000000
4869 15702 1 0.16500 119244.000000
4870 13840 1 0.16500 119244.000000
4870 17401 1 0.16500 119244.000000
4871 15366 1 0.16500 119244.000000
4871 17401 1 0.16500 119244.000000
4872 13002 1 0.16500 119244.000000
4872 15524 1 0.16500 119244.000000
4873 13003 1 0.16500 119244.000000
4873 14134 1 0.16500 119244.000000
4874 13003 1 0.16500 119244.000000
4874 15528 1 0.16500 119244.000000
4875 13003 1 0.16500 119244.000000
4875 14747 1 0.16500 119244.000000
4876 13004 1 0.16500 119244.000000
4876 13063 1 0.16500 119244.000000
4877 13004 1 0.16500 119244.000000
4877 16111 1 0.16500 119244.000000
4878 13004 1 0.16500 119244.000000
4878 13821 1 0.16500 119244.000000
4879 13005 1 0.16500 119244.000000
4879 16318 1 0.16500 119244.000000
4880 13006 1 0.16500 119244.000000
4880 13963 1 0.16500 119244.000000
4881 13006 1 0.16500 119244.000000
4881 16871 1 0.16500 119244.000000
4882 13006 1 0.16500 119244.000000
4882 13931 1 0.16500 119244.000000
4883 13007 1 0.16500 119244.000000
4883 14130 1 0.16500 119244.000000
4884 13007 1 0.16500 119244.000000
4884 14228 1 0.16500 119244.000000
4885 13007 1 0.16500 119244.000000
4885 15098 1 0.16500 119244.000000
4886 15454 1 0.16500 119244.000000
4886 17404 1 0.16500 119244.000000
4887 13008 1 0.16500 119244.000000
4887 17160 1 0.16500 119244.000000
4888 13008 1 0.16500 119244.000000
4888 13381 1 0.16500 119244.000000
4889 13008 1 0.16500 119244.000000
4889 16517 1 0.16500 119244.000000
4890 13008 1 0.16500 119244.000000
4890 15367 1 0.16500 119244.000000
4891 13009 1 0.16500 119244.000000
4891 13206 1 0.16500 119244.000000
4892 13009 1 0.16500 119244.000000
4892 14876 1 0.16500 119244.000000
4893 13009 1 0.16500 119244.000000
4893 14798 1 0.16500 119244.000000
4894 14654 1 0.16500 119244.000000
4894 17407 1 0.16500 119244.000000
4895 13010 1 0.16500 119244.000000
4895 13741 1 0.16500 119244.000000
4896 13010 1 0.16500 119244.000000
4896 17644 1 0.16500 119244.000000
4897 13011 1 0.16500 119244.000000
4897 15989 1 0.16500 119244.000000
4898 13011 1 0.16500 119244.000000
4898 14257 1 0.16500 119244.000000
4899 14624 1 0.16500 119244.000000
4899 16605 1 0.16500 119244.000000
4900 13012 1 0.16500 119244.000000
4900 14624 1 0.16500 119244.000000
4901 13012 1 0.16500 119244.000000
4901 13166 1 0.16500 119244.000000
4902 13013 1 0.16500 119244.000000
4902 13554 1 0.16500 119244.000000
4903 13013 1 0.16500 119244.000000
4903 15498 1 0.16500 119244.000000
4904 13013 1 0.16500 119244.000000
4904 14773 1 0.16500 119244.000000
4905 13013 1 0.16500 119244.000000
4905 13633 1 0.16500 119244.000000
4906 13014 1 0.16500 119244.000000
4906 14492 1 0.16500 119244.000000
4907 13014 1 0.16500 119244.000000
4907 14175 1 0.16500 119244.000000
4908 13014 1 0.16500 119244.000000
4908 13545 1 0.16500 119244.000000
4909 13014 1 0.16500 119244.000000
4909 15907 1 0.16500 119244.000000
4910 13015 1 0.16500 119244.000000
4910 16941 1 0.16500 119244.000000
4911 13015 1 0.16500 119244.000000
4911 16898 1 0.16500 119244.000000
4912 13015 1 0.16500 119244.000000
4912 13764 1 0.16500 119244.000000
4913 13015 1 0.16500 119244.000000
4913 15298 1 0.16500 119244.000000
4914 13016 1 0.16500 119244.000000
4914 15577 1 0.16500 119244.000000
4915 13016 1 0.16500 119244.000000
4915 14021 1 0.16500 119244.000000
4916 13016 1 0.16500 119244.000000
4916 16937 1 0.16500 119244.000000
4917 13016 1 0.16500 119244.000000
4917 15985 1 0.16500 119244.000000
4918 13017 1 0.16500 119244.000000
4918 14669 1 0.16500 119244.000000
4919 13017 1 0.16500 119244.000000
4919 15815 1 0.16500 119244.000000
4920 13017 1 0.16500 119244.000000
4920 13917 1 0.16500 119244.000000
4921 13017 1 0.16500 119244.000000
4921 16060 1 0.16500 119244.000000
4922 13018 1 0.16500 119244.000000
4922 13765 1 0.16500 119244.000000
4923 13019 1 0.16500 119244.000000
4923 15639 1 0.16500 119244.000000
4924 13019 1 0.16500 119244.000000
4924 13175 1 0.16500 119244.000000
4925 13019 1 0.16500 119244.000000
4925 14970 1 0.16500 119244.000000
4926 13020 1 0.16500 119244.000000
4926 14125 1 0.16500 119244.000000
4927 13020 1 0.16500 119244.000000
4927 13248 1 0.16500 119244.000000
4928 13020 1 0.16500 119244.000000
4928 13290 1 0.16500 119244.000000
4929 16280 1 0.16500 119244.000000
4929 17410 1 0.16500 119244.000000
4930 17410 1 0.16500 119244.000000
4930 17491 1 0.16500 119244.000000
4931 13021 1 0.16500 119244.000000
4931 17050 1 0.16500 119244.000000
4932 13022 1 0.16500 119244.000000
4932 14615 1 0.16500 119244.000000
4933 13023 1 0.16500 119244.000000
4933 14110 1 0.16500 119244.000000
4934 13023 1 0.16500 119244.000000
4934 15278 1 0.16500 119244.000000
4935 13023 1 0.16500 119244.000000
4935 14961 1 0.16500 119244.000000
4936 13023 1 0.16500 119244.000000
4936 16507 1 0.16500 119244.000000
4937 13591 1 0.16500 119244.000000
4937 15474 1 0.16500 119244.000000
4938 13024 1 0.16500 119244.000000
4938 17539 1 0.16500 119244.000000
4939 13024 1 0.16500 119244.000000
4939 15474 1 0.16500 119244.000000
4940 16482 1 0.16500 119244.000000
4940 16799 1 0.16500 119244.000000
4941 13025 1 0.16500 119244.000000
4941 13431 1 0.16500 119244.000000
4942 13025 1 0.16500 119244.000000
4942 16799 1 0.16500 119244.000000
4943 13025 1 0.16500 119244.000000
4943 15195 1 0.16500 119244.000000
4944 13026 1 0.16500 119244.000000
4944 16204 1 0.16500 119244.000000
4945 13026 1 0.16500 119244.000000
4945 14539 1 0.16500 119244.000000
4946 13026 1 0.16500 119244.000000
4946 15416 1 0.16500 119244.000000
4947 13027 1 0.16500 119244.000000
4947 13390 1 0.16500 119244.000000
4948 13027 1 0.16500 119244.000000
4948 16898 1 0.16500 119244.000000
4949 13027 1 0.16500 119244.000000
4949 13707 1 0.16500 119244.000000
4950 13028 1 0.16500 119244.000000
4950 16092 1 0.16500 119244.000000
4951 13028 1 0.16500 119244.000000
4951 16050 1 0.16500 119244.000000
4952 13028 1 0.16500 119244.000000
4952 15472 1 0.16500 119244.000000
4953 13028 1 0.16500 119244.000000
4953 15845 1 0.16500 119244.000000
4954 13029 1 0.16500 119244.000000
4954 15646 1 0.16500 119244.000000
4955 13029 1 0.16500 119244.000000
4955 17932 1 0.16500 119244.000000
4956 13029 1 0.16500 119244.000000
4956 13165 1 0.16500 119244.000000
4957 13030 1 0.16500 119244.000000
4957 16083 1 0.16500 119244.000000
4958 13030 1 0.16500 119244.000000
4958 15605 1 0.16500 119244.000000
4959 13030 1 0.16500 119244.000000
4959 13984 1 0.16500 119244.000000
4960 13030 1 0.16500 119244.000000
4960 14676 1 0.16500 119244.000000
4961 16719 1 0.16500 119244.000000
4961 17413 1 0.16500 119244.000000
4962 13031 1 0.16500 119244.000000
4962 14930 1 0.16500 119244.000000
4963 13031 1 0.16500 119244.000000
4963 15109 1 0.16500 119244.000000
4964 13032 1 0.16500 119244.000000
4964 14623 1 0.16500 119244.000000
4965 13032 1 0.16500 119244.000000
4965 16503 1 0.16500 119244.000000
4966 13032 1 0.16500 119244.000000
4966 15509 1 0.16500 119244.000000
4967 13033 1 0.16500 119244.000000
4967 16509 1 0.16500 119244.000000
4968 13033 1 0.16500 119244.000000
4968 16286 1 0.16500 119244.000000
4969 13034 1 0.16500 119244.000000
4969 16811 1 0.16500 119244.000000
4970 13034 1 0.16500 119244.000000
4970 16668 1 0.16500 119244.000000
4971 13034 1 0.16500 119244.000000
4971 18039 1 0.16500 119244.000000
4972 13035 1 0.16500 119244.000000
4972 15810 1 0.16500 119244.000000
4973 13035 1 0.16500 119244.000000
4973 13507 1 0.16500 119244.000000
4974 13035 1 0.16500 119244.000000
4974 14693 1 0.16500 119244.000000
4975 13035 1 0.16500 119244.000000
4975 15672 1 0.16500 119244.000000
4976 13036 1 0.16500 119244.000000
4976 16960 1 0.16500 119244.000000
4977 13036 1 0.16500 119244.000000
4977 17079 1 0.16500 119244.000000
4978 13036 1 0.16500 119244.000000
4978 16925 1 0.16500 119244.000000
4979 13037 1 0.16500 119244.000000
4979 16301 1 0.16500 119244.000000
4980 13037 1 0.16500 119244.000000
4980 14640 1 0.16500 119244.000000
4981 13796 1 0.16500 119244.000000
4981 17416 1 0.16500 119244.000000
4982 13858 1 0.16500 119244.000000
4982 17416 1 0.16500 119244.000000
4983 13038 1 0.16500 119244.000000
4983 15338 1 0.16500 119244.000000
4984 13038 1 0.16500 119244.000000
4984 14529 1 0.16500 119244.000000
4985 13038 1 0.16500 119244.000000
4985 13939 1 0.16500 119244.000000
4986 13039 1 0.16500 119244.000000
4986 13866 1 0.16500 119244.000000
4987 13039 1 0.16500 119244.000000
4987 13914 1 0.16500 119244.000000
4988 13039 1 0.16500 119244.000000
4988 16752 1 0.16500 119244.000000
4989 13040 1 0.16500 119244.000000
4989 14769 1 0.16500 119244.000000
4990 16589 1 0.16500 119244.000000
4990 17419 1 0.16500 119244.000000
4991 13667 1 0.16500 119244.000000
4991 17419 1 0.16500 119244.000000
4992 13041 1 0.16500 119244.000000
4992 16897 1 0.16500 119244.000000
4993 13041 1 0.16500 119244.000000
4993 14429 1 0.16500 119244.000000
4994 13042 1 0.16500 119244.000000
4994 17770 1 0.16500 119244.000000
4995 13042 1 0.16500 119244.000000
4995 13718 1 0.16500 119244.000000
4996 13043 1 0.16500 119244.000000
4996 15014 1 0.16500 119244.000000
4997 13043 1 0.16500 119244.000000
4997 13080 1 0.16500 119244.000000
4998 13044 1 0.16500 119244.000000
4998 14363 1 0.16500 119244.000000
4999 13044 1 0.16500 119244.000000
4999 14830 1 0.16500 119244.000000
5000 13044 1 0.16500 119244.000000
5000 13493 1 0.16500 119244.000000
5001 13044 1 0.16500 119244.000000
5001 16059 1 0.16500 119244.000000
5002 13045 1 0.16500 119244.000000
5002 14137 1 0.16500 119244.000000
5003 13045 1 0.16500 119244.000000
5003 15769 1 0.16500 119244.000000
5004 13045 1 0.16500 119244.000000
5004 13866 1 0.16500 119244.000000
5005 13046 1 0.16500 119244.000000
5005 14609 1 0.16500 119244.000000
5006 13046 1 0.16500 119244.000000
5006 14314 1 0.16500 119244.000000
5007 13046 1 0.16500 119244.000000
5007 13556 1 0.16500 119244.000000
5008 13047 1 0.16500 119244.000000
5008 13109 1 0.16500 119244.000000
5009 13047 1 0.16500 119244.000000
5009 15025 1 0.16500 119244.000000
5010 13048 1 0.16500 119244.000000
5010 14108 1 0.16500 119244.000000
5011 14108 1 0.16500 119244.000000
5011 15774 1 0.16500 119244.000000
5012 16890 1 0.16500 119244.000000
5012 16993 1 0.16500 119244.000000
5013 13048 1 0.16500 119244.000000
5013 16890 1 0.16500 119244.000000
5014 13049 1 0.16500 119244.000000
5014 14681 1 0.16500 119244.000000
5015 13049 1 0.16500 119244.000000
5015 17006 1 0.16500 119244.000000
5016 13049 1 0.16500 119244.000000
5016 15746 1 0.16500 119244.000000
5017 13049 1 0.16500 119244.000000
5017 15455 1 0.16500 119244.000000
5018 13050 1 0.16500 119244.000000
5018 13385 1 0.16500 119244.000000
5019 13050 1 0.16500 119244.000000
5019 13160 1 0.16500 119244.000000
5020 13050 1 0.16500 119244.000000
5020 15489 1 0.16500 119244.000000
5021 13051 1 0.16500 119244.000000
5021 15517 1 0.16500 119244.000000
5022 13052 1 0.16500 119244.000000
5022 15866 1 0.16500 119244.000000
5023 13052 1 0.16500 119244.000000
5023 14209 1 0.16500 119244.000000
5024 13052 1 0.16500 119244.000000
5024 17106 1 0.16500 119244.000000
5025 13052 1 0.16500 119244.000000
5025 13558 1 0.16500 119244.000000
5026 13053 1 0.16500 119244.000000
5026 14951 1 0.16500 119244.000000
5027 13053 1 0.16500 119244.000000
5027 13549 1 0.16500 119244.000000
5028 14072 1 0.16500 119244.000000
5028 14547 1 0.16500 119244.000000
5029 13054 1 0.16500 119244.000000
5029 14072 1 0.16500 119244.000000
5030 13055 1 0.16500 119244.000000
5030 13416 1 0.16500 119244.000000
5031 13055 1 0.16500 119244.000000
5031 14012 1 0.16500 119244.000000
5032 13056 1 0.16500 119244.000000
5032 15372 1 0.16500 119244.000000
5033 13056 1 0.16500 119244.000000
5033 13993 1 0.16500 119244.000000
5034 13056 1 0.16500 119244.000000
5034 14336 1 0.16500 119244.000000
5035 13056 1 0.16500 119244.000000
5035 14847 1 0.16500 119244.000000
5036 13057 1 0.16500 119244.000000
5036 16167 1 0.16500 119244.000000
5037 13057 1 0.16500 119244.000000
5037 14759 1 0.16500 119244.000000
5038 13058 1 0.16500 119244.000000
5038 15614 1 0.16500 119244.000000
5039 13059 1 0.16500 119244.000000
5039 13835 1 0.16500 119244.000000
5040 13059 1 0.16500 119244.000000
5040 14450 1 0.16500 119244.000000
5041 13059 1 0.16500 119244.000000
5041 17593 1 0.16500 119244.000000
5042 13059 1 0.16500 119244.000000
5042 14792 1 0.16500 119244.000000
5043 13060 1 0.16500 119244.000000
5043 16793 1 0.16500 119244.000000
5044 13060 1 0.16500 119244.000000
5044 15450 1 0.16500 119244.000000
5045 13061 1 0.16500 119244.000000
5045 16862 1 0.16500 119244.000000
5046 13061 1 0.16500 119244.000000
5046 14382 1 0.16500 119244.000000
5047 13061 1 0.16500 119244.000000
5047 14067 1 0.16500 119244.000000
5048 13062 1 0.16500 119244.000000
5048 16043 1 0.16500 119244.000000
5049 16392 1 0.16500 119244.000000
5049 17142 1 0.16500 119244.000000
5050 13062 1 0.16500 119244.000000
5050 17142 1 0.16500 119244.000000
5051 13062 1 0.16500 119244.000000
5051 13694 1 0.16500 119244.000000
5052 13063 1 0.16500 119244.000000
5052 14162 1 0.16500 119244.000000
5053 13063 1 0.16500 119244.000000
5053 14667 1 0.16500 119244.000000
5054 13064 1 0.16500 119244.000000
5054 17665 1 0.16500 119244.000000
5055 13064 1 0.16500 119244.000000
5055 13972 1 0.16500 119244.000000
5056 13065 1 0.16500 119244.000000
5056 13901 1 0.16500 119244.000000
5057 13065 1 0.16500 119244.000000
5057 16912 1 0.16500 119244.000000
5058 13065 1 0.16500 119244.000000
5058 16598 1 0.16500 119244.000000
5059 15837 1 0.16500 119244.000000
5059 16913 1 0.16500 119244.000000
5060 13066 1 0.16500 119244.000000
5060 16006 1 0.16500 119244.000000
5061 13066 1 0.16500 119244.000000
5061 15837 1 0.16500 119244.000000
5062 13067 1 0.16500 119244.000000
5062 13345 1 0.16500 119244.000000
5063 13067 1 0.16500 119244.000000
5063 13258 1 0.16500 119244.000000
5064 13067 1 0.16500 119244.000000
5064 16804 1 0.16500 119244.000000
5065 13068 1 0.16500 119244.000000
5065 15091 1 0.16500 119244.000000
5066 13068 1 0.16500 119244.000000
5066 14437 1 0.16500 119244.000000
5067 13068 1 0.16500 119244.000000
5067 13555 1 0.16500 119244.000000
5068 13069 1 0.16500 119244.000000
5068 14455 1 0.16500 119244.000000
5069 13069 1 0.16500 119244.000000
5069 14880 1 0.16500 119244.000000
5070 13069 1 0.16500 119244.000000
5070 14638 1 0.16500 119244.000000
5071 13070 1 0.16500 119244.000000
5071 17199 1 0.16500 119244.000000
5072 13070 1 0.16500 119244.000000
5072 16427 1 0.16500 119244.000000
5073 13070 1 0.16500 119244.000000
5073 13829 1 0.16500 119244.000000
5074 13071 1 0.16500 119244.000000
5074 14350 1 0.16500 119244.000000
5075 13071 1 0.16500 119244.000000
5075 16036 1 0.16500 119244.000000
5076 13071 1 0.16500 119244.000000
5076 14847 1 0.16500 119244.000000
5077 13071 1 0.16500 119244.000000
5077 16029 1 0.16500 119244.000000
5078 13072 1 0.16500 119244.000000
5078 14753 1 0.16500 119244.000000
5079 13072 1 0.16500 119244.000000
5079 15016 1 0.16500 119244.000000
5080 13072 1 0.16500 119244.000000
5080 16604 1 0.16500 119244.000000
5081 13073 1 0.16500 119244.000000
5081 17181 1 0.16500 119244.000000
5082 13073 1 0.16500 119244.000000
5082 16268 1 0.16500 119244.000000
5083 13074 1 0.16500 119244.000000
5083 14659 1 0.16500 119244.000000
5084 13074 1 0.16500 119244.000000
5084 14647 1 0.16500 119244.000000
5085 13075 1 0.16500 119244.000000
5085 16007 1 0.16500 119244.000000
5086 13075 1 0.16500 119244.000000
5086 14032 1 0.16500 119244.000000
5087 13075 1 0.16500 119244.000000
5087 15464 1 0.16500 119244.000000
5088 13076 1 0.16500 119244.000000
5088 13781 1 0.16500 119244.000000
5089 13076 1 0.16500 119244.000000
5089 16492 1 0.16500 119244.000000
5090 13076 1 0.16500 119244.000000
5090 16064 1 0.16500 119244.000000
5091 13076 1 0.16500 119244.000000
5091 16916 1 0.16500 119244.000000
5092 13077 1 0.16500 119244.000000
5092 17905 1 0.16500 119244.000000
5093 13077 1 0.16500 119244.000000
5093 13802 1 0.16500 119244.000000
5094 13077 1 0.16500 119244.000000
5094 14191 1 0.16500 119244.000000
5095 13077 1 0.16500 119244.000000
5095 13994 1 0.16500 119244.000000
5096 13078 1 0.16500 119244.000000
5096 16609 1 0.16500 119244.000000
5097 13078 1 0.16500 119244.000000
5097 14801 1 0.16500 119244.000000
5098 13078 1 0.16500 119244.000000
5098 14867 1 0.16500 119244.000000
5099 13078 1 0.16500 119244.000000
5099 15170 1 0.16500 119244.000000
5100 13079 1 0.16500 119244.000000
5100 16608 1 0.16500 119244.000000
5101 13079 1 0.16500 119244.000000
5101 14489 1 0.16500 119244.000000
5102 13079 1 0.16500 119244.000000
5102 15159 1 0.16500 119244.000000
5103 13079 1 0.16500 119244.000000
5103 16972 1 0.16500 119244.000000
5104 13559 1 0.16500 119244.000000
5104 17422 1 0.16500 119244.000000
5105 13306 1 0.16500 119244.000000
5105 17422 1 0.16500 119244.000000
5106 13080 1 0.16500 119244.000000
5106 17187 1 0.16500 119244.000000
5107 12119 1 0.16500 119244.000000
5107 13080 1 0.16500 119244.000000
5108 13081 1 0.16500 119244.000000
5108 15927 1 0.16500 119244.000000
5109 13081 1 0.16500 119244.000000
5109 15513 1 0.16500 119244.000000
5110 13081 1 0.16500 119244.000000
5110 14578 1 0.16500 119244.000000
5111 13081 1 0.16500 119244.000000
5111 16046 1 0.16500 119244.000000
5112 13082 1 0.16500 119244.000000
5112 13402 1 0.16500 119244.000000
5113 13082 1 0.16500 119244.000000
5113 13525 1 0.16500 119244.000000
5114 13082 1 0.16500 119244.000000
5114 14010 1 0.16500 119244.000000
5115 13525 1 0.16500 119244.000000
5115 14067 1 0.16500 119244.000000
5116 13083 1 0.16500 119244.000000
5116 16798 1 0.16500 119244.000000
5117 13083 1 0.16500 119244.000000
5117 17174 1 0.16500 119244.000000
5118 13084 1 0.16500 119244.000000
5118 15732 1 0.16500 119244.000000
5119 13084 1 0.16500 119244.000000
5119 15633 1 0.16500 119244.000000
5120 13084 1 0.16500 119244.000000
5120 14206 1 0.16500 119244.000000
5121 13084 1 0.16500 119244.000000
5121 14132 1 0.16500 119244.000000
5122 13085 1 0.16500 119244.000000
5122 14995 1 0.16500 119244.000000
5123 13085 1 0.16500 119244.000000
5123 13086 1 0.16500 119244.000000
5124 13085 1 0.16500 119244.000000
5124 13186 1 0.16500 119244.000000
5125 13086 1 0.16500 119244.000000
5125 14861 1 0.16500 119244.000000
5126 13086 1 0.16500 119244.000000
5126 16877 1 0.16500 119244.000000
5127 13087 1 0.16500 119244.000000
5127 14976 1 0.16500 119244.000000
5128 13087 1 0.16500 119244.000000
5128 15991 1 0.16500 119244.000000
5129 13087 1 0.16500 119244.000000
5129 16590 1 0.16500 119244.000000
5130 13088 1 0.16500 119244.000000
5130 15133 1 0.16500 119244.000000
5131 13088 1 0.16500 119244.000000
5131 14420 1 0.16500 119244.000000
5132 13088 1 0.16500 119244.000000
5132 13636 1 0.16500 119244.000000
5133 13089 1 0.16500 119244.000000
5133 14767 1 0.16500 119244.000000
5134 13089 1 0.16500 119244.000000
5134 13119 1 0.16500 119244.000000
5135 13090 1 0.16500 119244.000000
5135 15114 1 0.16500 119244.000000
5136 13090 1 0.16500 119244.000000
5136 13820 1 0.16500 119244.000000
5137 13091 1 0.16500 119244.000000
5137 15677 1 0.16500 119244.000000
5138 12183 1 0.16500 119244.000000
5138 13091 1 0.16500 119244.000000
5139 13091 1 0.16500 119244.000000
5139 16073 1 0.16500 119244.000000
5140 13091 1 0.16500 119244.000000
5140 14201 1 0.16500 119244.000000
5141 17425 1 0.16500 119244.000000
5141 17704 1 0.16500 119244.000000
5142 17111 1 0.16500 119244.000000
5142 17425 1 0.16500 119244.000000
5143 15783 1 0.16500 119244.000000
5143 17425 1 0.16500 119244.000000
5144 13092 1 0.16500 119244.000000
5144 14143 1 0.16500 119244.000000
5145 13092 1 0.16500 119244.000000
5145 16171 1 0.16500 119244.000000
5146 13092 1 0.16500 119244.000000
5146 13868 1 0.16500 119244.000000
5147 13092 1 0.16500 119244.000000
5147 15514 1 0.16500 119244.000000
5148 13093 1 0.16500 119244.000000
5148 15719 1 0.16500 119244.000000
5149 13093 1 0.16500 119244.000000
5149 14258 1 0.16500 119244.000000
5150 13093 1 0.16500 119244.000000
5150 14708 1 0.16500 119244.000000
5151 13094 1 0.16500 119244.000000
5151 14320 1 0.16500 119244.000000
5152 13094 1 0.16500 119244.000000
5152 15146 1 0.16500 119244.000000
5153 13094 1 0.16500 119244.000000
5153 16246 1 0.16500 119244.000000
5154 13095 1 0.16500 119244.000000
5154 14671 1 0.16500 119244.000000
5155 13095 1 0.16500 119244.000000
5155 13166 1 0.16500 119244.000000
5156 13095 1 0.16500 119244.000000
5156 13227 1 0.16500 119244.000000
5157 11631 1 0.16500 119244.000000
5157 13096 1 0.16500 119244.000000
5158 13096 1 0.16500 119244.000000
5158 13154 1 0.16500 119244.000000
5159 13096 1 0.16500 119244.000000
5159 13467 1 0.16500 119244.000000
5160 13096 1 0.16500 119244.000000
5160 14656 1 0.16500 119244.000000
5161 11913 1 0.16500 119244.000000
5161 16997 1 0.16500 119244.000000
5162 13097 1 0.16500 119244.000000
5162 16997 1 0.16500 119244.000000
5163 13099 1 0.16500 119244.000000
5163 13765 1 0.16500 119244.000000
5164 13099 1 0.16500 119244.000000
5164 15445 1 0.16500 119244.000000
5165 13100 1 0.16500 119244.000000
5165 16068 1 0.16500 119244.000000
5166 13100 1 0.16500 119244.000000
5166 13514 1 0.16500 119244.000000
5167 13101 1 0.16500 119244.000000
5167 16856 1 0.16500 119244.000000
5168 13101 1 0.16500 119244.000000
5168 17077 1 0.16500 119244.000000
5169 13102 1 0.16500 119244.000000
5169 15010 1 0.16500 119244.000000
5170 13102 1 0.16500 119244.000000
5170 16206 1 0.16500 119244.000000
5171 13103 1 0.16500 119244.000000
5171 13140 1 0.16500 119244.000000
5172 13104 1 0.16500 119244.000000
5172 13230 1 0.16500 119244.000000
5173 17428 1 0.16500 119244.000000
5173 17734 1 0.16500 119244.000000
5174 15899 1 0.16500 119244.000000
5174 17428 1 0.16500 119244.000000
5175 13105 1 0.16500 119244.000000
5175 17548 1 0.16500 119244.000000
5176 13105 1 0.16500 119244.000000
5176 16224 1 0.16500 119244.000000
5177 13105 1 0.16500 119244.000000
5177 16497 1 0.16500 119244.000000
5178 13105 1 0.16500 119244.000000
5178 17266 1 0.16500 119244.000000
5179 13106 1 0.16500 119244.000000
5179 15432 1 0.16500 119244.000000
5180 13106 1 0.16500 119244.000000
5180 15755 1 0.16500 119244.000000
5181 13106 1 0.16500 119244.000000
5181 13178 1 0.16500 119244.000000
5182 13107 1 0.16500 119244.000000
5182 14628 1 0.16500 119244.000000
5183 13107 1 0.16500 119244.000000
5183 14344 1 0.16500 119244.000000
5184 13107 1 0.16500 119244.000000
5184 15776 1 0.16500 119244.000000
5185 13108 1 0.16500 119244.000000
5185 15992 1 0.16500 119244.000000
5186 13108 1 0.16500 119244.000000
5186 16806 1 0.16500 119244.000000
5187 13108 1 0.16500 119244.000000
5187 13917 1 0.16500 119244.000000
5188 16791 1 0.16500 119244.000000
5188 17431 1 0.16500 119244.000000
5189 15751 1 0.16500 119244.000000
5189 17431 1 0.16500 119244.000000
5190 13109 1 0.16500 119244.000000
5190 16340 1 0.16500 119244.000000
5191 13110 1 0.16500 119244.000000
5191 14352 1 0.16500 119244.000000
5192 13110 1 0.16500 119244.000000
5192 14497 1 0.16500 119244.000000
5193 13110 1 0.16500 119244.000000
5193 14116 1 0.16500 119244.000000
5194 13111 1 0.16500 119244.000000
5194 15342 1 0.16500 119244.000000
5195 13111 1 0.16500 119244.000000
5195 16749 1 0.16500 119244.000000
5196 13111 1 0.16500 119244.000000
5196 14335 1 0.16500 119244.000000
5197 11958 1 0.16500 119244.000000
5197 13112 1 0.16500 119244.000000
5198 13112 1 0.16500 119244.000000
5198 17001 1 0.16500 119244.000000
5199 13112 1 0.16500 119244.000000
5199 14084 1 0.16500 119244.000000
5200 13113 1 0.16500 119244.000000
5200 17148 1 0.16500 119244.000000
5201 13113 1 0.16500 119244.000000
5201 13756 1 0.16500 119244.000000
5202 13113 1 0.16500 119244.000000
5202 13724 1 0.16500 119244.000000
5203 13114 1 0.16500 119244.000000
5203 14549 1 0.16500 119244.000000
5204 11974 1 0.16500 119244.000000
5204 13114 1 0.16500 119244.000000
5205 13114 1 0.16500 119244.000000
5205 13283 1 0.16500 119244.000000
5206 13115 1 0.16500 119244.000000
5206 14621 1 0.16500 119244.000000
5207 13878 1 0.16500 119244.000000
5207 14621 1 0.16500 119244.000000
5208 13115 1 0.16500 119244.000000
5208 14645 1 0.16500 119244.000000
5209 13115 1 0.16500 119244.000000
5209 16276 1 0.16500 119244.000000
5210 13116 1 0.16500 119244.000000
5210 14167 1 0.16500 119244.000000
5211 13116 1 0.16500 119244.000000
5211 15226 1 0.16500 119244.000000
5212 13116 1 0.16500 119244.000000
5212 14610 1 0.16500 119244.000000
5213 13116 1 0.16500 119244.000000
5213 16810 1 0.16500 119244.000000
5214 13117 1 0.16500 119244.000000
5214 13288 1 0.16500 119244.000000
5215 13117 1 0.16500 119244.000000
5215 17021 1 0.16500 119244.000000
5216 13117 1 0.16500 119244.000000
5216 17689 1 0.16500 119244.000000
5217 13118 1 0.16500 119244.000000
5217 13355 1 0.16500 119244.000000
5218 13118 1 0.16500 119244.000000
5218 13509 1 0.16500 119244.000000
5219 13118 1 0.16500 119244.000000
5219 13544 1 0.16500 119244.000000
5220 13118 1 0.16500 119244.000000
5220 16506 1 0.16500 119244.000000
5221 13119 1 0.16500 119244.000000
5221 17911 1 0.16500 119244.000000
5222 13120 1 0.16500 119244.000000
5222 16933 1 0.16500 119244.000000
5223 14417 1 0.16500 119244.000000
5223 15306 1 0.16500 119244.000000
5224 13121 1 0.16500 119244.000000
5224 14417 1 0.16500 119244.000000
5225 13121 1 0.16500 119244.000000
5225 16742 1 0.16500 119244.000000
5226 13121 1 0.16500 119244.000000
5226 16725 1 0.16500 119244.000000
5227 13122 1 0.16500 119244.000000
5227 16731 1 0.16500 119244.000000
5228 13122 1 0.16500 119244.000000
5228 15404 1 0.16500 119244.000000
5229 13122 1 0.16500 119244.000000
5229 13706 1 0.16500 119244.000000
5230 13122 1 0.16500 119244.000000
5230 15253 1 0.16500 119244.000000
5231 15962 1 0.16500 119244.000000
5231 16067 1 0.16500 119244.000000
5232 13123 1 0.16500 119244.000000
5232 13693 1 0.16500 119244.000000
5233 13123 1 0.16500 119244.000000
5233 15962 1 0.16500 119244.000000
5234 13124 1 0.16500 119244.000000
5234 13464 1 0.16500 119244.000000
5235 13124 1 0.16500 119244.000000
5235 14994 1 0.16500 119244.000000
5236 13125 1 0.16500 119244.000000
5236 14025 1 0.16500 119244.000000
5237 13125 1 0.16500 119244.000000
5237 16406 1 0.16500 119244.000000
5238 13126 1 0.16500 119244.000000
5238 16552 1 0.16500 119244.000000
5239 15223 1 0.16500 119244.000000
5239 16552 1 0.16500 119244.000000
5240 13126 1 0.16500 119244.000000
5240 15410 1 0.16500 119244.000000
5241 13126 1 0.16500 119244.000000
5241 14960 1 0.16500 119244.000000
5242 13127 1 0.16500 119244.000000
5242 14061 1 0.16500 119244.000000
5243 13127 1 0.16500 119244.000000
5243 15487 1 0.16500 119244.000000
5244 13127 1 0.16500 119244.000000
5244 16580 1 0.16500 119244.000000
5245 13127 1 0.16500 119244.000000
5245 13661 1 0.16500 119244.000000
5246 13128 1 0.16500 119244.000000
5246 13858 1 0.16500 119244.000000
5247 13128 1 0.16500 119244.000000
5247 14068 1 0.16500 119244.000000
5248 13128 1 0.16500 119244.000000
5248 13912 1 0.16500 119244.000000
5249 13129 1 0.16500 119244.000000
5249 14518 1 0.16500 119244.000000
5250 13129 1 0.16500 119244.000000
5250 14445 1 0.16500 119244.000000
5251 13129 1 0.16500 119244.000000
5251 13592 1 0.16500 119244.000000
5252 16244 1 0.16500 119244.000000
5252 16398 1 0.16500 119244.000000
5253 13130 1 0.16500 119244.000000
5253 16398 1 0.16500 119244.000000
5254 13130 1 0.16500 119244.000000
5254 15653 1 0.16500 119244.000000
5255 13130 1 0.16500 119244.000000
5255 16443 1 0.16500 119244.000000
5256 14684 1 0.16500 119244.000000
5256 17434 1 0.16500 119244.000000
5257 17434 1 0.16500 119244.000000
5257 17713 1 0.16500 119244.000000
5258 13131 1 0.16500 119244.000000
5258 14469 1 0.16500 119244.000000
5259 13131 1 0.16500 119244.000000
5259 15611 1 0.16500 119244.000000
5260 16473 1 0.16500 119244.000000
5260 17437 1 0.16500 119244.000000
5261 14066 1 0.16500 119244.000000
5261 17437 1 0.16500 119244.000000
5262 13132 1 0.16500 119244.000000
5262 17067 1 0.16500 119244.000000
5263 13132 1 0.16500 119244.000000
5263 16578 1 0.16500 119244.000000
5264 13132 1 0.16500 119244.000000
5264 15818 1 0.16500 119244.000000
5265 13133 1 0.16500 119244.000000
5265 14923 1 0.16500 119244.000000
5266 13133 1 0.16500 119244.000000
5266 17067 1 0.16500 119244.000000
5267 13134 1 0.16500 119244.000000
5267 14254 1 0.16500 119244.000000
5268 13134 1 0.16500 119244.000000
5268 13416 1 0.16500 119244.000000
5269 13134 1 0.16500 119244.000000
5269 16880 1 0.16500 119244.000000
5270 13134 1 0.16500 119244.000000
5270 16530 1 0.16500 119244.000000
5271 13135 1 0.16500 119244.000000
5271 14842 1 0.16500 119244.000000
5272 13135 1 0.16500 119244.000000
5272 15744 1 0.16500 119244.000000
5273 13135 1 0.16500 119244.000000
5273 13936 1 0.16500 119244.000000
5274 13136 1 0.16500 119244.000000
5274 15461 1 0.16500 119244.000000
5275 13136 1 0.16500 119244.000000
5275 14627 1 0.16500 119244.000000
5276 13136 1 0.16500 119244.000000
5276 13183 1 0.16500 119244.000000
5277 13137 1 0.16500 119244.000000
5277 13976 1 0.16500 119244.000000
5278 13137 1 0.16500 119244.000000
5278 16843 1 0.16500 119244.000000
5279 13137 1 0.16500 119244.000000
5279 16088 1 0.16500 119244.000000
5280 13137 1 0.16500 119244.000000
5280 15094 1 0.16500 119244.000000
5281 13138 1 0.16500 119244.000000
5281 14568 1 0.16500 119244.000000
5282 13138 1 0.16500 119244.000000
5282 16803 1 0.16500 119244.000000
5283 13138 1 0.16500 119244.000000
5283 13349 1 0.16500 119244.000000
5284 13138 1 0.16500 119244.000000
5284 14601 1 0.16500 119244.000000
5285 13139 1 0.16500 119244.000000
5285 17159 1 0.16500 119244.000000
5286 13139 1 0.16500 119244.000000
5286 16127 1 0.16500 119244.000000
5287 13140 1 0.16500 119244.000000
5287 15671 1 0.16500 119244.000000
5288 13140 1 0.16500 119244.000000
5288 13985 1 0.16500 119244.000000
5289 13141 1 0.16500 119244.000000
5289 16576 1 0.16500 119244.000000
5290 13141 1 0.16500 119244.000000
5290 13628 1 0.16500 119244.000000
5291 13141 1 0.16500 119244.000000
5291 14039 1 0.16500 119244.000000
5292 13142 1 0.16500 119244.000000
5292 14300 1 0.16500 119244.000000
5293 13142 1 0.16500 119244.000000
5293 13501 1 0.16500 119244.000000
5294 13142 1 0.16500 119244.000000
5294 15457 1 0.16500 119244.000000
5295 13143 1 0.16500 119244.000000
5295 15066 1 0.16500 119244.000000
5296 13143 1 0.16500 119244.000000
5296 13960 1 0.16500 119244.000000
5297 13143 1 0.16500 119244.000000
5297 15651 1 0.16500 119244.000000
5298 13837 1 0.16500 119244.000000
5298 17440 1 0.16500 119244.000000
5299 14361 1 0.16500 119244.000000
5299 17440 1 0.16500 119244.000000
5300 11691 1 0.16500 119244.000000
5300 13144 1 0.16500 119244.000000
5301 13144 1 0.16500 119244.000000
5301 15819 1 0.16500 119244.000000
5302 13144 1 0.16500 119244.000000
5302 15337 1 0.16500 119244.000000
5303 13145 1 0.16500 119244.000000
5303 14077 1 0.16500 119244.000000
5304 13145 1 0.16500 119244.000000
5304 14554 1 0.16500 119244.000000
5305 13146 1 0.16500 119244.000000
5305 14608 1 0.16500 119244.000000
5306 13146 1 0.16500 119244.000000
5306 15839 1 0.16500 119244.000000
5307 13146 1 0.16500 119244.000000
5307 14662 1 0.16500 119244.000000
5308 13147 1 0.16500 119244.000000
5308 13158 1 0.16500 119244.000000
5309 13147 1 0.16500 119244.000000
5309 14425 1 0.16500 119244.000000
5310 13147 1 0.16500 119244.000000
5310 14403 1 0.16500 119244.000000
5311 13147 1 0.16500 119244.000000
5311 14199 1 0.16500 119244.000000
5312 13148 1 0.16500 119244.000000
5312 13582 1 0.16500 119244.000000
5313 13149 1 0.16500 119244.000000
5313 14233 1 0.16500 119244.000000
5314 13149 1 0.16500 119244.000000
5314 14531 1 0.16500 119244.000000
5315 13149 1 0.16500 119244.000000
5315 14630 1 0.16500 119244.000000
5316 13149 1 0.16500 119244.000000
5316 16684 1 0.16500 119244.000000
5317 13150 1 0.16500 119244.000000
5317 13287 1 0.16500 119244.000000
5318 13150 1 0.16500 119244.000000
5318 13200 1 0.16500 119244.000000
5319 13150 1 0.16500 119244.000000
5319 13659 1 0.16500 119244.000000
5320 13150 1 0.16500 119244.000000
5320 16257 1 0.16500 119244.000000
5321 13151 1 0.16500 119244.000000
5321 15276 1 0.16500 119244.000000
5322 13151 1 0.16500 119244.000000
5322 13802 1 0.16500 119244.000000
5323 13151 1 0.16500 119244.000000
5323 14638 1 0.16500 119244.000000
5324 13152 1 0.16500 119244.000000
5324 16953 1 0.16500 119244.000000
5325 13152 1 0.16500 119244.000000
5325 17743 1 0.16500 119244.000000
5326 13153 1 0.16500 119244.000000
5326 14707 1 0.16500 119244.000000
5327 13153 1 0.16500 119244.000000
5327 15768 1 0.16500 119244.000000
5328 13153 1 0.16500 119244.000000
5328 14101 1 0.16500 119244.000000
5329 13154 1 0.16500 119244.000000
5329 14775 1 0.16500 119244.000000
5330 13155 1 0.16500 119244.000000
5330 14269 1 0.16500 119244.000000
5331 13155 1 0.16500 119244.000000
5331 15042 1 0.16500 119244.000000
5332 13155 1 0.16500 119244.000000
5332 16958 1 0.16500 119244.000000
5333 13156 1 0.16500 119244.000000
5333 15690 1 0.16500 119244.000000
5334 13156 1 0.16500 119244.000000
5334 15682 1 0.16500 119244.000000
5335 14170 1 0.16500 119244.000000
5335 16022 1 0.16500 119244.000000
5336 13157 1 0.16500 119244.000000
5336 14432 1 0.16500 119244.000000
5337 14432 1 0.16500 119244.000000
5337 16022 1 0.16500 119244.000000
5338 14625 1 0.16500 119244.000000
5338 16022 1 0.16500 119244.000000
5339 13158 1 0.16500 119244.000000
5339 16653 1 0.16500 119244.000000
5340 13158 1 0.16500 119244.000000
5340 13532 1 0.16500 119244.000000
5341 13158 1 0.16500 119244.000000
5341 16037 1 0.16500 119244.000000
5342 13159 1 0.16500 119244.000000
5342 16174 1 0.16500 119244.000000
5343 13159 1 0.16500 119244.000000
5343 16201 1 0.16500 119244.000000
5344 13160 1 0.16500 119244.000000
5344 14743 1 0.16500 119244.000000
5345 13161 1 0.16500 119244.000000
5345 13955 1 0.16500 119244.000000
5346 13161 1 0.16500 119244.000000
5346 13343 1 0.16500 119244.000000
5347 13161 1 0.16500 119244.000000
5347 15415 1 0.16500 119244.000000
5348 13162 1 0.16500 119244.000000
5348 14956 1 0.16500 119244.000000
5349 13162 1 0.16500 119244.000000
5349 16363 1 0.16500 119244.000000
5350 13162 1 0.16500 119244.000000
5350 14030 1 0.16500 119244.000000
5351 13163 1 0.16500 119244.000000
5351 13698 1 0.16500 119244.000000
5352 13164 1 0.16500 119244.000000
5352 14333 1 0.16500 119244.000000
5353 13165 1 0.16500 119244.000000
5353 16500 1 0.16500 119244.000000
5354 13166 1 0.16500 119244.000000
5354 15783 1 0.16500 119244.000000
5355 13166 1 0.16500 119244.000000
5355 13863 1 0.16500 119244.000000
5356 16451 1 0.16500 119244.000000
5356 17443 1 0.16500 119244.000000
5357 13167 1 0.16500 119244.000000
5357 13222 1 0.16500 119244.000000
5358 13167 1 0.16500 119244.000000
5358 17096 1 0.16500 119244.000000
5359 12108 1 0.16500 119244.000000
5359 13167 1 0.16500 119244.000000
5360 13167 1 0.16500 119244.000000
5360 14226 1 0.16500 119244.000000
5361 13168 1 0.16500 119244.000000
5361 17500 1 0.16500 119244.000000
5362 13168 1 0.16500 119244.000000
5362 16564 1 0.16500 119244.000000
5363 13168 1 0.16500 119244.000000
5363 14707 1 0.16500 119244.000000
5364 13169 1 0.16500 119244.000000
5364 15863 1 0.16500 119244.000000
5365 13169 1 0.16500 119244.000000
5365 16247 1 0.16500 119244.000000
5366 13170 1 0.16500 119244.000000
5366 16613 1 0.16500 119244.000000
5367 13170 1 0.16500 119244.000000
5367 14043 1 0.16500 119244.000000
5368 13170 1 0.16500 119244.000000
5368 16251 1 0.16500 119244.000000
5369 13171 1 0.16500 119244.000000
5369 14205 1 0.16500 119244.000000
5370 13171 1 0.16500 119244.000000
5370 13189 1 0.16500 119244.000000
5371 13171 1 0.16500 119244.000000
5371 16074 1 0.16500 119244.000000
5372 13172 1 0.16500 119244.000000
5372 15130 1 0.16500 119244.000000
5373 13173 1 0.16500 119244.000000
5373 16484 1 0.16500 119244.000000
5374 13173 1 0.16500 119244.000000
5374 14347 1 0.16500 119244.000000
5375 13836 1 0.16500 119244.000000
5375 14840 1 0.16500 119244.000000
5376 13836 1 0.16500 119244.000000
5376 16803 1 0.16500 119244.000000
5377 13174 1 0.16500 119244.000000
5377 16074 1 0.16500 119244.000000
5378 13174 1 0.16500 119244.000000
5378 15748 1 0.16500 119244.000000
5379 13175 1 0.16500 119244.000000
5379 16213 1 0.16500 119244.000000
5380 12433 1 0.16500 119244.000000
5380 13175 1 0.16500 119244.000000
5381 13176 1 0.16500 119244.000000
5381 16425 1 0.16500 119244.000000
5382 13177 1 0.16500 119244.000000
5382 14707 1 0.16500 119244.000000
5383 13177 1 0.16500 119244.000000
5383 14146 1 0.16500 119244.000000
5384 13177 1 0.16500 119244.000000
5384 13304 1 0.16500 119244.000000
5385 13178 1 0.16500 119244.000000
5385 16513 1 0.16500 119244.000000
5386 13178 1 0.16500 119244.000000
5386 13785 1 0.16500 119244.000000
5387 13178 1 0.16500 119244.000000
5387 14173 1 0.16500 119244.000000
5388 13179 1 0.16500 119244.000000
5388 14393 1 0.16500 119244.000000
5389 13179 1 0.16500 119244.000000
5389 13908 1 0.16500 119244.000000
5390 13179 1 0.16500 119244.000000
5390 13679 1 0.16500 119244.000000
5391 13180 1 0.16500 119244.000000
5391 15800 1 0.16500 119244.000000
5392 13180 1 0.16500 119244.000000
5392 15618 1 0.16500 119244.000000
5393 12592 1 0.16500 119244.000000
5393 17446 1 0.16500 119244.000000
5394 16511 1 0.16500 119244.000000
5394 17446 1 0.16500 119244.000000
5395 13181 1 0.16500 119244.000000
5395 13372 1 0.16500 119244.000000
5396 13181 1 0.16500 119244.000000
5396 13284 1 0.16500 119244.000000
5397 13181 1 0.16500 119244.000000
5397 13646 1 0.16500 119244.000000
5398 13181 1 0.16500 119244.000000
5398 15038 1 0.16500 119244.000000
5399 13182 1 0.16500 119244.000000
5399 17063 1 0.16500 119244.000000
5400 13182 1 0.16500 119244.000000
5400 16983 1 0.16500 119244.000000
5401 13182 1 0.16500 119244.000000
5401 13631 1 0.16500 119244.000000
5402 13182 1 0.16500 119244.000000
5402 14243 1 0.16500 119244.000000
5403 13183 1 0.16500 119244.000000
5403 13977 1 0.16500 119244.000000
5404 13183 1 0.16500 119244.000000
5404 13206 1 0.16500 119244.000000
5405 13183 1 0.16500 119244.000000
5405 15667 1 0.16500 119244.000000
5406 13184 1 0.16500 119244.000000
5406 14323 1 0.16500 119244.000000
5407 13184 1 0.16500 119244.000000
5407 13714 1 0.16500 119244.000000
5408 13184 1 0.16500 119244.000000
5408 13725 1 0.16500 119244.000000
5409 13185 1 0.16500 119244.000000
5409 16322 1 0.16500 119244.000000
5410 12229 1 0.16500 119244.000000
5410 13185 1 0.16500 119244.000000
5411 13186 1 0.16500 119244.000000
5411 16345 1 0.16500 119244.000000
5412 13186 1 0.16500 119244.000000
5412 15709 1 0.16500 119244.000000
5413 13187 1 0.16500 119244.000000
5413 16710 1 0.16500 119244.000000
5414 13187 1 0.16500 119244.000000
5414 15173 1 0.16500 119244.000000
5415 13188 1 0.16500 119244.000000
5415 17123 1 0.16500 119244.000000
5416 13188 1 0.16500 119244.000000
5416 14157 1 0.16500 119244.000000
5417 13189 1 0.16500 119244.000000
5417 16852 1 0.16500 119244.000000
5418 13189 1 0.16500 119244.000000
5418 17072 1 0.16500 119244.000000
5419 13174 1 0.16500 119244.000000
5419 13189 1 0.16500 119244.000000
5420 13190 1 0.16500 119244.000000
5420 15616 1 0.16500 119244.000000
5421 13190 1 0.16500 119244.000000
5421 14539 1 0.16500 119244.000000
5422 13190 1 0.16500 119244.000000
5422 13772 1 0.16500 119244.000000
5423 13190 1 0.16500 119244.000000
5423 16946 1 0.16500 119244.000000
5424 13191 1 0.16500 119244.000000
5424 17515 1 0.16500 119244.000000
5425 13191 1 0.16500 119244.000000
5425 15414 1 0.16500 119244.000000
5426 13191 1 0.16500 119244.000000
5426 16018 1 0.16500 119244.000000
5427 13192 1 0.16500 119244.000000
5427 17731 1 0.16500 119244.000000
5428 13192 1 0.16500 119244.000000
5428 15930 1 0.16500 119244.000000
5429 13193 1 0.16500 119244.000000
5429 14075 1 0.16500 119244.000000
5430 13193 1 0.16500 119244.000000
5430 15324 1 0.16500 119244.000000
5431 13194 1 0.16500 119244.000000
5431 13738 1 0.16500 119244.000000
5432 13194 1 0.16500 119244.000000
5432 14939 1 0.16500 119244.000000
5433 13194 1 0.16500 119244.000000
5433 13755 1 0.16500 119244.000000
5434 13195 1 0.16500 119244.000000
5434 14816 1 0.16500 119244.000000
5435 13195 1 0.16500 119244.000000
5435 17033 1 0.16500 119244.000000
5436 13195 1 0.16500 119244.000000
5436 17181 1 0.16500 119244.000000
5437 13196 1 0.16500 119244.000000
5437 17755 1 0.16500 119244.000000
5438 13196 1 0.16500 119244.000000
5438 14811 1 0.16500 119244.000000
5439 13196 1 0.16500 119244.000000
5439 13229 1 0.16500 119244.000000
5440 14493 1 0.16500 119244.000000
5440 17314 1 0.16500 119244.000000
5441 13197 1 0.16500 119244.000000
5441 15801 1 0.16500 119244.000000
5442 13197 1 0.16500 119244.000000
5442 16123 1 0.16500 119244.000000
5443 13197 1 0.16500 119244.000000
5443 13810 1 0.16500 119244.000000
5444 13198 1 0.16500 119244.000000
5444 14892 1 0.16500 119244.000000
5445 14502 1 0.16500 119244.000000
5445 16985 1 0.16500 119244.000000
5446 13199 1 0.16500 119244.000000
5446 14502 1 0.16500 119244.000000
5447 13199 1 0.16500 119244.000000
5447 16296 1 0.16500 119244.000000
5448 13200 1 0.16500 119244.000000
5448 17713 1 0.16500 119244.000000
5449 13200 1 0.16500 119244.000000
5449 16704 1 0.16500 119244.000000
5450 11837 1 0.16500 119244.000000
5450 13201 1 0.16500 119244.000000
5451 12059 1 0.16500 119244.000000
5451 15383 1 0.16500 119244.000000
5452 12059 1 0.16500 119244.000000
5452 15395 1 0.16500 119244.000000
5453 13202 1 0.16500 119244.000000
5453 15344 1 0.16500 119244.000000
5454 13202 1 0.16500 119244.000000
5454 16508 1 0.16500 119244.000000
5455 13202 1 0.16500 119244.000000
5455 16149 1 0.16500 119244.000000
5456 13203 1 0.16500 119244.000000
5456 17140 1 0.16500 119244.000000
5457 13203 1 0.16500 119244.000000
5457 16152 1 0.16500 119244.000000
5458 13203 1 0.16500 119244.000000
5458 15787 1 0.16500 119244.000000
5459 13203 1 0.16500 119244.000000
5459 14346 1 0.16500 119244.000000
5460 13204 1 0.16500 119244.000000
5460 17566 1 0.16500 119244.000000
5461 13204 1 0.16500 119244.000000
5461 15933 1 0.16500 119244.000000
5462 13204 1 0.16500 119244.000000
5462 15070 1 0.16500 119244.000000
5463 13204 1 0.16500 119244.000000
5463 14374 1 0.16500 119244.000000
5464 13455 1 0.16500 119244.000000
5464 13632 1 0.16500 119244.000000
5465 13206 1 0.16500 119244.000000
5465 13950 1 0.16500 119244.000000
5466 13206 1 0.16500 119244.000000
5466 13455 1 0.16500 119244.000000
5467 13207 1 0.16500 119244.000000
5467 15909 1 0.16500 119244.000000
5468 13207 1 0.16500 119244.000000
5468 16971 1 0.16500 119244.000000
5469 13207 1 0.16500 119244.000000
5469 13370 1 0.16500 119244.000000
5470 13208 1 0.16500 119244.000000
5470 14963 1 0.16500 119244.000000
5471 13208 1 0.16500 119244.000000
5471 16156 1 0.16500 119244.000000
5472 13209 1 0.16500 119244.000000
5472 18049 1 0.16500 119244.000000
5473 13209 1 0.16500 119244.000000
5473 16370 1 0.16500 119244.000000
5474 13210 1 0.16500 119244.000000
5474 15754 1 0.16500 119244.000000
5475 13210 1 0.16500 119244.000000
5475 13895 1 0.16500 119244.000000
5476 11836 1 0.16500 119244.000000
5476 16559 1 0.16500 119244.000000
5477 13212 1 0.16500 119244.000000
5477 16833 1 0.16500 119244.000000
5478 13212 1 0.16500 119244.000000
5478 15214 1 0.16500 119244.000000
5479 13213 1 0.16500 119244.000000
5479 16449 1 0.16500 119244.000000
5480 13213 1 0.16500 119244.000000
5480 16056 1 0.16500 119244.000000
5481 13213 1 0.16500 119244.000000
5481 16940 1 0.16500 119244.000000
5482 13213 1 0.16500 119244.000000
5482 14829 1 0.16500 119244.000000
5483 13214 1 0.16500 119244.000000
5483 16722 1 0.16500 119244.000000
5484 13214 1 0.16500 119244.000000
5484 14228 1 0.16500 119244.000000
5485 13214 1 0.16500 119244.000000
5485 13775 1 0.16500 119244.000000
5486 13215 1 0.16500 119244.000000
5486 14132 1 0.16500 119244.000000
5487 13215 1 0.16500 119244.000000
5487 17176 1 0.16500 119244.000000
5488 13216 1 0.16500 119244.000000
5488 15032 1 0.16500 119244.000000
5489 13216 1 0.16500 119244.000000
5489 15455 1 0.16500 119244.000000
5490 13216 1 0.16500 119244.000000
5490 14198 1 0.16500 119244.000000
5491 13217 1 0.16500 119244.000000
5491 14657 1 0.16500 119244.000000
5492 13217 1 0.16500 119244.000000
5492 14601 1 0.16500 119244.000000
5493 13217 1 0.16500 119244.000000
5493 16007 1 0.16500 119244.000000
5494 13218 1 0.16500 119244.000000
5494 14964 1 0.16500 119244.000000
5495 13218 1 0.16500 119244.000000
5495 14589 1 0.16500 119244.000000
5496 16991 1 0.16500 119244.000000
5496 17449 1 0.16500 119244.000000
5497 15993 1 0.16500 119244.000000
5497 17449 1 0.16500 119244.000000
5498 17449 1 0.16500 119244.000000
5498 17488 1 0.16500 119244.000000
5499 13219 1 0.16500 119244.000000
5499 15589 1 0.16500 119244.000000
5500 13219 1 0.16500 119244.000000
5500 16974 1 0.16500 119244.000000
5501 13220 1 0.16500 119244.000000
5501 13994 1 0.16500 119244.000000
5502 13220 1 0.16500 119244.000000
5502 15218 1 0.16500 119244.000000
5503 13220 1 0.16500 119244.000000
5503 16749 1 0.16500 119244.000000
5504 13221 1 0.16500 119244.000000
5504 14985 1 0.16500 119244.000000
5505 13221 1 0.16500 119244.000000
5505 16442 1 0.16500 119244.000000
5506 13221 1 0.16500 119244.000000
5506 17458 1 0.16500 119244.000000
5507 13222 1 0.16500 119244.000000
5507 16477 1 0.16500 119244.000000
5508 13222 1 0.16500 119244.000000
5508 15551 1 0.16500 119244.000000
5509 13222 1 0.16500 119244.000000
5509 16148 1 0.16500 119244.000000
5510 13223 1 0.16500 119244.000000
5510 13535 1 0.16500 119244.000000
5511 13223 1 0.16500 119244.000000
5511 14913 1 0.16500 119244.000000
5512 13224 1 0.16500 119244.000000
5512 16780 1 0.16500 119244.000000
5513 13224 1 0.16500 119244.000000
5513 17174 1 0.16500 119244.000000
5514 13224 1 0.16500 119244.000000
5514 14696 1 0.16500 119244.000000
5515 13224 1 0.16500 119244.000000
5515 15884 1 0.16500 119244.000000
5516 13225 1 0.16500 119244.000000
5516 16309 1 0.16500 119244.000000
5517 13226 1 0.16500 119244.000000
5517 17140 1 0.16500 119244.000000
5518 13226 1 0.16500 119244.000000
5518 14122 1 0.16500 119244.000000
5519 13226 1 0.16500 119244.000000
5519 13566 1 0.16500 119244.000000
5520 13227 1 0.16500 119244.000000
5520 15855 1 0.16500 119244.000000
5521 13227 1 0.16500 119244.000000
5521 13283 1 0.16500 119244.000000
5522 13227 1 0.16500 119244.000000
5522 15790 1 0.16500 119244.000000
5523 13228 1 0.16500 119244.000000
5523 14919 1 0.16500 119244.000000
5524 13228 1 0.16500 119244.000000
5524 14874 1 0.16500 119244.000000
5525 13229 1 0.16500 119244.000000
5525 16889 1 0.16500 119244.000000
5526 13230 1 0.16500 119244.000000
5526 14514 1 0.16500 119244.000000
5527 13230 1 0.16500 119244.000000
5527 17470 1 0.16500 119244.000000
5528 13231 1 0.16500 119244.000000
5528 14181 1 0.16500 119244.000000
5529 13231 1 0.16500 119244.000000
5529 15469 1 0.16500 119244.000000
5530 13231 1 0.16500 119244.000000
5530 13803 1 0.16500 119244.000000
5531 13231 1 0.16500 119244.000000
5531 14838 1 0.16500 119244.000000
5532 13232 1 0.16500 119244.000000
5532 13445 1 0.16500 119244.000000
5533 13232 1 0.16500 119244.000000
5533 13519 1 0.16500 119244.000000
5534 13232 1 0.16500 119244.000000
5534 13520 1 0.16500 119244.000000
5535 13233 1 0.16500 119244.000000
5535 14130 1 0.16500 119244.000000
5536 13233 1 0.16500 119244.000000
5536 16787 1 0.16500 119244.000000
5537 13234 1 0.16500 119244.000000
5537 17053 1 0.16500 119244.000000
5538 13234 1 0.16500 119244.000000
5538 13666 1 0.16500 119244.000000
5539 13234 1 0.16500 119244.000000
5539 15987 1 0.16500 119244.000000
5540 17182 1 0.16500 119244.000000
5540 18044 1 0.16500 119244.000000
5541 14491 1 0.16500 119244.000000
5541 18044 1 0.16500 119244.000000
5542 13235 1 0.16500 119244.000000
5542 16534 1 0.16500 119244.000000
5543 13235 1 0.16500 119244.000000
5543 15803 1 0.16500 119244.000000
5544 13236 1 0.16500 119244.000000
5544 16763 1 0.16500 119244.000000
5545 14553 1 0.16500 119244.000000
5545 16475 1 0.16500 119244.000000
5546 13236 1 0.16500 119244.000000
5546 14779 1 0.16500 119244.000000
5547 13236 1 0.16500 119244.000000
5547 16475 1 0.16500 119244.000000
5548 13237 1 0.16500 119244.000000
5548 16571 1 0.16500 119244.000000
5549 13237 1 0.16500 119244.000000
5549 14431 1 0.16500 119244.000000
5550 12508 1 0.16500 119244.000000
5550 16413 1 0.16500 119244.000000
5551 16887 1 0.16500 119244.000000
5551 17452 1 0.16500 119244.000000
5552 14401 1 0.16500 119244.000000
5552 17452 1 0.16500 119244.000000
5553 13238 1 0.16500 119244.000000
5553 16559 1 0.16500 119244.000000
5554 13238 1 0.16500 119244.000000
5554 15851 1 0.16500 119244.000000
5555 13238 1 0.16500 119244.000000
5555 14732 1 0.16500 119244.000000
5556 13238 1 0.16500 119244.000000
5556 13474 1 0.16500 119244.000000
5557 13239 1 0.16500 119244.000000
5557 15834 1 0.16500 119244.000000
5558 13239 1 0.16500 119244.000000
5558 15001 1 0.16500 119244.000000
5559 13239 1 0.16500 119244.000000
5559 14742 1 0.16500 119244.000000
5560 13240 1 0.16500 119244.000000
5560 16871 1 0.16500 119244.000000
5561 13240 1 0.16500 119244.000000
5561 17617 1 0.16500 119244.000000
5562 13241 1 0.16500 119244.000000
5562 14809 1 0.16500 119244.000000
5563 13241 1 0.16500 119244.000000
5563 15243 1 0.16500 119244.000000
5564 13241 1 0.16500 119244.000000
5564 14782 1 0.16500 119244.000000
5565 13243 1 0.16500 119244.000000
5565 16202 1 0.16500 119244.000000
5566 13243 1 0.16500 119244.000000
5566 17917 1 0.16500 119244.000000
5567 13243 1 0.16500 119244.000000
5567 16459 1 0.16500 119244.000000
5568 13244 1 0.16500 119244.000000
5568 14499 1 0.16500 119244.000000
5569 13244 1 0.16500 119244.000000
5569 14966 1 0.16500 119244.000000
5570 13244 1 0.16500 119244.000000
5570 13259 1 0.16500 119244.000000
5571 13245 1 0.16500 119244.000000
5571 13984 1 0.16500 119244.000000
5572 13246 1 0.16500 119244.000000
5572 14591 1 0.16500 119244.000000
5573 13246 1 0.16500 119244.000000
5573 16672 1 0.16500 119244.000000
5574 13247 1 0.16500 119244.000000
5574 16494 1 0.16500 119244.000000
5575 13247 1 0.16500 119244.000000
5575 14086 1 0.16500 119244.000000
5576 13247 1 0.16500 119244.000000
5576 16748 1 0.16500 119244.000000
5577 12344 1 0.16500 119244.000000
5577 16084 1 0.16500 119244.000000
5578 16084 1 0.16500 119244.000000
5578 17455 1 0.16500 119244.000000
5579 13897 1 0.16500 119244.000000
5579 17458 1 0.16500 119244.000000
5580 15330 1 0.16500 119244.000000
5580 16756 1 0.16500 119244.000000
5581 15330 1 0.16500 119244.000000
5581 17458 1 0.16500 119244.000000
5582 13248 1 0.16500 119244.000000
5582 13673 1 0.16500 119244.000000
5583 13248 1 0.16500 119244.000000
5583 16094 1 0.16500 119244.000000
5584 13248 1 0.16500 119244.000000
5584 14831 1 0.16500 119244.000000
5585 13249 1 0.16500 119244.000000
5585 16437 1 0.16500 119244.000000
5586 13249 1 0.16500 119244.000000
5586 13940 1 0.16500 119244.000000
5587 13250 1 0.16500 119244.000000
5587 14507 1 0.16500 119244.000000
5588 13250 1 0.16500 119244.000000
5588 15569 1 0.16500 119244.000000
5589 13250 1 0.16500 119244.000000
5589 13816 1 0.16500 119244.000000
5590 13250 1 0.16500 119244.000000
5590 17141 1 0.16500 119244.000000
5591 13251 1 0.16500 119244.000000
5591 17192 1 0.16500 119244.000000
5592 13251 1 0.16500 119244.000000
5592 17836 1 0.16500 119244.000000
5593 13251 1 0.16500 119244.000000
5593 14198 1 0.16500 119244.000000
5594 13252 1 0.16500 119244.000000
5594 14926 1 0.16500 119244.000000
5595 13252 1 0.16500 119244.000000
5595 13425 1 0.16500 119244.000000
5596 13252 1 0.16500 119244.000000
5596 16078 1 0.16500 119244.000000
5597 13252 1 0.16500 119244.000000
5597 16650 1 0.16500 119244.000000
5598 13253 1 0.16500 119244.000000
5598 16139 1 0.16500 119244.000000
5599 13253 1 0.16500 119244.000000
5599 13331 1 0.16500 119244.000000
5600 13254 1 0.16500 119244.000000
5600 16232 1 0.16500 119244.000000
5601 13254 1 0.16500 119244.000000
5601 14063 1 0.16500 119244.000000
5602 13255 1 0.16500 119244.000000
5602 14761 1 0.16500 119244.000000
5603 13255 1 0.16500 119244.000000
5603 14919 1 0.16500 119244.000000
5604 13255 1 0.16500 119244.000000
5604 14163 1 0.16500 119244.000000
5605 13256 1 0.16500 119244.000000
5605 14807 1 0.16500 119244.000000
5606 13256 1 0.16500 119244.000000
5606 15158 1 0.16500 119244.000000
5607 13256 1 0.16500 119244.000000
5607 14607 1 0.16500 119244.000000
5608 13256 1 0.16500 119244.000000
5608 13884 1 0.16500 119244.000000
5609 13257 1 0.16500 119244.000000
5609 14666 1 0.16500 119244.000000
5610 13257 1 0.16500 119244.000000
5610 15545 1 0.16500 119244.000000
5611 13257 1 0.16500 119244.000000
5611 17149 1 0.16500 119244.000000
5612 13258 1 0.16500 119244.000000
5612 16014 1 0.16500 119244.000000
5613 13258 1 0.16500 119244.000000
5613 15854 1 0.16500 119244.000000
5614 13258 1 0.16500 119244.000000
5614 16800 1 0.16500 119244.000000
5615 13259 1 0.16500 119244.000000
5615 14619 1 0.16500 119244.000000
5616 13259 1 0.16500 119244.000000
5616 16140 1 0.16500 119244.000000
5617 13259 1 0.16500 119244.000000
5617 15544 1 0.16500 119244.000000
5618 13260 1 0.16500 119244.000000
5618 16227 1 0.16500 119244.000000
5619 13260 1 0.16500 119244.000000
5619 14794 1 0.16500 119244.000000
5620 13260 1 0.16500 119244.000000
5620 14521 1 0.16500 119244.000000
5621 13260 1 0.16500 119244.000000
5621 14036 1 0.16500 119244.000000
5622 13261 1 0.16500 119244.000000
5622 15645 1 0.16500 119244.000000
5623 13261 1 0.16500 119244.000000
5623 17054 1 0.16500 119244.000000
5624 13261 1 0.16500 119244.000000
5624 14720 1 0.16500 119244.000000
5625 13261 1 0.16500 119244.000000
5625 14794 1 0.16500 119244.000000
5626 13262 1 0.16500 119244.000000
5626 16820 1 0.16500 119244.000000
5627 13263 1 0.16500 119244.000000
5627 16539 1 0.16500 119244.000000
5628 13263 1 0.16500 119244.000000
5628 15015 1 0.16500 119244.000000
5629 13264 1 0.16500 119244.000000
5629 14651 1 0.16500 119244.000000
5630 13265 1 0.16500 119244.000000
5630 14160 1 0.16500 119244.000000
5631 13266 1 0.16500 119244.000000
5631 14613 1 0.16500 119244.000000
5632 15728 1 0.16500 119244.000000
5632 16614 1 0.16500 119244.000000
5633 13266 1 0.16500 119244.000000
5633 16614 1 0.16500 119244.000000
5634 13266 1 0.16500 119244.000000
5634 13852 1 0.16500 119244.000000
5635 13267 1 0.16500 119244.000000
5635 16680 1 0.16500 119244.000000
5636 13267 1 0.16500 119244.000000
5636 16578 1 0.16500 119244.000000
5637 13267 1 0.16500 119244.000000
5637 13341 1 0.16500 119244.000000
5638 13267 1 0.16500 119244.000000
5638 14001 1 0.16500 119244.000000
5639 13268 1 0.16500 119244.000000
5639 15784 1 0.16500 119244.000000
5640 13268 1 0.16500 119244.000000
5640 13641 1 0.16500 119244.000000
5641 13268 1 0.16500 119244.000000
5641 16021 1 0.16500 119244.000000
5642 13269 1 0.16500 119244.000000
5642 15231 1 0.16500 119244.000000
5643 13269 1 0.16500 119244.000000
5643 16892 1 0.16500 119244.000000
5644 13269 1 0.16500 119244.000000
5644 14055 1 0.16500 119244.000000
5645 13269 1 0.16500 119244.000000
5645 15091 1 0.16500 119244.000000
5646 13270 1 0.16500 119244.000000
5646 14029 1 0.16500 119244.000000
5647 13270 1 0.16500 119244.000000
5647 15916 1 0.16500 119244.000000
5648 13270 1 0.16500 119244.000000
5648 15158 1 0.16500 119244.000000
5649 13271 1 0.16500 119244.000000
5649 17085 1 0.16500 119244.000000
5650 13271 1 0.16500 119244.000000
5650 14587 1 0.16500 119244.000000
5651 13271 1 0.16500 119244.000000
5651 15660 1 0.16500 119244.000000
5652 13271 1 0.16500 119244.000000
5652 17109 1 0.16500 119244.000000
5653 14378 1 0.16500 119244.000000
5653 15353 1 0.16500 119244.000000
5654 13272 1 0.16500 119244.000000
5654 14378 1 0.16500 119244.000000
5655 13272 1 0.16500 119244.000000
5655 14806 1 0.16500 119244.000000
5656 13273 1 0.16500 119244.000000
5656 14057 1 0.16500 119244.000000
5657 13273 1 0.16500 119244.000000
5657 14280 1 0.16500 119244.000000
5658 13273 1 0.16500 119244.000000
5658 15857 1 0.16500 119244.000000
5659 13273 1 0.16500 119244.000000
5659 16444 1 0.16500 119244.000000
5660 16274 1 0.16500 119244.000000
5660 17326 1 0.16500 119244.000000
5661 13274 1 0.16500 119244.000000
5661 13541 1 0.16500 119244.000000
5662 13274 1 0.16500 119244.000000
5662 16044 1 0.16500 119244.000000
5663 13274 1 0.16500 119244.000000
5663 14447 1 0.16500 119244.000000
5664 13275 1 0.16500 119244.000000
5664 14276 1 0.16500 119244.000000
5665 13275 1 0.16500 119244.000000
5665 13450 1 0.16500 119244.000000
5666 13275 1 0.16500 119244.000000
5666 13762 1 0.16500 119244.000000
5667 13276 1 0.16500 119244.000000
5667 15364 1 0.16500 119244.000000
5668 13276 1 0.16500 119244.000000
5668 17053 1 0.16500 119244.000000
5669 13276 1 0.16500 119244.000000
5669 14863 1 0.16500 119244.000000
5670 13277 1 0.16500 119244.000000
5670 14619 1 0.16500 119244.000000
5671 13277 1 0.16500 119244.000000
5671 16535 1 0.16500 119244.000000
5672 13277 1 0.16500 119244.000000
5672 13457 1 0.16500 119244.000000
5673 13277 1 0.16500 119244.000000
5673 16294 1 0.16500 119244.000000
5674 13278 1 0.16500 119244.000000
5674 14613 1 0.16500 119244.000000
5675 13278 1 0.16500 119244.000000
5675 13514 1 0.16500 119244.000000
5676 13278 1 0.16500 119244.000000
5676 13864 1 0.16500 119244.000000
5677 13278 1 0.16500 119244.000000
5677 13317 1 0.16500 119244.000000
5678 13279 1 0.16500 119244.000000
5678 15830 1 0.16500 119244.000000
5679 13279 1 0.16500 119244.000000
5679 14057 1 0.16500 119244.000000
5680 13279 1 0.16500 119244.000000
5680 16751 1 0.16500 119244.000000
5681 13280 1 0.16500 119244.000000
5681 17003 1 0.16500 119244.000000
5682 13280 1 0.16500 119244.000000
5682 14982 1 0.16500 119244.000000
5683 13281 1 0.16500 119244.000000
5683 15245 1 0.16500 119244.000000
5684 13281 1 0.16500 119244.000000
5684 14846 1 0.16500 119244.000000
5685 13281 1 0.16500 119244.000000
5685 16039 1 0.16500 119244.000000
5686 13282 1 0.16500 119244.000000
5686 16317 1 0.16500 119244.000000
5687 13282 1 0.16500 119244.000000
5687 14865 1 0.16500 119244.000000
5688 13282 1 0.16500 119244.000000
5688 14399 1 0.16500 119244.000000
5689 13283 1 0.16500 119244.000000
5689 14938 1 0.16500 119244.000000
5690 13283 1 0.16500 119244.000000
5690 15283 1 0.16500 119244.000000
5691 13284 1 0.16500 119244.000000
5691 16801 1 0.16500 119244.000000
5692 13284 1 0.16500 119244.000000
5692 14238 1 0.16500 119244.000000
5693 13284 1 0.16500 119244.000000
5693 15344 1 0.16500 119244.000000
5694 12115 1 0.16500 119244.000000
5694 13671 1 0.16500 119244.000000
5695 13671 1 0.16500 119244.000000
5695 16626 1 0.16500 119244.000000
5696 13286 1 0.16500 119244.000000
5696 15749 1 0.16500 119244.000000
5697 13286 1 0.16500 119244.000000
5697 15745 1 0.16500 119244.000000
5698 13286 1 0.16500 119244.000000
5698 16355 1 0.16500 119244.000000
5699 13286 1 0.16500 119244.000000
5699 16623 1 0.16500 119244.000000
5700 13287 1 0.16500 119244.000000
5700 13533 1 0.16500 119244.000000
5701 13287 1 0.16500 119244.000000
5701 16794 1 0.16500 119244.000000
5702 13287 1 0.16500 119244.000000
5702 16660 1 0.16500 119244.000000
5703 13288 1 0.16500 119244.000000
5703 15701 1 0.16500 119244.000000
5704 13288 1 0.16500 119244.000000
5704 13579 1 0.16500 119244.000000
5705 13288 1 0.16500 119244.000000
5705 16417 1 0.16500 119244.000000
5706 13339 1 0.16500 119244.000000
5706 14319 1 0.16500 119244.000000
5707 13289 1 0.16500 119244.000000
5707 15198 1 0.16500 119244.000000
5708 13289 1 0.16500 119244.000000
5708 13339 1 0.16500 119244.000000
5709 13290 1 0.16500 119244.000000
5709 15584 1 0.16500 119244.000000
5710 13290 1 0.16500 119244.000000
5710 13786 1 0.16500 119244.000000
5711 13291 1 0.16500 119244.000000
5711 14071 1 0.16500 119244.000000
5712 13291 1 0.16500 119244.000000
5712 14091 1 0.16500 119244.000000
5713 13292 1 0.16500 119244.000000
5713 14830 1 0.16500 119244.000000
5714 13292 1 0.16500 119244.000000
5714 17524 1 0.16500 119244.000000
5715 13293 1 0.16500 119244.000000
5715 14957 1 0.16500 119244.000000
5716 13293 1 0.16500 119244.000000
5716 13752 1 0.16500 119244.000000
5717 13293 1 0.16500 119244.000000
5717 14325 1 0.16500 119244.000000
5718 13294 1 0.16500 119244.000000
5718 15388 1 0.16500 119244.000000
5719 13294 1 0.16500 119244.000000
5719 14312 1 0.16500 119244.000000
5720 13294 1 0.16500 119244.000000
5720 16848 1 0.16500 119244.000000
5721 13294 1 0.16500 119244.000000
5721 16870 1 0.16500 119244.000000
5722 13295 1 0.16500 119244.000000
5722 15263 1 0.16500 119244.000000
5723 13295 1 0.16500 119244.000000
5723 15076 1 0.16500 119244.000000
5724 13295 1 0.16500 119244.000000
5724 15987 1 0.16500 119244.000000
5725 13296 1 0.16500 119244.000000
5725 16613 1 0.16500 119244.000000
5726 13296 1 0.16500 119244.000000
5726 14352 1 0.16500 119244.000000
5727 13296 1 0.16500 119244.000000
5727 17608 1 0.16500 119244.000000
5728 13297 1 0.16500 119244.000000
5728 15169 1 0.16500 119244.000000
5729 13297 1 0.16500 119244.000000
5729 14444 1 0.16500 119244.000000
5730 13297 1 0.16500 119244.000000
5730 15558 1 0.16500 119244.000000
5731 13298 1 0.16500 119244.000000
5731 15589 1 0.16500 119244.000000
5732 13298 1 0.16500 119244.000000
5732 14675 1 0.16500 119244.000000
5733 13299 1 0.16500 119244.000000
5733 13622 1 0.16500 119244.000000
5734 13299 1 0.16500 119244.000000
5734 13674 1 0.16500 119244.000000
5735 13300 1 0.16500 119244.000000
5735 16288 1 0.16500 119244.000000
5736 13300 1 0.16500 119244.000000
5736 13903 1 0.16500 119244.000000
5737 16781 1 0.16500 119244.000000
5737 17461 1 0.16500 119244.000000
5738 13301 1 0.16500 119244.000000
5738 16348 1 0.16500 119244.000000
5739 13301 1 0.16500 119244.000000
5739 13740 1 0.16500 119244.000000
5740 13301 1 0.16500 119244.000000
5740 16113 1 0.16500 119244.000000
5741 13301 1 0.16500 119244.000000
5741 15398 1 0.16500 119244.000000
5742 13302 1 0.16500 119244.000000
5742 16690 1 0.16500 119244.000000
5743 13302 1 0.16500 119244.000000
5743 13376 1 0.16500 119244.000000
5744 15483 1 0.16500 119244.000000
5744 16690 1 0.16500 119244.000000
5745 13108 1 0.16500 119244.000000
5745 13303 1 0.16500 119244.000000
5746 13303 1 0.16500 119244.000000
5746 14681 1 0.16500 119244.000000
5747 13304 1 0.16500 119244.000000
5747 15763 1 0.16500 119244.000000
5748 13304 1 0.16500 119244.000000
5748 14859 1 0.16500 119244.000000
5749 13305 1 0.16500 119244.000000
5749 15047 1 0.16500 119244.000000
5750 13305 1 0.16500 119244.000000
5750 14395 1 0.16500 119244.000000
5751 13306 1 0.16500 119244.000000
5751 14407 1 0.16500 119244.000000
5752 13306 1 0.16500 119244.000000
5752 14490 1 0.16500 119244.000000
5753 13307 1 0.16500 119244.000000
5753 13981 1 0.16500 119244.000000
5754 13307 1 0.16500 119244.000000
5754 13598 1 0.16500 119244.000000
5755 13307 1 0.16500 119244.000000
5755 16634 1 0.16500 119244.000000
5756 13308 1 0.16500 119244.000000
5756 14991 1 0.16500 119244.000000
5757 13308 1 0.16500 119244.000000
5757 14875 1 0.16500 119244.000000
5758 13308 1 0.16500 119244.000000
5758 14484 1 0.16500 119244.000000
5759 13309 1 0.16500 119244.000000
5759 15187 1 0.16500 119244.000000
5760 15187 1 0.16500 119244.000000
5760 17026 1 0.16500 119244.000000
5761 13310 1 0.16500 119244.000000
5761 15444 1 0.16500 119244.000000
5762 13310 1 0.16500 119244.000000
5762 13536 1 0.16500 119244.000000
5763 13310 1 0.16500 119244.000000
5763 16098 1 0.16500 119244.000000
5764 15107 1 0.16500 119244.000000
5764 15444 1 0.16500 119244.000000
5765 13311 1 0.16500 119244.000000
5765 13679 1 0.16500 119244.000000
5766 13311 1 0.16500 119244.000000
5766 16569 1 0.16500 119244.000000
5767 13312 1 0.16500 119244.000000
5767 16252 1 0.16500 119244.000000
5768 13312 1 0.16500 119244.000000
5768 14905 1 0.16500 119244.000000
5769 13312 1 0.16500 119244.000000
5769 15985 1 0.16500 119244.000000
5770 13312 1 0.16500 119244.000000
5770 14395 1 0.16500 119244.000000
5771 13313 1 0.16500 119244.000000
5771 15314 1 0.16500 119244.000000
5772 13314 1 0.16500 119244.000000
5772 16484 1 0.16500 119244.000000
5773 13314 1 0.16500 119244.000000
5773 15669 1 0.16500 119244.000000
5774 13315 1 0.16500 119244.000000
5774 14132 1 0.16500 119244.000000
5775 13315 1 0.16500 119244.000000
5775 14015 1 0.16500 119244.000000
5776 13315 1 0.16500 119244.000000
5776 16996 1 0.16500 119244.000000
5777 13316 1 0.16500 119244.000000
5777 13335 1 0.16500 119244.000000
5778 13316 1 0.16500 119244.000000
5778 13890 1 0.16500 119244.000000
5779 13316 1 0.16500 119244.000000
5779 15382 1 0.16500 119244.000000
5780 13317 1 0.16500 119244.000000
5780 14140 1 0.16500 119244.000000
5781 13317 1 0.16500 119244.000000
5781 14547 1 0.16500 119244.000000
5782 13317 1 0.16500 119244.000000
5782 14005 1 0.16500 119244.000000
5783 13318 1 0.16500 119244.000000
5783 15476 1 0.16500 119244.000000
5784 13318 1 0.16500 119244.000000
5784 13584 1 0.16500 119244.000000
5785 13318 1 0.16500 119244.000000
5785 15621 1 0.16500 119244.000000
5786 13319 1 0.16500 119244.000000
5786 16399 1 0.16500 119244.000000
5787 13320 1 0.16500 119244.000000
5787 14028 1 0.16500 119244.000000
5788 13320 1 0.16500 119244.000000
5788 16090 1 0.16500 119244.000000
5789 13320 1 0.16500 119244.000000
5789 14413 1 0.16500 119244.000000
5790 13320 1 0.16500 119244.000000
5790 16714 1 0.16500 119244.000000
5791 15806 1 0.16500 119244.000000
5791 16081 1 0.16500 119244.000000
5792 13321 1 0.16500 119244.000000
5792 15806 1 0.16500 119244.000000
5793 13321 1 0.16500 119244.000000
5793 15552 1 0.16500 119244.000000
5794 13675 1 0.16500 119244.000000
5794 14367 1 0.16500 119244.000000
5795 13322 1 0.16500 119244.000000
5795 14774 1 0.16500 119244.000000
5796 13322 1 0.16500 119244.000000
5796 14528 1 0.16500 119244.000000
5797 13322 1 0.16500 119244.000000
5797 14367 1 0.16500 119244.000000
5798 13323 1 0.16500 119244.000000
5798 14077 1 0.16500 119244.000000
5799 11691 1 0.16500 119244.000000
5799 13323 1 0.16500 119244.000000
5800 13323 1 0.16500 119244.000000
5800 14721 1 0.16500 119244.000000
5801 13323 1 0.16500 119244.000000
5801 14301 1 0.16500 119244.000000
5802 13324 1 0.16500 119244.000000
5802 13770 1 0.16500 119244.000000
5803 13325 1 0.16500 119244.000000
5803 15924 1 0.16500 119244.000000
5804 13325 1 0.16500 119244.000000
5804 15818 1 0.16500 119244.000000
5805 13325 1 0.16500 119244.000000
5805 16680 1 0.16500 119244.000000
5806 13326 1 0.16500 119244.000000
5806 16090 1 0.16500 119244.000000
5807 13326 1 0.16500 119244.000000
5807 15795 1 0.16500 119244.000000
5808 13326 1 0.16500 119244.000000
5808 15403 1 0.16500 119244.000000
5809 13326 1 0.16500 119244.000000
5809 16021 1 0.16500 119244.000000
5810 13327 1 0.16500 119244.000000
5810 16214 1 0.16500 119244.000000
5811 13327 1 0.16500 119244.000000
5811 15433 1 0.16500 119244.000000
5812 13328 1 0.16500 119244.000000
5812 13499 1 0.16500 119244.000000
5813 13328 1 0.16500 119244.000000
5813 14630 1 0.16500 119244.000000
5814 13328 1 0.16500 119244.000000
5814 13389 1 0.16500 119244.000000
5815 13329 1 0.16500 119244.000000
5815 17026 1 0.16500 119244.000000
5816 13329 1 0.16500 119244.000000
5816 16532 1 0.16500 119244.000000
5817 13329 1 0.16500 119244.000000
5817 13952 1 0.16500 119244.000000
5818 13330 1 0.16500 119244.000000
5818 16683 1 0.16500 119244.000000
5819 13330 1 0.16500 119244.000000
5819 16954 1 0.16500 119244.000000
5820 13253 1 0.16500 119244.000000
5820 14196 1 0.16500 119244.000000
5821 13331 1 0.16500 119244.000000
5821 14619 1 0.16500 119244.000000
5822 13332 1 0.16500 119244.000000
5822 15007 1 0.16500 119244.000000
5823 13332 1 0.16500 119244.000000
5823 16869 1 0.16500 119244.000000
5824 13709 1 0.16500 119244.000000
5824 15852 1 0.16500 119244.000000
5825 13333 1 0.16500 119244.000000
5825 15852 1 0.16500 119244.000000
5826 13333 1 0.16500 119244.000000
5826 15818 1 0.16500 119244.000000
5827 13333 1 0.16500 119244.000000
5827 14383 1 0.16500 119244.000000
5828 14697 1 0.16500 119244.000000
5828 14749 1 0.16500 119244.000000
5829 14749 1 0.16500 119244.000000
5829 17464 1 0.16500 119244.000000
5830 13334 1 0.16500 119244.000000
5830 13597 1 0.16500 119244.000000
5831 13335 1 0.16500 119244.000000
5831 15673 1 0.16500 119244.000000
5832 13336 1 0.16500 119244.000000
5832 15804 1 0.16500 119244.000000
5833 13336 1 0.16500 119244.000000
5833 14733 1 0.16500 119244.000000
5834 13336 1 0.16500 119244.000000
5834 17575 1 0.16500 119244.000000
5835 13337 1 0.16500 119244.000000
5835 14523 1 0.16500 119244.000000
5836 13337 1 0.16500 119244.000000
5836 15155 1 0.16500 119244.000000
5837 14886 1 0.16500 119244.000000
5837 15155 1 0.16500 119244.000000
5838 14757 1 0.16500 119244.000000
5838 15155 1 0.16500 119244.000000
5839 13338 1 0.16500 119244.000000
5839 16977 1 0.16500 119244.000000
5840 15235 1 0.16500 119244.000000
5840 16977 1 0.16500 119244.000000
5841 16977 1 0.16500 119244.000000
5841 17983 1 0.16500 119244.000000
5842 16827 1 0.16500 119244.000000
5842 16977 1 0.16500 119244.000000
5843 13339 1 0.16500 119244.000000
5843 15541 1 0.16500 119244.000000
5844 13289 1 0.16500 119244.000000
5844 17014 1 0.16500 119244.000000
5845 13340 1 0.16500 119244.000000
5845 18069 1 0.16500 119244.000000
5846 13340 1 0.16500 119244.000000
5846 13588 1 0.16500 119244.000000
5847 13341 1 0.16500 119244.000000
5847 14272 1 0.16500 119244.000000
5848 13341 1 0.16500 119244.000000
5848 17650 1 0.16500 119244.000000
5849 13341 1 0.16500 119244.000000
5849 15424 1 0.16500 119244.000000
5850 13342 1 0.16500 119244.000000
5850 16556 1 0.16500 119244.000000
5851 13342 1 0.16500 119244.000000
5851 14711 1 0.16500 119244.000000
5852 13342 1 0.16500 119244.000000
5852 15447 1 0.16500 119244.000000
5853 13343 1 0.16500 119244.000000
5853 16759 1 0.16500 119244.000000
5854 13344 1 0.16500 119244.000000
5854 17620 1 0.16500 119244.000000
5855 13344 1 0.16500 119244.000000
5855 14340 1 0.16500 119244.000000
5856 13344 1 0.16500 119244.000000
5856 15951 1 0.16500 119244.000000
5857 13344 1 0.16500 119244.000000
5857 16291 1 0.16500 119244.000000
5858 13048 1 0.16500 119244.000000
5858 13345 1 0.16500 119244.000000
5859 13345 1 0.16500 119244.000000
5859 13828 1 0.16500 119244.000000
5860 13346 1 0.16500 119244.000000
5860 16124 1 0.16500 119244.000000
5861 15683 1 0.16500 119244.000000
5861 16124 1 0.16500 119244.000000
5862 13347 1 0.16500 119244.000000
5862 16461 1 0.16500 119244.000000
5863 14724 1 0.16500 119244.000000
5863 15619 1 0.16500 119244.000000
5864 13347 1 0.16500 119244.000000
5864 15619 1 0.16500 119244.000000
5865 13348 1 0.16500 119244.000000
5865 15905 1 0.16500 119244.000000
5866 13348 1 0.16500 119244.000000
5866 17539 1 0.16500 119244.000000
5867 13348 1 0.16500 119244.000000
5867 16646 1 0.16500 119244.000000
5868 13349 1 0.16500 119244.000000
5868 14993 1 0.16500 119244.000000
5869 13349 1 0.16500 119244.000000
5869 16946 1 0.16500 119244.000000
5870 13350 1 0.16500 119244.000000
5870 15741 1 0.16500 119244.000000
5871 13350 1 0.16500 119244.000000
5871 14160 1 0.16500 119244.000000
5872 13350 1 0.16500 119244.000000
5872 16304 1 0.16500 119244.000000
5873 13351 1 0.16500 119244.000000
5873 13503 1 0.16500 119244.000000
5874 13351 1 0.16500 119244.000000
5874 15714 1 0.16500 119244.000000
5875 13351 1 0.16500 119244.000000
5875 14002 1 0.16500 119244.000000
5876 13352 1 0.16500 119244.000000
5876 13826 1 0.16500 119244.000000
5877 13352 1 0.16500 119244.000000
5877 14290 1 0.16500 119244.000000
5878 13352 1 0.16500 119244.000000
5878 13755 1 0.16500 119244.000000
5879 11857 1 0.16500 119244.000000
5879 13352 1 0.16500 119244.000000
5880 13353 1 0.16500 119244.000000
5880 14251 1 0.16500 119244.000000
5881 13353 1 0.16500 119244.000000
5881 14127 1 0.16500 119244.000000
5882 13353 1 0.16500 119244.000000
5882 14219 1 0.16500 119244.000000
5883 13353 1 0.16500 119244.000000
5883 16038 1 0.16500 119244.000000
5884 13354 1 0.16500 119244.000000
5884 15503 1 0.16500 119244.000000
5885 13354 1 0.16500 119244.000000
5885 13861 1 0.16500 119244.000000
5886 13354 1 0.16500 119244.000000
5886 16554 1 0.16500 119244.000000
5887 13355 1 0.16500 119244.000000
5887 17196 1 0.16500 119244.000000
5888 13355 1 0.16500 119244.000000
5888 15984 1 0.16500 119244.000000
5889 13356 1 0.16500 119244.000000
5889 13866 1 0.16500 119244.000000
5890 13356 1 0.16500 119244.000000
5890 14686 1 0.16500 119244.000000
5891 13356 1 0.16500 119244.000000
5891 15596 1 0.16500 119244.000000
5892 13357 1 0.16500 119244.000000
5892 13829 1 0.16500 119244.000000
5893 12742 1 0.16500 119244.000000
5893 13357 1 0.16500 119244.000000
5894 13357 1 0.16500 119244.000000
5894 15421 1 0.16500 119244.000000
5895 13358 1 0.16500 119244.000000
5895 14980 1 0.16500 119244.000000
5896 13358 1 0.16500 119244.000000
5896 16146 1 0.16500 119244.000000
5897 13358 1 0.16500 119244.000000
5897 15141 1 0.16500 119244.000000
5898 13359 1 0.16500 119244.000000
5898 16694 1 0.16500 119244.000000
5899 13359 1 0.16500 119244.000000
5899 16154 1 0.16500 119244.000000
5900 13359 1 0.16500 119244.000000
5900 15390 1 0.16500 119244.000000
5901 13360 1 0.16500 119244.000000
5901 14771 1 0.16500 119244.000000
5902 13360 1 0.16500 119244.000000
5902 13603 1 0.16500 119244.000000
5903 13360 1 0.16500 119244.000000
5903 14166 1 0.16500 119244.000000
5904 13361 1 0.16500 119244.000000
5904 13885 1 0.16500 119244.000000
5905 13361 1 0.16500 119244.000000
5905 15182 1 0.16500 119244.000000
5906 13361 1 0.16500 119244.000000
5906 16774 1 0.16500 119244.000000
5907 13361 1 0.16500 119244.000000
5907 14013 1 0.16500 119244.000000
5908 13362 1 0.16500 119244.000000
5908 16157 1 0.16500 119244.000000
5909 12447 1 0.16500 119244.000000
5909 13362 1 0.16500 119244.000000
5910 13362 1 0.16500 119244.000000
5910 13652 1 0.16500 119244.000000
5911 13363 1 0.16500 119244.000000
5911 14846 1 0.16500 119244.000000
5912 13363 1 0.16500 119244.000000
5912 13940 1 0.16500 119244.000000
5913 13363 1 0.16500 119244.000000
5913 15637 1 0.16500 119244.000000
5914 13364 1 0.16500 119244.000000
5914 15629 1 0.16500 119244.000000
5915 13364 1 0.16500 119244.000000
5915 15739 1 0.16500 119244.000000
5916 13364 1 0.16500 119244.000000
5916 13682 1 0.16500 119244.000000
5917 13365 1 0.16500 119244.000000
5917 13696 1 0.16500 119244.000000
5918 13365 1 0.16500 119244.000000
5918 14103 1 0.16500 119244.000000
5919 13366 1 0.16500 119244.000000
5919 16929 1 0.16500 119244.000000
5920 11812 1 0.16500 119244.000000
5920 13367 1 0.16500 119244.000000
5921 13367 1 0.16500 119244.000000
5921 15852 1 0.16500 119244.000000
5922 13367 1 0.16500 119244.000000
5922 13737 1 0.16500 119244.000000
5923 13368 1 0.16500 119244.000000
5923 16543 1 0.16500 119244.000000
5924 13368 1 0.16500 119244.000000
5924 16282 1 0.16500 119244.000000
5925 13368 1 0.16500 119244.000000
5925 13603 1 0.16500 119244.000000
5926 13369 1 0.16500 119244.000000
5926 14731 1 0.16500 119244.000000
5927 12542 1 0.16500 119244.000000
5927 13909 1 0.16500 119244.000000
5928 13370 1 0.16500 119244.000000
5928 16700 1 0.16500 119244.000000
5929 13370 1 0.16500 119244.000000
5929 15547 1 0.16500 119244.000000
5930 13371 1 0.16500 119244.000000
5930 14242 1 0.16500 119244.000000
5931 13371 1 0.16500 119244.000000
5931 16985 1 0.16500 119244.000000
5932 13371 1 0.16500 119244.000000
5932 14547 1 0.16500 119244.000000
5933 13371 1 0.16500 119244.000000
5933 14646 1 0.16500 119244.000000
5934 13372 1 0.16500 119244.000000
5934 14125 1 0.16500 119244.000000
5935 13373 1 0.16500 119244.000000
5935 15179 1 0.16500 119244.000000
5936 13373 1 0.16500 119244.000000
5936 14720 1 0.16500 119244.000000
5937 13374 1 0.16500 119244.000000
5937 14436 1 0.16500 119244.000000
5938 13374 1 0.16500 119244.000000
5938 13885 1 0.16500 119244.000000
5939 13375 1 0.16500 119244.000000
5939 14961 1 0.16500 119244.000000
5940 13375 1 0.16500 119244.000000
5940 13929 1 0.16500 119244.000000
5941 13375 1 0.16500 119244.000000
5941 15300 1 0.16500 119244.000000
5942 13375 1 0.16500 119244.000000
5942 14788 1 0.16500 119244.000000
5943 16401 1 0.16500 119244.000000
5943 16825 1 0.16500 119244.000000
5944 14440 1 0.16500 119244.000000
5944 16401 1 0.16500 119244.000000
5945 13376 1 0.16500 119244.000000
5945 16401 1 0.16500 119244.000000
5946 13377 1 0.16500 119244.000000
5946 15666 1 0.16500 119244.000000
5947 13377 1 0.16500 119244.000000
5947 15665 1 0.16500 119244.000000
5948 13377 1 0.16500 119244.000000
5948 13604 1 0.16500 119244.000000
5949 13378 1 0.16500 119244.000000
5949 17020 1 0.16500 119244.000000
5950 13378 1 0.16500 119244.000000
5950 14286 1 0.16500 119244.000000
5951 13378 1 0.16500 119244.000000
5951 13527 1 0.16500 119244.000000
5952 13378 1 0.16500 119244.000000
5952 13909 1 0.16500 119244.000000
5953 13379 1 0.16500 119244.000000
5953 14371 1 0.16500 119244.000000
5954 13379 1 0.16500 119244.000000
5954 16034 1 0.16500 119244.000000
5955 13115 1 0.16500 119244.000000
5955 13379 1 0.16500 119244.000000
5956 13379 1 0.16500 119244.000000
5956 16725 1 0.16500 119244.000000
5957 13380 1 0.16500 119244.000000
5957 14640 1 0.16500 119244.000000
5958 13380 1 0.16500 119244.000000
5958 14141 1 0.16500 119244.000000
5959 13380 1 0.16500 119244.000000
5959 13890 1 0.16500 119244.000000
5960 13380 1 0.16500 119244.000000
5960 15854 1 0.16500 119244.000000
5961 13381 1 0.16500 119244.000000
5961 13856 1 0.16500 119244.000000
5962 13381 1 0.16500 119244.000000
5962 14070 1 0.16500 119244.000000
5963 14836 1 0.16500 119244.000000
5963 15612 1 0.16500 119244.000000
5964 13382 1 0.16500 119244.000000
5964 13734 1 0.16500 119244.000000
5965 13382 1 0.16500 119244.000000
5965 14836 1 0.16500 119244.000000
5966 13383 1 0.16500 119244.000000
5966 16010 1 0.16500 119244.000000
5967 13383 1 0.16500 119244.000000
5967 15785 1 0.16500 119244.000000
5968 13384 1 0.16500 119244.000000
5968 14389 1 0.16500 119244.000000
5969 13042 1 0.16500 119244.000000
5969 13384 1 0.16500 119244.000000
5970 13385 1 0.16500 119244.000000
5970 14700 1 0.16500 119244.000000
5971 13385 1 0.16500 119244.000000
5971 14685 1 0.16500 119244.000000
5972 13385 1 0.16500 119244.000000
5972 13936 1 0.16500 119244.000000
5973 13798 1 0.16500 119244.000000
5973 14700 1 0.16500 119244.000000
5974 13386 1 0.16500 119244.000000
5974 17147 1 0.16500 119244.000000
5975 13386 1 0.16500 119244.000000
5975 13790 1 0.16500 119244.000000
5976 13387 1 0.16500 119244.000000
5976 14070 1 0.16500 119244.000000
5977 13387 1 0.16500 119244.000000
5977 15806 1 0.16500 119244.000000
5978 13901 1 0.16500 119244.000000
5978 14673 1 0.16500 119244.000000
5979 15374 1 0.16500 119244.000000
5979 17467 1 0.16500 119244.000000
5980 13901 1 0.16500 119244.000000
5980 17467 1 0.16500 119244.000000
5981 13901 1 0.16500 119244.000000
5981 15334 1 0.16500 119244.000000
5982 13388 1 0.16500 119244.000000
5982 14427 1 0.16500 119244.000000
5983 13388 1 0.16500 119244.000000
5983 13585 1 0.16500 119244.000000
5984 13389 1 0.16500 119244.000000
5984 16091 1 0.16500 119244.000000
5985 13389 1 0.16500 119244.000000
5985 14567 1 0.16500 119244.000000
5986 13389 1 0.16500 119244.000000
5986 13683 1 0.16500 119244.000000
5987 13390 1 0.16500 119244.000000
5987 17005 1 0.16500 119244.000000
5988 13390 1 0.16500 119244.000000
5988 16086 1 0.16500 119244.000000
5989 13391 1 0.16500 119244.000000
5989 16569 1 0.16500 119244.000000
5990 13391 1 0.16500 119244.000000
5990 15125 1 0.16500 119244.000000
5991 13392 1 0.16500 119244.000000
5991 15921 1 0.16500 119244.000000
5992 13392 1 0.16500 119244.000000
5992 13562 1 0.16500 119244.000000
5993 13393 1 0.16500 119244.000000
5993 15758 1 0.16500 119244.000000
5994 13393 1 0.16500 119244.000000
5994 13945 1 0.16500 119244.000000
5995 13393 1 0.16500 119244.000000
5995 16931 1 0.16500 119244.000000
5996 13393 1 0.16500 119244.000000
5996 15404 1 0.16500 119244.000000
5997 13394 1 0.16500 119244.000000
5997 18001 1 0.16500 119244.000000
5998 13394 1 0.16500 119244.000000
5998 14384 1 0.16500 119244.000000
5999 13395 1 0.16500 119244.000000
5999 16379 1 0.16500 119244.000000
6000 15627 1 0.16500 119244.000000
6000 17470 1 0.16500 119244.000000
6001 17094 1 0.16500 119244.000000
6001 17470 1 0.16500 119244.000000
6002 13396 1 0.16500 119244.000000
6002 15872 1 0.16500 119244.000000
6003 13396 1 0.16500 119244.000000
6003 14169 1 0.16500 119244.000000
6004 13396 1 0.16500 119244.000000
6004 13431 1 0.16500 119244.000000
6005 13397 1 0.16500 119244.000000
6005 16999 1 0.16500 119244.000000
6006 13397 1 0.16500 119244.000000
6006 15896 1 0.16500 119244.000000
6007 13398 1 0.16500 119244.000000
6007 16040 1 0.16500 119244.000000
6008 13398 1 0.16500 119244.000000
6008 13504 1 0.16500 119244.000000
6009 13398 1 0.16500 119244.000000
6009 16021 1 0.16500 119244.000000
6010 13398 1 0.16500 119244.000000
6010 14136 1 0.16500 119244.000000
6011 13399 1 0.16500 119244.000000
6011 16066 1 0.16500 119244.000000
6012 13399 1 0.16500 119244.000000
6012 16531 1 0.16500 119244.000000
6013 13400 1 0.16500 119244.000000
6013 13479 1 0.16500 119244.000000
6014 13400 1 0.16500 119244.000000
6014 15242 1 0.16500 119244.000000
6015 13400 1 0.16500 119244.000000
6015 15635 1 0.16500 119244.000000
6016 13401 1 0.16500 119244.000000
6016 17095 1 0.16500 119244.000000
6017 13401 1 0.16500 119244.000000
6017 15131 1 0.16500 119244.000000
6018 13401 1 0.16500 119244.000000
6018 15469 1 0.16500 119244.000000
6019 13401 1 0.16500 119244.000000
6019 16912 1 0.16500 119244.000000
6020 11905 1 0.16500 119244.000000
6020 13728 1 0.16500 119244.000000
6021 11905 1 0.16500 119244.000000
6021 16862 1 0.16500 119244.000000
6022 13403 1 0.16500 119244.000000
6022 15950 1 0.16500 119244.000000
6023 13403 1 0.16500 119244.000000
6023 14104 1 0.16500 119244.000000
6024 13403 1 0.16500 119244.000000
6024 14122 1 0.16500 119244.000000
6025 13403 1 0.16500 119244.000000
6025 15304 1 0.16500 119244.000000
6026 13404 1 0.16500 119244.000000
6026 17500 1 0.16500 119244.000000
6027 13404 1 0.16500 119244.000000
6027 15763 1 0.16500 119244.000000
6028 13405 1 0.16500 119244.000000
6028 14095 1 0.16500 119244.000000
6029 13405 1 0.16500 119244.000000
6029 15734 1 0.16500 119244.000000
6030 13405 1 0.16500 119244.000000
6030 16695 1 0.16500 119244.000000
6031 16673 1 0.16500 119244.000000
6031 18059 1 0.16500 119244.000000
6032 16673 1 0.16500 119244.000000
6032 17473 1 0.16500 119244.000000
6033 13406 1 0.16500 119244.000000
6033 14038 1 0.16500 119244.000000
6034 13406 1 0.16500 119244.000000
6034 14924 1 0.16500 119244.000000
6035 13407 1 0.16500 119244.000000
6035 13956 1 0.16500 119244.000000
6036 13407 1 0.16500 119244.000000
6036 17162 1 0.16500 119244.000000
6037 13407 1 0.16500 119244.000000
6037 14243 1 0.16500 119244.000000
6038 13408 1 0.16500 119244.000000
6038 13458 1 0.16500 119244.000000
6039 13409 1 0.16500 119244.000000
6039 14392 1 0.16500 119244.000000
6040 13409 1 0.16500 119244.000000
6040 16767 1 0.16500 119244.000000
6041 13409 1 0.16500 119244.000000
6041 14010 1 0.16500 119244.000000
6042 13409 1 0.16500 119244.000000
6042 16212 1 0.16500 119244.000000
6043 13410 1 0.16500 119244.000000
6043 16879 1 0.16500 119244.000000
6044 13410 1 0.16500 119244.000000
6044 14873 1 0.16500 119244.000000
6045 13410 1 0.16500 119244.000000
6045 16310 1 0.16500 119244.000000
6046 13410 1 0.16500 119244.000000
6046 16812 1 0.16500 119244.000000
6047 13411 1 0.16500 119244.000000
6047 16422 1 0.16500 119244.000000
6048 13411 1 0.16500 119244.000000
6048 14599 1 0.16500 119244.000000
6049 13411 1 0.16500 119244.000000
6049 16006 1 0.16500 119244.000000
6050 13412 1 0.16500 119244.000000
6050 17103 1 0.16500 119244.000000
6051 14095 1 0.16500 119244.000000
6051 18049 1 0.16500 119244.000000
6052 13413 1 0.16500 119244.000000
6052 15390 1 0.16500 119244.000000
6053 13413 1 0.16500 119244.000000
6053 16122 1 0.16500 119244.000000
6054 13413 1 0.16500 119244.000000
6054 15234 1 0.16500 119244.000000
6055 13414 1 0.16500 119244.000000
6055 15426 1 0.16500 119244.000000
6056 13414 1 0.16500 119244.000000
6056 14288 1 0.16500 119244.000000
6057 13414 1 0.16500 119244.000000
6057 17584 1 0.16500 119244.000000
6058 13415 1 0.16500 119244.000000
6058 15275 1 0.16500 119244.000000
6059 13415 1 0.16500 119244.000000
6059 16753 1 0.16500 119244.000000
6060 13415 1 0.16500 119244.000000
6060 16574 1 0.16500 119244.000000
6061 13417 1 0.16500 119244.000000
6061 17040 1 0.16500 119244.000000
6062 13418 1 0.16500 119244.000000
6062 13584 1 0.16500 119244.000000
6063 13418 1 0.16500 119244.000000
6063 15266 1 0.16500 119244.000000
6064 13418 1 0.16500 119244.000000
6064 16449 1 0.16500 119244.000000
6065 13419 1 0.16500 119244.000000
6065 13812 1 0.16500 119244.000000
6066 13419 1 0.16500 119244.000000
6066 17097 1 0.16500 119244.000000
6067 13419 1 0.16500 119244.000000
6067 16047 1 0.16500 119244.000000
6068 13420 1 0.16500 119244.000000
6068 16440 1 0.16500 119244.000000
6069 13420 1 0.16500 119244.000000
6069 13955 1 0.16500 119244.000000
6070 13421 1 0.16500 119244.000000
6070 16202 1 0.16500 119244.000000
6071 13421 1 0.16500 119244.000000
6071 15595 1 0.16500 119244.000000
6072 13421 1 0.16500 119244.000000
6072 16968 1 0.16500 119244.000000
6073 13421 1 0.16500 119244.000000
6073 14815 1 0.16500 119244.000000
6074 13422 1 0.16500 119244.000000
6074 14730 1 0.16500 119244.000000
6075 13422 1 0.16500 119244.000000
6075 14724 1 0.16500 119244.000000
6076 13423 1 0.16500 119244.000000
6076 17169 1 0.16500 119244.000000
6077 13423 1 0.16500 119244.000000
6077 15307 1 0.16500 119244.000000
6078 13423 1 0.16500 119244.000000
6078 16600 1 0.16500 119244.000000
6079 13424 1 0.16500 119244.000000
6079 14387 1 0.16500 119244.000000
6080 13424 1 0.16500 119244.000000
6080 15967 1 0.16500 119244.000000
6081 13425 1 0.16500 119244.000000
6081 15247 1 0.16500 119244.000000
6082 13425 1 0.16500 119244.000000
6082 15708 1 0.16500 119244.000000
6083 13425 1 0.16500 119244.000000
6083 14910 1 0.16500 119244.000000
6084 13426 1 0.16500 119244.000000
6084 14140 1 0.16500 119244.000000
6085 13426 1 0.16500 119244.000000
6085 14917 1 0.16500 119244.000000
6086 13426 1 0.16500 119244.000000
6086 13852 1 0.16500 119244.000000
6087 13426 1 0.16500 119244.000000
6087 15273 1 0.16500 119244.000000
6088 13427 1 0.16500 119244.000000
6088 17164 1 0.16500 119244.000000
6089 13427 1 0.16500 119244.000000
6089 15901 1 0.16500 119244.000000
6090 13428 1 0.16500 119244.000000
6090 15842 1 0.16500 119244.000000
6091 13428 1 0.16500 119244.000000
6091 16599 1 0.16500 119244.000000
6092 13428 1 0.16500 119244.000000
6092 14613 1 0.16500 119244.000000
6093 13428 1 0.16500 119244.000000
6093 14327 1 0.16500 119244.000000
6094 13429 1 0.16500 119244.000000
6094 15631 1 0.16500 119244.000000
6095 13429 1 0.16500 119244.000000
6095 16849 1 0.16500 119244.000000
6096 13429 1 0.16500 119244.000000
6096 13768 1 0.16500 119244.000000
6097 13430 1 0.16500 119244.000000
6097 13818 1 0.16500 119244.000000
6098 13430 1 0.16500 119244.000000
6098 13880 1 0.16500 119244.000000
6099 14908 1 0.16500 119244.000000
6099 17479 1 0.16500 119244.000000
6100 17479 1 0.16500 119244.000000
6100 17965 1 0.16500 119244.000000
6101 14518 1 0.16500 119244.000000
6101 17479 1 0.16500 119244.000000
6102 13431 1 0.16500 119244.000000
6102 15373 1 0.16500 119244.000000
6103 13431 1 0.16500 119244.000000
6103 17101 1 0.16500 119244.000000
6104 13432 1 0.16500 119244.000000
6104 16543 1 0.16500 119244.000000
6105 13432 1 0.16500 119244.000000
6105 13940 1 0.16500 119244.000000
6106 13432 1 0.16500 119244.000000
6106 14737 1 0.16500 119244.000000
6107 13432 1 0.16500 119244.000000
6107 15073 1 0.16500 119244.000000
6108 16429 1 0.16500 119244.000000
6108 17482 1 0.16500 119244.000000
6109 16407 1 0.16500 119244.000000
6109 17482 1 0.16500 119244.000000
6110 15829 1 0.16500 119244.000000
6110 17482 1 0.16500 119244.000000
6111 13433 1 0.16500 119244.000000
6111 14967 1 0.16500 119244.000000
6112 15423 1 0.16500 119244.000000
6112 15724 1 0.16500 119244.000000
6113 13433 1 0.16500 119244.000000
6113 15423 1 0.16500 119244.000000
6114 16533 1 0.16500 119244.000000
6114 16592 1 0.16500 119244.000000
6115 13434 1 0.16500 119244.000000
6115 16105 1 0.16500 119244.000000
6116 12973 1 0.16500 119244.000000
6116 13435 1 0.16500 119244.000000
6117 13435 1 0.16500 119244.000000
6117 16839 1 0.16500 119244.000000
6118 13436 1 0.16500 119244.000000
6118 16657 1 0.16500 119244.000000
6119 13437 1 0.16500 119244.000000
6119 16337 1 0.16500 119244.000000
6120 13437 1 0.16500 119244.000000
6120 13471 1 0.16500 119244.000000
6121 13437 1 0.16500 119244.000000
6121 14165 1 0.16500 119244.000000
6122 13438 1 0.16500 119244.000000
6122 16406 1 0.16500 119244.000000
6123 13438 1 0.16500 119244.000000
6123 14212 1 0.16500 119244.000000
6124 13439 1 0.16500 119244.000000
6124 15042 1 0.16500 119244.000000
6125 13439 1 0.16500 119244.000000
6125 16434 1 0.16500 119244.000000
6126 13439 1 0.16500 119244.000000
6126 15084 1 0.16500 119244.000000
6127 13439 1 0.16500 119244.000000
6127 13634 1 0.16500 119244.000000
6128 13440 1 0.16500 119244.000000
6128 13864 1 0.16500 119244.000000
6129 12403 1 0.16500 119244.000000
6129 13441 1 0.16500 119244.000000
6130 13441 1 0.16500 119244.000000
6130 17806 1 0.16500 119244.000000
6131 13441 1 0.16500 119244.000000
6131 14642 1 0.16500 119244.000000
6132 13442 1 0.16500 119244.000000
6132 13443 1 0.16500 119244.000000
6133 13442 1 0.16500 119244.000000
6133 13650 1 0.16500 119244.000000
6134 13442 1 0.16500 119244.000000
6134 15944 1 0.16500 119244.000000
6135 13895 1 0.16500 119244.000000
6135 15851 1 0.16500 119244.000000
6136 13443 1 0.16500 119244.000000
6136 13474 1 0.16500 119244.000000
6137 13444 1 0.16500 119244.000000
6137 15349 1 0.16500 119244.000000
6138 13444 1 0.16500 119244.000000
6138 13964 1 0.16500 119244.000000
6139 13444 1 0.16500 119244.000000
6139 14252 1 0.16500 119244.000000
6140 13444 1 0.16500 119244.000000
6140 16542 1 0.16500 119244.000000
6141 13445 1 0.16500 119244.000000
6141 13610 1 0.16500 119244.000000
6142 13445 1 0.16500 119244.000000
6142 16448 1 0.16500 119244.000000
6143 13445 1 0.16500 119244.000000
6143 14558 1 0.16500 119244.000000
6144 13446 1 0.16500 119244.000000
6144 16581 1 0.16500 119244.000000
6145 14480 1 0.16500 119244.000000
6145 15079 1 0.16500 119244.000000
6146 13447 1 0.16500 119244.000000
6146 14480 1 0.16500 119244.000000
6147 14480 1 0.16500 119244.000000
6147 16268 1 0.16500 119244.000000
6148 13448 1 0.16500 119244.000000
6148 13935 1 0.16500 119244.000000
6149 13448 1 0.16500 119244.000000
6149 16019 1 0.16500 119244.000000
6150 13449 1 0.16500 119244.000000
6150 17959 1 0.16500 119244.000000
6151 13449 1 0.16500 119244.000000
6151 17186 1 0.16500 119244.000000
6152 13449 1 0.16500 119244.000000
6152 16108 1 0.16500 119244.000000
6153 13449 1 0.16500 119244.000000
6153 15973 1 0.16500 119244.000000
6154 13450 1 0.16500 119244.000000
6154 14519 1 0.16500 119244.000000
6155 13451 1 0.16500 119244.000000
6155 14511 1 0.16500 119244.000000
6156 13451 1 0.16500 119244.000000
6156 14688 1 0.16500 119244.000000
6157 13451 1 0.16500 119244.000000
6157 14334 1 0.16500 119244.000000
6158 13452 1 0.16500 119244.000000
6158 16369 1 0.16500 119244.000000
6159 13452 1 0.16500 119244.000000
6159 14306 1 0.16500 119244.000000
6160 13453 1 0.16500 119244.000000
6160 14727 1 0.16500 119244.000000
6161 12979 1 0.16500 119244.000000
6161 13969 1 0.16500 119244.000000
6162 13969 1 0.16500 119244.000000
6162 16231 1 0.16500 119244.000000
6163 13454 1 0.16500 119244.000000
6163 13921 1 0.16500 119244.000000
6164 13454 1 0.16500 119244.000000
6164 14040 1 0.16500 119244.000000
6165 13455 1 0.16500 119244.000000
6165 14776 1 0.16500 119244.000000
6166 13455 1 0.16500 119244.000000
6166 14277 1 0.16500 119244.000000
6167 14645 1 0.16500 119244.000000
6167 16907 1 0.16500 119244.000000
6168 13456 1 0.16500 119244.000000
6168 16395 1 0.16500 119244.000000
6169 13456 1 0.16500 119244.000000
6169 15977 1 0.16500 119244.000000
6170 13456 1 0.16500 119244.000000
6170 14645 1 0.16500 119244.000000
6171 13457 1 0.16500 119244.000000
6171 15900 1 0.16500 119244.000000
6172 13457 1 0.16500 119244.000000
6172 17737 1 0.16500 119244.000000
6173 13458 1 0.16500 119244.000000
6173 14815 1 0.16500 119244.000000
6174 13458 1 0.16500 119244.000000
6174 14787 1 0.16500 119244.000000
6175 16427 1 0.16500 119244.000000
6175 17199 1 0.16500 119244.000000
6176 13459 1 0.16500 119244.000000
6176 13916 1 0.16500 119244.000000
6177 13459 1 0.16500 119244.000000
6177 16824 1 0.16500 119244.000000
6178 12106 1 0.16500 119244.000000
6178 17199 1 0.16500 119244.000000
6179 13460 1 0.16500 119244.000000
6179 15384 1 0.16500 119244.000000
6180 13460 1 0.16500 119244.000000
6180 13492 1 0.16500 119244.000000
6181 13461 1 0.16500 119244.000000
6181 16198 1 0.16500 119244.000000
6182 13461 1 0.16500 119244.000000
6182 16866 1 0.16500 119244.000000
6183 13461 1 0.16500 119244.000000
6183 14560 1 0.16500 119244.000000
6184 13461 1 0.16500 119244.000000
6184 14740 1 0.16500 119244.000000
6185 13462 1 0.16500 119244.000000
6185 14848 1 0.16500 119244.000000
6186 13462 1 0.16500 119244.000000
6186 17548 1 0.16500 119244.000000
6187 13462 1 0.16500 119244.000000
6187 16375 1 0.16500 119244.000000
6188 13463 1 0.16500 119244.000000
6188 13721 1 0.16500 119244.000000
6189 13463 1 0.16500 119244.000000
6189 16912 1 0.16500 119244.000000
6190 13463 1 0.16500 119244.000000
6190 14673 1 0.16500 119244.000000
6191 13463 1 0.16500 119244.000000
6191 13984 1 0.16500 119244.000000
6192 13464 1 0.16500 119244.000000
6192 14878 1 0.16500 119244.000000
6193 13465 1 0.16500 119244.000000
6193 14934 1 0.16500 119244.000000
6194 13465 1 0.16500 119244.000000
6194 14058 1 0.16500 119244.000000
6195 13465 1 0.16500 119244.000000
6195 15323 1 0.16500 119244.000000
6196 13465 1 0.16500 119244.000000
6196 14617 1 0.16500 119244.000000
6197 16429 1 0.16500 119244.000000
6197 17485 1 0.16500 119244.000000
6198 15546 1 0.16500 119244.000000
6198 17485 1 0.16500 119244.000000
6199 14469 1 0.16500 119244.000000
6199 14826 1 0.16500 119244.000000
6200 13466 1 0.16500 119244.000000
6200 16394 1 0.16500 119244.000000
6201 13466 1 0.16500 119244.000000
6201 15033 1 0.16500 119244.000000
6202 13466 1 0.16500 119244.000000
6202 13746 1 0.16500 119244.000000
6203 13467 1 0.16500 119244.000000
6203 13891 1 0.16500 119244.000000
6204 13467 1 0.16500 119244.000000
6204 13839 1 0.16500 119244.000000
6205 13468 1 0.16500 119244.000000
6205 14691 1 0.16500 119244.000000
6206 13468 1 0.16500 119244.000000
6206 16634 1 0.16500 119244.000000
6207 13468 1 0.16500 119244.000000
6207 15315 1 0.16500 119244.000000
6208 13469 1 0.16500 119244.000000
6208 14851 1 0.16500 119244.000000
6209 13469 1 0.16500 119244.000000
6209 14843 1 0.16500 119244.000000
6210 13470 1 0.16500 119244.000000
6210 15357 1 0.16500 119244.000000
6211 13470 1 0.16500 119244.000000
6211 16493 1 0.16500 119244.000000
6212 13470 1 0.16500 119244.000000
6212 14940 1 0.16500 119244.000000
6213 13470 1 0.16500 119244.000000
6213 16898 1 0.16500 119244.000000
6214 13471 1 0.16500 119244.000000
6214 13710 1 0.16500 119244.000000
6215 13472 1 0.16500 119244.000000
6215 14080 1 0.16500 119244.000000
6216 13472 1 0.16500 119244.000000
6216 13659 1 0.16500 119244.000000
6217 13472 1 0.16500 119244.000000
6217 14370 1 0.16500 119244.000000
6218 13473 1 0.16500 119244.000000
6218 15629 1 0.16500 119244.000000
6219 13473 1 0.16500 119244.000000
6219 15659 1 0.16500 119244.000000
6220 13474 1 0.16500 119244.000000
6220 16157 1 0.16500 119244.000000
6221 13475 1 0.16500 119244.000000
6221 17071 1 0.16500 119244.000000
6222 13130 1 0.16500 119244.000000
6222 13475 1 0.16500 119244.000000
6223 13476 1 0.16500 119244.000000
6223 16225 1 0.16500 119244.000000
6224 13476 1 0.16500 119244.000000
6224 14532 1 0.16500 119244.000000
6225 13476 1 0.16500 119244.000000
6225 16455 1 0.16500 119244.000000
6226 13477 1 0.16500 119244.000000
6226 15172 1 0.16500 119244.000000
6227 13477 1 0.16500 119244.000000
6227 16691 1 0.16500 119244.000000
6228 13477 1 0.16500 119244.000000
6228 14512 1 0.16500 119244.000000
6229 15823 1 0.16500 119244.000000
6229 17488 1 0.16500 119244.000000
6230 13478 1 0.16500 119244.000000
6230 17156 1 0.16500 119244.000000
6231 13478 1 0.16500 119244.000000
6231 14497 1 0.16500 119244.000000
6232 13478 1 0.16500 119244.000000
6232 17710 1 0.16500 119244.000000
6233 17332 1 0.16500 119244.000000
6233 17491 1 0.16500 119244.000000
6234 12791 1 0.16500 119244.000000
6234 14402 1 0.16500 119244.000000
6235 13479 1 0.16500 119244.000000
6235 17830 1 0.16500 119244.000000
6236 13480 1 0.16500 119244.000000
6236 14747 1 0.16500 119244.000000
6237 13480 1 0.16500 119244.000000
6237 13904 1 0.16500 119244.000000
6238 13480 1 0.16500 119244.000000
6238 15567 1 0.16500 119244.000000
6239 13481 1 0.16500 119244.000000
6239 16532 1 0.16500 119244.000000
6240 13481 1 0.16500 119244.000000
6240 14322 1 0.16500 119244.000000
6241 13481 1 0.16500 119244.000000
6241 17044 1 0.16500 119244.000000
6242 13481 1 0.16500 119244.000000
6242 17104 1 0.16500 119244.000000
6243 13482 1 0.16500 119244.000000
6243 14222 1 0.16500 119244.000000
6244 13482 1 0.16500 119244.000000
6244 15687 1 0.16500 119244.000000
6245 13483 1 0.16500 119244.000000
6245 16826 1 0.16500 119244.000000
6246 13484 1 0.16500 119244.000000
6246 15597 1 0.16500 119244.000000
6247 13484 1 0.16500 119244.000000
6247 16433 1 0.16500 119244.000000
6248 13485 1 0.16500 119244.000000
6248 16198 1 0.16500 119244.000000
6249 13485 1 0.16500 119244.000000
6249 14916 1 0.16500 119244.000000
6250 13485 1 0.16500 119244.000000
6250 13630 1 0.16500 119244.000000
6251 13486 1 0.16500 119244.000000
6251 17941 1 0.16500 119244.000000
6252 13487 1 0.16500 119244.000000
6252 16542 1 0.16500 119244.000000
6253 13487 1 0.16500 119244.000000
6253 14821 1 0.16500 119244.000000
6254 13487 1 0.16500 119244.000000
6254 14666 1 0.16500 119244.000000
6255 13488 1 0.16500 119244.000000
6255 14850 1 0.16500 119244.000000
6256 14728 1 0.16500 119244.000000
6256 15465 1 0.16500 119244.000000
6257 13488 1 0.16500 119244.000000
6257 13783 1 0.16500 119244.000000
6258 13488 1 0.16500 119244.000000
6258 14728 1 0.16500 119244.000000
6259 13489 1 0.16500 119244.000000
6259 14636 1 0.16500 119244.000000
6260 13489 1 0.16500 119244.000000
6260 16884 1 0.16500 119244.000000
6261 13489 1 0.16500 119244.000000
6261 16247 1 0.16500 119244.000000
6262 13490 1 0.16500 119244.000000
6262 17983 1 0.16500 119244.000000
6263 13490 1 0.16500 119244.000000
6263 15895 1 0.16500 119244.000000
6264 13490 1 0.16500 119244.000000
6264 14588 1 0.16500 119244.000000
6265 13491 1 0.16500 119244.000000
6265 13853 1 0.16500 119244.000000
6266 11699 1 0.16500 119244.000000
6266 16322 1 0.16500 119244.000000
6267 13493 1 0.16500 119244.000000
6267 17842 1 0.16500 119244.000000
6268 13494 1 0.16500 119244.000000
6268 16988 1 0.16500 119244.000000
6269 13494 1 0.16500 119244.000000
6269 16169 1 0.16500 119244.000000
6270 13494 1 0.16500 119244.000000
6270 15192 1 0.16500 119244.000000
6271 13494 1 0.16500 119244.000000
6271 16580 1 0.16500 119244.000000
6272 13495 1 0.16500 119244.000000
6272 16235 1 0.16500 119244.000000
6273 13495 1 0.16500 119244.000000
6273 16042 1 0.16500 119244.000000
6274 13495 1 0.16500 119244.000000
6274 15107 1 0.16500 119244.000000
6275 14386 1 0.16500 119244.000000
6275 15107 1 0.16500 119244.000000
6276 13496 1 0.16500 119244.000000
6276 14246 1 0.16500 119244.000000
6277 13496 1 0.16500 119244.000000
6277 14163 1 0.16500 119244.000000
6278 13497 1 0.16500 119244.000000
6278 17037 1 0.16500 119244.000000
6279 13497 1 0.16500 119244.000000
6279 15401 1 0.16500 119244.000000
6280 13497 1 0.16500 119244.000000
6280 16810 1 0.16500 119244.000000
6281 13497 1 0.16500 119244.000000
6281 15587 1 0.16500 119244.000000
6282 13498 1 0.16500 119244.000000
6282 17100 1 0.16500 119244.000000
6283 12583 1 0.16500 119244.000000
6283 13499 1 0.16500 119244.000000
6284 13499 1 0.16500 119244.000000
6284 16684 1 0.16500 119244.000000
6285 13499 1 0.16500 119244.000000
6285 15605 1 0.16500 119244.000000
6286 13500 1 0.16500 119244.000000
6286 16335 1 0.16500 119244.000000
6287 13500 1 0.16500 119244.000000
6287 16537 1 0.16500 119244.000000
6288 13501 1 0.16500 119244.000000
6288 16976 1 0.16500 119244.000000
6289 13501 1 0.16500 119244.000000
6289 16658 1 0.16500 119244.000000
6290 13502 1 0.16500 119244.000000
6290 16986 1 0.16500 119244.000000
6291 13502 1 0.16500 119244.000000
6291 16702 1 0.16500 119244.000000
6292 13503 1 0.16500 119244.000000
6292 14983 1 0.16500 119244.000000
6293 13503 1 0.16500 119244.000000
6293 15550 1 0.16500 119244.000000
6294 13503 1 0.16500 119244.000000
6294 14380 1 0.16500 119244.000000
6295 13504 1 0.16500 119244.000000
6295 16404 1 0.16500 119244.000000
6296 13504 1 0.16500 119244.000000
6296 16349 1 0.16500 119244.000000
6297 13505 1 0.16500 119244.000000
6297 16391 1 0.16500 119244.000000
6298 13505 1 0.16500 119244.000000
6298 16480 1 0.16500 119244.000000
6299 13505 1 0.16500 119244.000000
6299 15946 1 0.16500 119244.000000
6300 13505 1 0.16500 119244.000000
6300 16048 1 0.16500 119244.000000
6301 13506 1 0.16500 119244.000000
6301 14915 1 0.16500 119244.000000
6302 13506 1 0.16500 119244.000000
6302 16778 1 0.16500 119244.000000
6303 13506 1 0.16500 119244.000000
6303 16344 1 0.16500 119244.000000
6304 13507 1 0.16500 119244.000000
6304 16701 1 0.16500 119244.000000
6305 13507 1 0.16500 119244.000000
6305 16648 1 0.16500 119244.000000
6306 13508 1 0.16500 119244.000000
6306 14615 1 0.16500 119244.000000
6307 13508 1 0.16500 119244.000000
6307 15239 1 0.16500 119244.000000
6308 13508 1 0.16500 119244.000000
6308 16909 1 0.16500 119244.000000
6309 13509 1 0.16500 119244.000000
6309 15436 1 0.16500 119244.000000
6310 13509 1 0.16500 119244.000000
6310 17668 1 0.16500 119244.000000
6311 13510 1 0.16500 119244.000000
6311 14153 1 0.16500 119244.000000
6312 13510 1 0.16500 119244.000000
6312 14782 1 0.16500 119244.000000
6313 13510 1 0.16500 119244.000000
6313 13532 1 0.16500 119244.000000
6314 13511 1 0.16500 119244.000000
6314 15277 1 0.16500 119244.000000
6315 13511 1 0.16500 119244.000000
6315 15959 1 0.16500 119244.000000
6316 13512 1 0.16500 119244.000000
6316 16658 1 0.16500 119244.000000
6317 13512 1 0.16500 119244.000000
6317 16436 1 0.16500 119244.000000
6318 13512 1 0.16500 119244.000000
6318 14300 1 0.16500 119244.000000
6319 13513 1 0.16500 119244.000000
6319 15419 1 0.16500 119244.000000
6320 13513 1 0.16500 119244.000000
6320 15013 1 0.16500 119244.000000
6321 13447 1 0.16500 119244.000000
6321 13513 1 0.16500 119244.000000
6322 13513 1 0.16500 119244.000000
6322 16968 1 0.16500 119244.000000
6323 13514 1 0.16500 119244.000000
6323 14072 1 0.16500 119244.000000
6324 13514 1 0.16500 119244.000000
6324 15842 1 0.16500 119244.000000
6325 13515 1 0.16500 119244.000000
6325 17032 1 0.16500 119244.000000
6326 13515 1 0.16500 119244.000000
6326 14437 1 0.16500 119244.000000
6327 13515 1 0.16500 119244.000000
6327 13981 1 0.16500 119244.000000
6328 13516 1 0.16500 119244.000000
6328 17036 1 0.16500 119244.000000
6329 13516 1 0.16500 119244.000000
6329 17102 1 0.16500 119244.000000
6330 13516 1 0.16500 119244.000000
6330 16376 1 0.16500 119244.000000
6331 13517 1 0.16500 119244.000000
6331 15085 1 0.16500 119244.000000
6332 13517 1 0.16500 119244.000000
6332 16925 1 0.16500 119244.000000
6333 13517 1 0.16500 119244.000000
6333 15856 1 0.16500 119244.000000
6334 13517 1 0.16500 119244.000000
6334 14334 1 0.16500 119244.000000
6335 13518 1 0.16500 119244.000000
6335 17701 1 0.16500 119244.000000
6336 13519 1 0.16500 119244.000000
6336 14775 1 0.16500 119244.000000
6337 14775 1 0.16500 119244.000000
6337 16448 1 0.16500 119244.000000
6338 13520 1 0.16500 119244.000000
6338 14056 1 0.16500 119244.000000
6339 13520 1 0.16500 119244.000000
6339 16806 1 0.16500 119244.000000
6340 13521 1 0.16500 119244.000000
6340 17190 1 0.16500 119244.000000
6341 13521 1 0.16500 119244.000000
6341 17989 1 0.16500 119244.000000
6342 13521 1 0.16500 119244.000000
6342 15779 1 0.16500 119244.000000
6343 13522 1 0.16500 119244.000000
6343 16137 1 0.16500 119244.000000
6344 16137 1 0.16500 119244.000000
6344 16232 1 0.16500 119244.000000
6345 13522 1 0.16500 119244.000000
6345 16835 1 0.16500 119244.000000
6346 13523 1 0.16500 119244.000000
6346 13861 1 0.16500 119244.000000
6347 13523 1 0.16500 119244.000000
6347 15830 1 0.16500 119244.000000
6348 13523 1 0.16500 119244.000000
6348 17108 1 0.16500 119244.000000
6349 13523 1 0.16500 119244.000000
6349 13699 1 0.16500 119244.000000
6350 14872 1 0.16500 119244.000000
6350 17494 1 0.16500 119244.000000
6351 17044 1 0.16500 119244.000000
6351 17494 1 0.16500 119244.000000
6352 13524 1 0.16500 119244.000000
6352 16994 1 0.16500 119244.000000
6353 13524 1 0.16500 119244.000000
6353 16784 1 0.16500 119244.000000
6354 13525 1 0.16500 119244.000000
6354 13703 1 0.16500 119244.000000
6355 13525 1 0.16500 119244.000000
6355 17179 1 0.16500 119244.000000
6356 13082 1 0.16500 119244.000000
6356 16212 1 0.16500 119244.000000
6357 13526 1 0.16500 119244.000000
6357 14636 1 0.16500 119244.000000
6358 13527 1 0.16500 119244.000000
6358 14290 1 0.16500 119244.000000
6359 13527 1 0.16500 119244.000000
6359 15675 1 0.16500 119244.000000
6360 13528 1 0.16500 119244.000000
6360 16232 1 0.16500 119244.000000
6361 14354 1 0.16500 119244.000000
6361 16015 1 0.16500 119244.000000
6362 13528 1 0.16500 119244.000000
6362 15442 1 0.16500 119244.000000
6363 13528 1 0.16500 119244.000000
6363 14354 1 0.16500 119244.000000
6364 13529 1 0.16500 119244.000000
6364 14113 1 0.16500 119244.000000
6365 13529 1 0.16500 119244.000000
6365 14758 1 0.16500 119244.000000
6366 13529 1 0.16500 119244.000000
6366 16158 1 0.16500 119244.000000
6367 13529 1 0.16500 119244.000000
6367 15146 1 0.16500 119244.000000
6368 13530 1 0.16500 119244.000000
6368 13741 1 0.16500 119244.000000
6369 12936 1 0.16500 119244.000000
6369 13530 1 0.16500 119244.000000
6370 13530 1 0.16500 119244.000000
6370 14482 1 0.16500 119244.000000
6371 13531 1 0.16500 119244.000000
6371 15654 1 0.16500 119244.000000
6372 13531 1 0.16500 119244.000000
6372 15034 1 0.16500 119244.000000
6373 13531 1 0.16500 119244.000000
6373 15871 1 0.16500 119244.000000
6374 13532 1 0.16500 119244.000000
6374 16986 1 0.16500 119244.000000
6375 13532 1 0.16500 119244.000000
6375 16004 1 0.16500 119244.000000
6376 13533 1 0.16500 119244.000000
6376 15456 1 0.16500 119244.000000
6377 13533 1 0.16500 119244.000000
6377 15691 1 0.16500 119244.000000
6378 13534 1 0.16500 119244.000000
6378 16532 1 0.16500 119244.000000
6379 13534 1 0.16500 119244.000000
6379 14078 1 0.16500 119244.000000
6380 13534 1 0.16500 119244.000000
6380 14872 1 0.16500 119244.000000
6381 13535 1 0.16500 119244.000000
6381 16812 1 0.16500 119244.000000
6382 13536 1 0.16500 119244.000000
6382 15803 1 0.16500 119244.000000
6383 13639 1 0.16500 119244.000000
6383 17497 1 0.16500 119244.000000
6384 17497 1 0.16500 119244.000000
6384 17701 1 0.16500 119244.000000
6385 13537 1 0.16500 119244.000000
6385 14490 1 0.16500 119244.000000
6386 13537 1 0.16500 119244.000000
6386 17947 1 0.16500 119244.000000
6387 13538 1 0.16500 119244.000000
6387 14237 1 0.16500 119244.000000
6388 13538 1 0.16500 119244.000000
6388 14754 1 0.16500 119244.000000
6389 13538 1 0.16500 119244.000000
6389 15188 1 0.16500 119244.000000
6390 13538 1 0.16500 119244.000000
6390 16488 1 0.16500 119244.000000
6391 13539 1 0.16500 119244.000000
6391 16299 1 0.16500 119244.000000
6392 13539 1 0.16500 119244.000000
6392 13545 1 0.16500 119244.000000
6393 13539 1 0.16500 119244.000000
6393 16883 1 0.16500 119244.000000
6394 13539 1 0.16500 119244.000000
6394 17019 1 0.16500 119244.000000
6395 13540 1 0.16500 119244.000000
6395 13815 1 0.16500 119244.000000
6396 13540 1 0.16500 119244.000000
6396 16057 1 0.16500 119244.000000
6397 13540 1 0.16500 119244.000000
6397 14884 1 0.16500 119244.000000
6398 13541 1 0.16500 119244.000000
6398 13686 1 0.16500 119244.000000
6399 13541 1 0.16500 119244.000000
6399 16259 1 0.16500 119244.000000
6400 13686 1 0.16500 119244.000000
6400 15310 1 0.16500 119244.000000
6401 15400 1 0.16500 119244.000000
6401 16763 1 0.16500 119244.000000
6402 13542 1 0.16500 119244.000000
6402 14197 1 0.16500 119244.000000
6403 13542 1 0.16500 119244.000000
6403 15365 1 0.16500 119244.000000
6404 13543 1 0.16500 119244.000000
6404 17044 1 0.16500 119244.000000
6405 13543 1 0.16500 119244.000000
6405 15634 1 0.16500 119244.000000
6406 13543 1 0.16500 119244.000000
6406 13557 1 0.16500 119244.000000
6407 13544 1 0.16500 119244.000000
6407 13966 1 0.16500 119244.000000
6408 13544 1 0.16500 119244.000000
6408 16557 1 0.16500 119244.000000
6409 13545 1 0.16500 119244.000000
6409 15375 1 0.16500 119244.000000
6410 13546 1 0.16500 119244.000000
6410 13976 1 0.16500 119244.000000
6411 13546 1 0.16500 119244.000000
6411 16330 1 0.16500 119244.000000
6412 15043 1 0.16500 119244.000000
6412 16326 1 0.16500 119244.000000
6413 15017 1 0.16500 119244.000000
6413 16326 1 0.16500 119244.000000
6414 13547 1 0.16500 119244.000000
6414 16326 1 0.16500 119244.000000
6415 13548 1 0.16500 119244.000000
6415 15411 1 0.16500 119244.000000
6416 13549 1 0.16500 119244.000000
6416 16756 1 0.16500 119244.000000
6417 16138 1 0.16500 119244.000000
6417 16309 1 0.16500 119244.000000
6418 13549 1 0.16500 119244.000000
6418 16309 1 0.16500 119244.000000
6419 13550 1 0.16500 119244.000000
6419 13871 1 0.16500 119244.000000
6420 13550 1 0.16500 119244.000000
6420 16681 1 0.16500 119244.000000
6421 13551 1 0.16500 119244.000000
6421 14765 1 0.16500 119244.000000
6422 13551 1 0.16500 119244.000000
6422 16082 1 0.16500 119244.000000
6423 13552 1 0.16500 119244.000000
6423 13700 1 0.16500 119244.000000
6424 13553 1 0.16500 119244.000000
6424 14487 1 0.16500 119244.000000
6425 13553 1 0.16500 119244.000000
6425 16597 1 0.16500 119244.000000
6426 13553 1 0.16500 119244.000000
6426 14656 1 0.16500 119244.000000
6427 13553 1 0.16500 119244.000000
6427 17557 1 0.16500 119244.000000
6428 13554 1 0.16500 119244.000000
6428 16271 1 0.16500 119244.000000
6429 13554 1 0.16500 119244.000000
6429 14903 1 0.16500 119244.000000
6430 13555 1 0.16500 119244.000000
6430 15968 1 0.16500 119244.000000
6431 13555 1 0.16500 119244.000000
6431 13981 1 0.16500 119244.000000
6432 13556 1 0.16500 119244.000000
6432 16583 1 0.16500 119244.000000
6433 13556 1 0.16500 119244.000000
6433 13999 1 0.16500 119244.000000
6434 13557 1 0.16500 119244.000000
6434 15286 1 0.16500 119244.000000
6435 13557 1 0.16500 119244.000000
6435 15759 1 0.16500 119244.000000
6436 13557 1 0.16500 119244.000000
6436 15600 1 0.16500 119244.000000
6437 15759 1 0.16500 119244.000000
6437 16914 1 0.16500 119244.000000
6438 13558 1 0.16500 119244.000000
6438 14343 1 0.16500 119244.000000
6439 13558 1 0.16500 119244.000000
6439 14633 1 0.16500 119244.000000
6440 13559 1 0.16500 119244.000000
6440 15767 1 0.16500 119244.000000
6441 13559 1 0.16500 119244.000000
6441 16402 1 0.16500 119244.000000
6442 13559 1 0.16500 119244.000000
6442 16025 1 0.16500 119244.000000
6443 13560 1 0.16500 119244.000000
6443 14087 1 0.16500 119244.000000
6444 13560 1 0.16500 119244.000000
6444 13860 1 0.16500 119244.000000
6445 13560 1 0.16500 119244.000000
6445 13939 1 0.16500 119244.000000
6446 13560 1 0.16500 119244.000000
6446 14271 1 0.16500 119244.000000
6447 13561 1 0.16500 119244.000000
6447 13989 1 0.16500 119244.000000
6448 13561 1 0.16500 119244.000000
6448 14337 1 0.16500 119244.000000
6449 13561 1 0.16500 119244.000000
6449 14359 1 0.16500 119244.000000
6450 13562 1 0.16500 119244.000000
6450 13996 1 0.16500 119244.000000
6451 13562 1 0.16500 119244.000000
6451 15307 1 0.16500 119244.000000
6452 13562 1 0.16500 119244.000000
6452 16106 1 0.16500 119244.000000
6453 13563 1 0.16500 119244.000000
6453 14947 1 0.16500 119244.000000
6454 13563 1 0.16500 119244.000000
6454 16016 1 0.16500 119244.000000
6455 13563 1 0.16500 119244.000000
6455 16260 1 0.16500 119244.000000
6456 13564 1 0.16500 119244.000000
6456 14248 1 0.16500 119244.000000
6457 13564 1 0.16500 119244.000000
6457 13645 1 0.16500 119244.000000
6458 13564 1 0.16500 119244.000000
6458 14597 1 0.16500 119244.000000
6459 13564 1 0.16500 119244.000000
6459 16465 1 0.16500 119244.000000
6460 13565 1 0.16500 119244.000000
6460 14896 1 0.16500 119244.000000
6461 13565 1 0.16500 119244.000000
6461 14196 1 0.16500 119244.000000
6462 13565 1 0.16500 119244.000000
6462 14499 1 0.16500 119244.000000
6463 13565 1 0.16500 119244.000000
6463 15735 1 0.16500 119244.000000
6464 13566 1 0.16500 119244.000000
6464 14924 1 0.16500 119244.000000
6465 13566 1 0.16500 119244.000000
6465 15798 1 0.16500 119244.000000
6466 13566 1 0.16500 119244.000000
6466 16336 1 0.16500 119244.000000
6467 13567 1 0.16500 119244.000000
6467 15844 1 0.16500 119244.000000
6468 12729 1 0.16500 119244.000000
6468 14358 1 0.16500 119244.000000
6469 13568 1 0.16500 119244.000000
6469 14235 1 0.16500 119244.000000
6470 12729 1 0.16500 119244.000000
6470 15166 1 0.16500 119244.000000
6471 13569 1 0.16500 119244.000000
6471 14406 1 0.16500 119244.000000
6472 13569 1 0.16500 119244.000000
6472 14963 1 0.16500 119244.000000
6473 13570 1 0.16500 119244.000000
6473 16179 1 0.16500 119244.000000
6474 13570 1 0.16500 119244.000000
6474 15804 1 0.16500 119244.000000
6475 13570 1 0.16500 119244.000000
6475 16273 1 0.16500 119244.000000
6476 13571 1 0.16500 119244.000000
6476 13744 1 0.16500 119244.000000
6477 13571 1 0.16500 119244.000000
6477 15331 1 0.16500 119244.000000
6478 13571 1 0.16500 119244.000000
6478 16021 1 0.16500 119244.000000
6479 13114 1 0.16500 119244.000000
6479 13572 1 0.16500 119244.000000
6480 13573 1 0.16500 119244.000000
6480 16373 1 0.16500 119244.000000
6481 13573 1 0.16500 119244.000000
6481 14329 1 0.16500 119244.000000
6482 13573 1 0.16500 119244.000000
6482 15531 1 0.16500 119244.000000
6483 13574 1 0.16500 119244.000000
6483 15359 1 0.16500 119244.000000
6484 13574 1 0.16500 119244.000000
6484 16044 1 0.16500 119244.000000
6485 13574 1 0.16500 119244.000000
6485 14752 1 0.16500 119244.000000
6486 14045 1 0.16500 119244.000000
6486 17503 1 0.16500 119244.000000
6487 14788 1 0.16500 119244.000000
6487 17503 1 0.16500 119244.000000
6488 14788 1 0.16500 119244.000000
6488 17674 1 0.16500 119244.000000
6489 13575 1 0.16500 119244.000000
6489 15156 1 0.16500 119244.000000
6490 13576 1 0.16500 119244.000000
6490 14385 1 0.16500 119244.000000
6491 13576 1 0.16500 119244.000000
6491 15915 1 0.16500 119244.000000
6492 12510 1 0.16500 119244.000000
6492 17794 1 0.16500 119244.000000
6493 13577 1 0.16500 119244.000000
6493 14894 1 0.16500 119244.000000
6494 13577 1 0.16500 119244.000000
6494 16673 1 0.16500 119244.000000
6495 13577 1 0.16500 119244.000000
6495 16102 1 0.16500 119244.000000
6496 12296 1 0.16500 119244.000000
6496 13577 1 0.16500 119244.000000
6497 13578 1 0.16500 119244.000000
6497 14318 1 0.16500 119244.000000
6498 13578 1 0.16500 119244.000000
6498 15274 1 0.16500 119244.000000
6499 13578 1 0.16500 119244.000000
6499 14780 1 0.16500 119244.000000
6500 13578 1 0.16500 119244.000000
6500 17986 1 0.16500 119244.000000
6501 13579 1 0.16500 119244.000000
6501 15311 1 0.16500 119244.000000
6502 13579 1 0.16500 119244.000000
6502 13709 1 0.16500 119244.000000
6503 13580 1 0.16500 119244.000000
6503 14621 1 0.16500 119244.000000
6504 13580 1 0.16500 119244.000000
6504 16542 1 0.16500 119244.000000
6505 13581 1 0.16500 119244.000000
6505 16856 1 0.16500 119244.000000
6506 13581 1 0.16500 119244.000000
6506 13915 1 0.16500 119244.000000
6507 13582 1 0.16500 119244.000000
6507 16222 1 0.16500 119244.000000
6508 13583 1 0.16500 119244.000000
6508 15558 1 0.16500 119244.000000
6509 13583 1 0.16500 119244.000000
6509 15527 1 0.16500 119244.000000
6510 13583 1 0.16500 119244.000000
6510 13852 1 0.16500 119244.000000
6511 13583 1 0.16500 119244.000000
6511 15088 1 0.16500 119244.000000
6512 13584 1 0.16500 119244.000000
6512 16940 1 0.16500 119244.000000
6513 13585 1 0.16500 119244.000000
6513 16164 1 0.16500 119244.000000
6514 13585 1 0.16500 119244.000000
6514 15450 1 0.16500 119244.000000
6515 13586 1 0.16500 119244.000000
6515 14200 1 0.16500 119244.000000
6516 13586 1 0.16500 119244.000000
6516 16132 1 0.16500 119244.000000
6517 13587 1 0.16500 119244.000000
6517 17878 1 0.16500 119244.000000
6518 13587 1 0.16500 119244.000000
6518 13880 1 0.16500 119244.000000
6519 15332 1 0.16500 119244.000000
6519 17878 1 0.16500 119244.000000
6520 13589 1 0.16500 119244.000000
6520 16779 1 0.16500 119244.000000
6521 13589 1 0.16500 119244.000000
6521 14614 1 0.16500 119244.000000
6522 13590 1 0.16500 119244.000000
6522 13675 1 0.16500 119244.000000
6523 13590 1 0.16500 119244.000000
6523 15826 1 0.16500 119244.000000
6524 13590 1 0.16500 119244.000000
6524 14405 1 0.16500 119244.000000
6525 13591 1 0.16500 119244.000000
6525 16850 1 0.16500 119244.000000
6526 13592 1 0.16500 119244.000000
6526 14408 1 0.16500 119244.000000
6527 13593 1 0.16500 119244.000000
6527 13772 1 0.16500 119244.000000
6528 13593 1 0.16500 119244.000000
6528 14554 1 0.16500 119244.000000
6529 13593 1 0.16500 119244.000000
6529 17068 1 0.16500 119244.000000
6530 13594 1 0.16500 119244.000000
6530 16994 1 0.16500 119244.000000
6531 13594 1 0.16500 119244.000000
6531 16527 1 0.16500 119244.000000
6532 13595 1 0.16500 119244.000000
6532 14388 1 0.16500 119244.000000
6533 13595 1 0.16500 119244.000000
6533 15151 1 0.16500 119244.000000
6534 13595 1 0.16500 119244.000000
6534 13877 1 0.16500 119244.000000
6535 13595 1 0.16500 119244.000000
6535 13642 1 0.16500 119244.000000
6536 13596 1 0.16500 119244.000000
6536 14544 1 0.16500 119244.000000
6537 13596 1 0.16500 119244.000000
6537 14151 1 0.16500 119244.000000
6538 13597 1 0.16500 119244.000000
6538 17016 1 0.16500 119244.000000
6539 13597 1 0.16500 119244.000000
6539 14944 1 0.16500 119244.000000
6540 13599 1 0.16500 119244.000000
6540 15923 1 0.16500 119244.000000
6541 13599 1 0.16500 119244.000000
6541 16093 1 0.16500 119244.000000
6542 13599 1 0.16500 119244.000000
6542 14916 1 0.16500 119244.000000
6543 13599 1 0.16500 119244.000000
6543 16962 1 0.16500 119244.000000
6544 13600 1 0.16500 119244.000000
6544 13729 1 0.16500 119244.000000
6545 13600 1 0.16500 119244.000000
6545 14353 1 0.16500 119244.000000
6546 14353 1 0.16500 119244.000000
6546 14918 1 0.16500 119244.000000
6547 11879 1 0.16500 119244.000000
6547 14157 1 0.16500 119244.000000
6548 11879 1 0.16500 119244.000000
6548 16202 1 0.16500 119244.000000
6549 11879 1 0.16500 119244.000000
6549 16160 1 0.16500 119244.000000
6550 13602 1 0.16500 119244.000000
6550 14599 1 0.16500 119244.000000
6551 13602 1 0.16500 119244.000000
6551 14126 1 0.16500 119244.000000
6552 14126 1 0.16500 119244.000000
6552 16422 1 0.16500 119244.000000
6553 13603 1 0.16500 119244.000000
6553 13956 1 0.16500 119244.000000
6554 13603 1 0.16500 119244.000000
6554 15752 1 0.16500 119244.000000
6555 11775 1 0.16500 119244.000000
6555 13604 1 0.16500 119244.000000
6556 16503 1 0.16500 119244.000000
6556 17506 1 0.16500 119244.000000
6557 17506 1 0.16500 119244.000000
6557 17518 1 0.16500 119244.000000
6558 13605 1 0.16500 119244.000000
6558 15129 1 0.16500 119244.000000
6559 13606 1 0.16500 119244.000000
6559 16889 1 0.16500 119244.000000
6560 13606 1 0.16500 119244.000000
6560 17509 1 0.16500 119244.000000
6561 13606 1 0.16500 119244.000000
6561 14837 1 0.16500 119244.000000
6562 13606 1 0.16500 119244.000000
6562 17093 1 0.16500 119244.000000
6563 13607 1 0.16500 119244.000000
6563 15536 1 0.16500 119244.000000
6564 13607 1 0.16500 119244.000000
6564 16544 1 0.16500 119244.000000
6565 13607 1 0.16500 119244.000000
6565 15425 1 0.16500 119244.000000
6566 13608 1 0.16500 119244.000000
6566 16567 1 0.16500 119244.000000
6567 13608 1 0.16500 119244.000000
6567 17974 1 0.16500 119244.000000
6568 13608 1 0.16500 119244.000000
6568 17668 1 0.16500 119244.000000
6569 13609 1 0.16500 119244.000000
6569 15399 1 0.16500 119244.000000
6570 13609 1 0.16500 119244.000000
6570 16662 1 0.16500 119244.000000
6571 13610 1 0.16500 119244.000000
6571 16750 1 0.16500 119244.000000
6572 13611 1 0.16500 119244.000000
6572 15448 1 0.16500 119244.000000
6573 13611 1 0.16500 119244.000000
6573 15794 1 0.16500 119244.000000
6574 15448 1 0.16500 119244.000000
6574 17590 1 0.16500 119244.000000
6575 13612 1 0.16500 119244.000000
6575 16932 1 0.16500 119244.000000
6576 13612 1 0.16500 119244.000000
6576 15602 1 0.16500 119244.000000
6577 13612 1 0.16500 119244.000000
6577 15809 1 0.16500 119244.000000
6578 13613 1 0.16500 119244.000000
6578 16948 1 0.16500 119244.000000
6579 13613 1 0.16500 119244.000000
6579 15657 1 0.16500 119244.000000
6580 13613 1 0.16500 119244.000000
6580 14077 1 0.16500 119244.000000
6581 13614 1 0.16500 119244.000000
6581 16357 1 0.16500 119244.000000
6582 13615 1 0.16500 119244.000000
6582 15635 1 0.16500 119244.000000
6583 13615 1 0.16500 119244.000000
6583 14123 1 0.16500 119244.000000
6584 13615 1 0.16500 119244.000000
6584 16454 1 0.16500 119244.000000
6585 13615 1 0.16500 119244.000000
6585 15400 1 0.16500 119244.000000
6586 13616 1 0.16500 119244.000000
6586 15630 1 0.16500 119244.000000
6587 15630 1 0.16500 119244.000000
6587 16422 1 0.16500 119244.000000
6588 14380 1 0.16500 119244.000000
6588 15293 1 0.16500 119244.000000
6589 13617 1 0.16500 119244.000000
6589 15293 1 0.16500 119244.000000
6590 13617 1 0.16500 119244.000000
6590 15196 1 0.16500 119244.000000
6591 13617 1 0.16500 119244.000000
6591 14274 1 0.16500 119244.000000
6592 13618 1 0.16500 119244.000000
6592 14117 1 0.16500 119244.000000
6593 13618 1 0.16500 119244.000000
6593 13666 1 0.16500 119244.000000
6594 13619 1 0.16500 119244.000000
6594 16116 1 0.16500 119244.000000
6595 13619 1 0.16500 119244.000000
6595 16182 1 0.16500 119244.000000
6596 13619 1 0.16500 119244.000000
6596 15945 1 0.16500 119244.000000
6597 13620 1 0.16500 119244.000000
6597 16450 1 0.16500 119244.000000
6598 13620 1 0.16500 119244.000000
6598 15058 1 0.16500 119244.000000
6599 13620 1 0.16500 119244.000000
6599 14287 1 0.16500 119244.000000
6600 14556 1 0.16500 119244.000000
6600 17509 1 0.16500 119244.000000
6601 15289 1 0.16500 119244.000000
6601 17509 1 0.16500 119244.000000
6602 13621 1 0.16500 119244.000000
6602 15393 1 0.16500 119244.000000
6603 13621 1 0.16500 119244.000000
6603 16010 1 0.16500 119244.000000
6604 13621 1 0.16500 119244.000000
6604 15267 1 0.16500 119244.000000
6605 13621 1 0.16500 119244.000000
6605 16239 1 0.16500 119244.000000
6606 13622 1 0.16500 119244.000000
6606 14871 1 0.16500 119244.000000
6607 13622 1 0.16500 119244.000000
6607 15223 1 0.16500 119244.000000
6608 13623 1 0.16500 119244.000000
6608 15000 1 0.16500 119244.000000
6609 13623 1 0.16500 119244.000000
6609 14695 1 0.16500 119244.000000
6610 13623 1 0.16500 119244.000000
6610 15761 1 0.16500 119244.000000
6611 13623 1 0.16500 119244.000000
6611 14196 1 0.16500 119244.000000
6612 13624 1 0.16500 119244.000000
6612 15860 1 0.16500 119244.000000
6613 13624 1 0.16500 119244.000000
6613 15210 1 0.16500 119244.000000
6614 13624 1 0.16500 119244.000000
6614 16211 1 0.16500 119244.000000
6615 13625 1 0.16500 119244.000000
6615 15277 1 0.16500 119244.000000
6616 13617 1 0.16500 119244.000000
6616 13625 1 0.16500 119244.000000
6617 13625 1 0.16500 119244.000000
6617 16671 1 0.16500 119244.000000
6618 13626 1 0.16500 119244.000000
6618 15305 1 0.16500 119244.000000
6619 13626 1 0.16500 119244.000000
6619 16398 1 0.16500 119244.000000
6620 13627 1 0.16500 119244.000000
6620 14776 1 0.16500 119244.000000
6621 13627 1 0.16500 119244.000000
6621 16726 1 0.16500 119244.000000
6622 14069 1 0.16500 119244.000000
6622 14776 1 0.16500 119244.000000
6623 13628 1 0.16500 119244.000000
6623 15811 1 0.16500 119244.000000
6624 13628 1 0.16500 119244.000000
6624 15451 1 0.16500 119244.000000
6625 13629 1 0.16500 119244.000000
6625 16069 1 0.16500 119244.000000
6626 13629 1 0.16500 119244.000000
6626 15396 1 0.16500 119244.000000
6627 13629 1 0.16500 119244.000000
6627 16210 1 0.16500 119244.000000
6628 13629 1 0.16500 119244.000000
6628 15883 1 0.16500 119244.000000
6629 13630 1 0.16500 119244.000000
6629 15820 1 0.16500 119244.000000
6630 13630 1 0.16500 119244.000000
6630 15368 1 0.16500 119244.000000
6631 13631 1 0.16500 119244.000000
6631 14947 1 0.16500 119244.000000
6632 13631 1 0.16500 119244.000000
6632 16325 1 0.16500 119244.000000
6633 13633 1 0.16500 119244.000000
6633 14735 1 0.16500 119244.000000
6634 13633 1 0.16500 119244.000000
6634 15683 1 0.16500 119244.000000
6635 13633 1 0.16500 119244.000000
6635 14936 1 0.16500 119244.000000
6636 13634 1 0.16500 119244.000000
6636 14642 1 0.16500 119244.000000
6637 13634 1 0.16500 119244.000000
6637 14852 1 0.16500 119244.000000
6638 13634 1 0.16500 119244.000000
6638 16452 1 0.16500 119244.000000
6639 13958 1 0.16500 119244.000000
6639 17512 1 0.16500 119244.000000
6640 13635 1 0.16500 119244.000000
6640 16714 1 0.16500 119244.000000
6641 13635 1 0.16500 119244.000000
6641 14608 1 0.16500 119244.000000
6642 13635 1 0.16500 119244.000000
6642 17800 1 0.16500 119244.000000
6643 15253 1 0.16500 119244.000000
6643 17515 1 0.16500 119244.000000
6644 13636 1 0.16500 119244.000000
6644 16553 1 0.16500 119244.000000
6645 13495 1 0.16500 119244.000000
6645 13636 1 0.16500 119244.000000
6646 13636 1 0.16500 119244.000000
6646 14240 1 0.16500 119244.000000
6647 15509 1 0.16500 119244.000000
6647 17518 1 0.16500 119244.000000
6648 17015 1 0.16500 119244.000000
6648 17521 1 0.16500 119244.000000
6649 15080 1 0.16500 119244.000000
6649 17521 1 0.16500 119244.000000
6650 11694 1 0.16500 119244.000000
6650 17521 1 0.16500 119244.000000
6651 13637 1 0.16500 119244.000000
6651 14038 1 0.16500 119244.000000
6652 13637 1 0.16500 119244.000000
6652 14122 1 0.16500 119244.000000
6653 13637 1 0.16500 119244.000000
6653 15606 1 0.16500 119244.000000
6654 13637 1 0.16500 119244.000000
6654 16485 1 0.16500 119244.000000
6655 13638 1 0.16500 119244.000000
6655 13753 1 0.16500 119244.000000
6656 13638 1 0.16500 119244.000000
6656 13967 1 0.16500 119244.000000
6657 13638 1 0.16500 119244.000000
6657 14321 1 0.16500 119244.000000
6658 13639 1 0.16500 119244.000000
6658 15063 1 0.16500 119244.000000
6659 13640 1 0.16500 119244.000000
6659 16644 1 0.16500 119244.000000
6660 13640 1 0.16500 119244.000000
6660 13891 1 0.16500 119244.000000
6661 13640 1 0.16500 119244.000000
6661 14818 1 0.16500 119244.000000
6662 13641 1 0.16500 119244.000000
6662 14136 1 0.16500 119244.000000
6663 13641 1 0.16500 119244.000000
6663 15200 1 0.16500 119244.000000
6664 13642 1 0.16500 119244.000000
6664 15767 1 0.16500 119244.000000
6665 13642 1 0.16500 119244.000000
6665 15017 1 0.16500 119244.000000
6666 13643 1 0.16500 119244.000000
6666 14361 1 0.16500 119244.000000
6667 13643 1 0.16500 119244.000000
6667 16016 1 0.16500 119244.000000
6668 13644 1 0.16500 119244.000000
6668 14031 1 0.16500 119244.000000
6669 13644 1 0.16500 119244.000000
6669 15048 1 0.16500 119244.000000
6670 13644 1 0.16500 119244.000000
6670 16217 1 0.16500 119244.000000
6671 13645 1 0.16500 119244.000000
6671 15134 1 0.16500 119244.000000
6672 13645 1 0.16500 119244.000000
6672 15425 1 0.16500 119244.000000
6673 13646 1 0.16500 119244.000000
6673 17065 1 0.16500 119244.000000
6674 13646 1 0.16500 119244.000000
6674 16274 1 0.16500 119244.000000
6675 13646 1 0.16500 119244.000000
6675 15044 1 0.16500 119244.000000
6676 13647 1 0.16500 119244.000000
6676 13775 1 0.16500 119244.000000
6677 13647 1 0.16500 119244.000000
6677 17178 1 0.16500 119244.000000
6678 13647 1 0.16500 119244.000000
6678 13805 1 0.16500 119244.000000
6679 13648 1 0.16500 119244.000000
6679 16462 1 0.16500 119244.000000
6680 13648 1 0.16500 119244.000000
6680 16588 1 0.16500 119244.000000
6681 13648 1 0.16500 119244.000000
6681 16104 1 0.16500 119244.000000
6682 13648 1 0.16500 119244.000000
6682 15493 1 0.16500 119244.000000
6683 13649 1 0.16500 119244.000000
6683 14233 1 0.16500 119244.000000
6684 13650 1 0.16500 119244.000000
6684 16307 1 0.16500 119244.000000
6685 13651 1 0.16500 119244.000000
6685 16069 1 0.16500 119244.000000
6686 13651 1 0.16500 119244.000000
6686 14658 1 0.16500 119244.000000
6687 13652 1 0.16500 119244.000000
6687 13975 1 0.16500 119244.000000
6688 13653 1 0.16500 119244.000000
6688 17078 1 0.16500 119244.000000
6689 13653 1 0.16500 119244.000000
6689 14827 1 0.16500 119244.000000
6690 13653 1 0.16500 119244.000000
6690 15419 1 0.16500 119244.000000
6691 13654 1 0.16500 119244.000000
6691 13779 1 0.16500 119244.000000
6692 13654 1 0.16500 119244.000000
6692 15980 1 0.16500 119244.000000
6693 13654 1 0.16500 119244.000000
6693 16934 1 0.16500 119244.000000
6694 13654 1 0.16500 119244.000000
6694 15270 1 0.16500 119244.000000
6695 13655 1 0.16500 119244.000000
6695 14604 1 0.16500 119244.000000
6696 13655 1 0.16500 119244.000000
6696 14080 1 0.16500 119244.000000
6697 13655 1 0.16500 119244.000000
6697 13740 1 0.16500 119244.000000
6698 13655 1 0.16500 119244.000000
6698 16955 1 0.16500 119244.000000
6699 13656 1 0.16500 119244.000000
6699 15499 1 0.16500 119244.000000
6700 13656 1 0.16500 119244.000000
6700 16209 1 0.16500 119244.000000
6701 13656 1 0.16500 119244.000000
6701 14600 1 0.16500 119244.000000
6702 13656 1 0.16500 119244.000000
6702 14261 1 0.16500 119244.000000
6703 13657 1 0.16500 119244.000000
6703 14960 1 0.16500 119244.000000
6704 14960 1 0.16500 119244.000000
6704 17091 1 0.16500 119244.000000
6705 13658 1 0.16500 119244.000000
6705 16092 1 0.16500 119244.000000
6706 13658 1 0.16500 119244.000000
6706 13970 1 0.16500 119244.000000
6707 13659 1 0.16500 119244.000000
6707 14488 1 0.16500 119244.000000
6708 13659 1 0.16500 119244.000000
6708 14786 1 0.16500 119244.000000
6709 13660 1 0.16500 119244.000000
6709 14588 1 0.16500 119244.000000
6710 13660 1 0.16500 119244.000000
6710 15983 1 0.16500 119244.000000
6711 13661 1 0.16500 119244.000000
6711 16483 1 0.16500 119244.000000
6712 13662 1 0.16500 119244.000000
6712 15902 1 0.16500 119244.000000
6713 13662 1 0.16500 119244.000000
6713 15011 1 0.16500 119244.000000
6714 13662 1 0.16500 119244.000000
6714 17191 1 0.16500 119244.000000
6715 13054 1 0.16500 119244.000000
6715 13662 1 0.16500 119244.000000
6716 13663 1 0.16500 119244.000000
6716 14021 1 0.16500 119244.000000
6717 13664 1 0.16500 119244.000000
6717 15171 1 0.16500 119244.000000
6718 13664 1 0.16500 119244.000000
6718 16584 1 0.16500 119244.000000
6719 13664 1 0.16500 119244.000000
6719 14623 1 0.16500 119244.000000
6720 13664 1 0.16500 119244.000000
6720 14313 1 0.16500 119244.000000
6721 13665 1 0.16500 119244.000000
6721 14458 1 0.16500 119244.000000
6722 13665 1 0.16500 119244.000000
6722 16564 1 0.16500 119244.000000
6723 13665 1 0.16500 119244.000000
6723 14439 1 0.16500 119244.000000
6724 13666 1 0.16500 119244.000000
6724 16487 1 0.16500 119244.000000
6725 14900 1 0.16500 119244.000000
6725 18054 1 0.16500 119244.000000
6726 13667 1 0.16500 119244.000000
6726 14998 1 0.16500 119244.000000
6727 13668 1 0.16500 119244.000000
6727 15581 1 0.16500 119244.000000
6728 13668 1 0.16500 119244.000000
6728 15799 1 0.16500 119244.000000
6729 13669 1 0.16500 119244.000000
6729 16152 1 0.16500 119244.000000
6730 13669 1 0.16500 119244.000000
6730 15518 1 0.16500 119244.000000
6731 13669 1 0.16500 119244.000000
6731 17012 1 0.16500 119244.000000
6732 13670 1 0.16500 119244.000000
6732 13785 1 0.16500 119244.000000
6733 13670 1 0.16500 119244.000000
6733 16177 1 0.16500 119244.000000
6734 15221 1 0.16500 119244.000000
6734 16479 1 0.16500 119244.000000
6735 16479 1 0.16500 119244.000000
6735 17145 1 0.16500 119244.000000
6736 13671 1 0.16500 119244.000000
6736 15016 1 0.16500 119244.000000
6737 12115 1 0.16500 119244.000000
6737 18109 1 0.16500 119244.000000
6738 13672 1 0.16500 119244.000000
6738 15932 1 0.16500 119244.000000
6739 13672 1 0.16500 119244.000000
6739 14555 1 0.16500 119244.000000
6740 13672 1 0.16500 119244.000000
6740 15517 1 0.16500 119244.000000
6741 13673 1 0.16500 119244.000000
6741 15584 1 0.16500 119244.000000
6742 13673 1 0.16500 119244.000000
6742 14359 1 0.16500 119244.000000
6743 13674 1 0.16500 119244.000000
6743 15248 1 0.16500 119244.000000
6744 13674 1 0.16500 119244.000000
6744 16273 1 0.16500 119244.000000
6745 13674 1 0.16500 119244.000000
6745 16228 1 0.16500 119244.000000
6746 13675 1 0.16500 119244.000000
6746 15407 1 0.16500 119244.000000
6747 13675 1 0.16500 119244.000000
6747 13875 1 0.16500 119244.000000
6748 13676 1 0.16500 119244.000000
6748 16875 1 0.16500 119244.000000
6749 13676 1 0.16500 119244.000000
6749 13843 1 0.16500 119244.000000
6750 13676 1 0.16500 119244.000000
6750 14171 1 0.16500 119244.000000
6751 13676 1 0.16500 119244.000000
6751 17072 1 0.16500 119244.000000
6752 13677 1 0.16500 119244.000000
6752 17184 1 0.16500 119244.000000
6753 13677 1 0.16500 119244.000000
6753 14129 1 0.16500 119244.000000
6754 13677 1 0.16500 119244.000000
6754 13930 1 0.16500 119244.000000
6755 13677 1 0.16500 119244.000000
6755 14048 1 0.16500 119244.000000
6756 13678 1 0.16500 119244.000000
6756 15119 1 0.16500 119244.000000
6757 13678 1 0.16500 119244.000000
6757 14944 1 0.16500 119244.000000
6758 13679 1 0.16500 119244.000000
6758 15850 1 0.16500 119244.000000
6759 13680 1 0.16500 119244.000000
6759 14518 1 0.16500 119244.000000
6760 13680 1 0.16500 119244.000000
6760 16367 1 0.16500 119244.000000
6761 13680 1 0.16500 119244.000000
6761 14026 1 0.16500 119244.000000
6762 13927 1 0.16500 119244.000000
6762 15957 1 0.16500 119244.000000
6763 15935 1 0.16500 119244.000000
6763 15957 1 0.16500 119244.000000
6764 13681 1 0.16500 119244.000000
6764 17142 1 0.16500 119244.000000
6765 13966 1 0.16500 119244.000000
6765 15769 1 0.16500 119244.000000
6766 13682 1 0.16500 119244.000000
6766 16808 1 0.16500 119244.000000
6767 13682 1 0.16500 119244.000000
6767 15769 1 0.16500 119244.000000
6768 12603 1 0.16500 119244.000000
6768 13683 1 0.16500 119244.000000
6769 13683 1 0.16500 119244.000000
6769 14488 1 0.16500 119244.000000
6770 13683 1 0.16500 119244.000000
6770 14861 1 0.16500 119244.000000
6771 13684 1 0.16500 119244.000000
6771 15858 1 0.16500 119244.000000
6772 13684 1 0.16500 119244.000000
6772 16284 1 0.16500 119244.000000
6773 13684 1 0.16500 119244.000000
6773 15935 1 0.16500 119244.000000
6774 13685 1 0.16500 119244.000000
6774 14766 1 0.16500 119244.000000
6775 13685 1 0.16500 119244.000000
6775 16875 1 0.16500 119244.000000
6776 13685 1 0.16500 119244.000000
6776 16945 1 0.16500 119244.000000
6777 13686 1 0.16500 119244.000000
6777 14854 1 0.16500 119244.000000
6778 13541 1 0.16500 119244.000000
6778 17017 1 0.16500 119244.000000
6779 13686 1 0.16500 119244.000000
6779 14955 1 0.16500 119244.000000
6780 14625 1 0.16500 119244.000000
6780 16303 1 0.16500 119244.000000
6781 13687 1 0.16500 119244.000000
6781 14625 1 0.16500 119244.000000
6782 13687 1 0.16500 119244.000000
6782 16851 1 0.16500 119244.000000
6783 13688 1 0.16500 119244.000000
6783 16383 1 0.16500 119244.000000
6784 13688 1 0.16500 119244.000000
6784 16406 1 0.16500 119244.000000
6785 12308 1 0.16500 119244.000000
6785 16159 1 0.16500 119244.000000
6786 13689 1 0.16500 119244.000000
6786 15264 1 0.16500 119244.000000
6787 16159 1 0.16500 119244.000000
6787 17199 1 0.16500 119244.000000
6788 13690 1 0.16500 119244.000000
6788 14177 1 0.16500 119244.000000
6789 13690 1 0.16500 119244.000000
6789 14108 1 0.16500 119244.000000
6790 13690 1 0.16500 119244.000000
6790 15093 1 0.16500 119244.000000
6791 13691 1 0.16500 119244.000000
6791 13943 1 0.16500 119244.000000
6792 13691 1 0.16500 119244.000000
6792 15645 1 0.16500 119244.000000
6793 13691 1 0.16500 119244.000000
6793 14762 1 0.16500 119244.000000
6794 12631 1 0.16500 119244.000000
6794 15232 1 0.16500 119244.000000
6795 13692 1 0.16500 119244.000000
6795 16309 1 0.16500 119244.000000
6796 13693 1 0.16500 119244.000000
6796 17061 1 0.16500 119244.000000
6797 13693 1 0.16500 119244.000000
6797 14856 1 0.16500 119244.000000
6798 13694 1 0.16500 119244.000000
6798 15290 1 0.16500 119244.000000
6799 13694 1 0.16500 119244.000000
6799 16572 1 0.16500 119244.000000
6800 13694 1 0.16500 119244.000000
6800 14205 1 0.16500 119244.000000
6801 13695 1 0.16500 119244.000000
6801 16863 1 0.16500 119244.000000
6802 13695 1 0.16500 119244.000000
6802 13713 1 0.16500 119244.000000
6803 13695 1 0.16500 119244.000000
6803 16439 1 0.16500 119244.000000
6804 13696 1 0.16500 119244.000000
6804 17033 1 0.16500 119244.000000
6805 13696 1 0.16500 119244.000000
6805 16884 1 0.16500 119244.000000
6806 13696 1 0.16500 119244.000000
6806 16052 1 0.16500 119244.000000
6807 13697 1 0.16500 119244.000000
6807 16193 1 0.16500 119244.000000
6808 13697 1 0.16500 119244.000000
6808 14283 1 0.16500 119244.000000
6809 13697 1 0.16500 119244.000000
6809 17143 1 0.16500 119244.000000
6810 13163 1 0.16500 119244.000000
6810 13820 1 0.16500 119244.000000
6811 13699 1 0.16500 119244.000000
6811 16911 1 0.16500 119244.000000
6812 13700 1 0.16500 119244.000000
6812 16437 1 0.16500 119244.000000
6813 13701 1 0.16500 119244.000000
6813 14957 1 0.16500 119244.000000
6814 13701 1 0.16500 119244.000000
6814 15669 1 0.16500 119244.000000
6815 13025 1 0.16500 119244.000000
6815 13702 1 0.16500 119244.000000
6816 13702 1 0.16500 119244.000000
6816 16080 1 0.16500 119244.000000
6817 13703 1 0.16500 119244.000000
6817 15598 1 0.16500 119244.000000
6818 13703 1 0.16500 119244.000000
6818 16014 1 0.16500 119244.000000
6819 13704 1 0.16500 119244.000000
6819 15389 1 0.16500 119244.000000
6820 13337 1 0.16500 119244.000000
6820 13704 1 0.16500 119244.000000
6821 13704 1 0.16500 119244.000000
6821 16840 1 0.16500 119244.000000
6822 13602 1 0.16500 119244.000000
6822 13704 1 0.16500 119244.000000
6823 16878 1 0.16500 119244.000000
6823 17527 1 0.16500 119244.000000
6824 16721 1 0.16500 119244.000000
6824 17527 1 0.16500 119244.000000
6825 13706 1 0.16500 119244.000000
6825 15063 1 0.16500 119244.000000
6826 13706 1 0.16500 119244.000000
6826 16216 1 0.16500 119244.000000
6827 13706 1 0.16500 119244.000000
6827 14410 1 0.16500 119244.000000
6828 13707 1 0.16500 119244.000000
6828 16525 1 0.16500 119244.000000
6829 13707 1 0.16500 119244.000000
6829 17070 1 0.16500 119244.000000
6830 13707 1 0.16500 119244.000000
6830 15982 1 0.16500 119244.000000
6831 13708 1 0.16500 119244.000000
6831 13751 1 0.16500 119244.000000
6832 13708 1 0.16500 119244.000000
6832 14534 1 0.16500 119244.000000
6833 13709 1 0.16500 119244.000000
6833 16316 1 0.16500 119244.000000
6834 13709 1 0.16500 119244.000000
6834 14398 1 0.16500 119244.000000
6835 13710 1 0.16500 119244.000000
6835 16188 1 0.16500 119244.000000
6836 14680 1 0.16500 119244.000000
6836 15029 1 0.16500 119244.000000
6837 13710 1 0.16500 119244.000000
6837 15029 1 0.16500 119244.000000
6838 13711 1 0.16500 119244.000000
6838 17146 1 0.16500 119244.000000
6839 13711 1 0.16500 119244.000000
6839 15181 1 0.16500 119244.000000
6840 13712 1 0.16500 119244.000000
6840 15376 1 0.16500 119244.000000
6841 13713 1 0.16500 119244.000000
6841 15322 1 0.16500 119244.000000
6842 13713 1 0.16500 119244.000000
6842 15308 1 0.16500 119244.000000
6843 13714 1 0.16500 119244.000000
6843 16071 1 0.16500 119244.000000
6844 13714 1 0.16500 119244.000000
6844 14013 1 0.16500 119244.000000
6845 13715 1 0.16500 119244.000000
6845 15321 1 0.16500 119244.000000
6846 13715 1 0.16500 119244.000000
6846 14950 1 0.16500 119244.000000
6847 13715 1 0.16500 119244.000000
6847 16149 1 0.16500 119244.000000
6848 13715 1 0.16500 119244.000000
6848 16618 1 0.16500 119244.000000
6849 13716 1 0.16500 119244.000000
6849 16004 1 0.16500 119244.000000
6850 13716 1 0.16500 119244.000000
6850 15451 1 0.16500 119244.000000
6851 13716 1 0.16500 119244.000000
6851 14153 1 0.16500 119244.000000
6852 11816 1 0.16500 119244.000000
6852 13717 1 0.16500 119244.000000
6853 12231 1 0.16500 119244.000000
6853 13717 1 0.16500 119244.000000
6854 13718 1 0.16500 119244.000000
6854 15955 1 0.16500 119244.000000
6855 13718 1 0.16500 119244.000000
6855 16291 1 0.16500 119244.000000
6856 13719 1 0.16500 119244.000000
6856 16310 1 0.16500 119244.000000
6857 13719 1 0.16500 119244.000000
6857 14882 1 0.16500 119244.000000
6858 13719 1 0.16500 119244.000000
6858 15891 1 0.16500 119244.000000
6859 13719 1 0.16500 119244.000000
6859 16180 1 0.16500 119244.000000
6860 13720 1 0.16500 119244.000000
6860 16243 1 0.16500 119244.000000
6861 12700 1 0.16500 119244.000000
6861 16964 1 0.16500 119244.000000
6862 13720 1 0.16500 119244.000000
6862 15068 1 0.16500 119244.000000
6863 13721 1 0.16500 119244.000000
6863 16758 1 0.16500 119244.000000
6864 13722 1 0.16500 119244.000000
6864 16494 1 0.16500 119244.000000
6865 13722 1 0.16500 119244.000000
6865 15556 1 0.16500 119244.000000
6866 13722 1 0.16500 119244.000000
6866 16883 1 0.16500 119244.000000
6867 14574 1 0.16500 119244.000000
6867 17093 1 0.16500 119244.000000
6868 13723 1 0.16500 119244.000000
6868 15289 1 0.16500 119244.000000
6869 13723 1 0.16500 119244.000000
6869 14574 1 0.16500 119244.000000
6870 13724 1 0.16500 119244.000000
6870 15439 1 0.16500 119244.000000
6871 13724 1 0.16500 119244.000000
6871 15215 1 0.16500 119244.000000
6872 13725 1 0.16500 119244.000000
6872 16400 1 0.16500 119244.000000
6873 13725 1 0.16500 119244.000000
6873 15182 1 0.16500 119244.000000
6874 13725 1 0.16500 119244.000000
6874 16708 1 0.16500 119244.000000
6875 13726 1 0.16500 119244.000000
6875 14764 1 0.16500 119244.000000
6876 13726 1 0.16500 119244.000000
6876 14507 1 0.16500 119244.000000
6877 13726 1 0.16500 119244.000000
6877 16508 1 0.16500 119244.000000
6878 13727 1 0.16500 119244.000000
6878 15393 1 0.16500 119244.000000
6879 13727 1 0.16500 119244.000000
6879 16197 1 0.16500 119244.000000
6880 13728 1 0.16500 119244.000000
6880 17104 1 0.16500 119244.000000
6881 13728 1 0.16500 119244.000000
6881 15426 1 0.16500 119244.000000
6882 13728 1 0.16500 119244.000000
6882 14322 1 0.16500 119244.000000
6883 12349 1 0.16500 119244.000000
6883 13729 1 0.16500 119244.000000
6884 13729 1 0.16500 119244.000000
6884 14728 1 0.16500 119244.000000
6885 13730 1 0.16500 119244.000000
6885 16285 1 0.16500 119244.000000
6886 13730 1 0.16500 119244.000000
6886 16866 1 0.16500 119244.000000
6887 13731 1 0.16500 119244.000000
6887 14312 1 0.16500 119244.000000
6888 13732 1 0.16500 119244.000000
6888 14096 1 0.16500 119244.000000
6889 13733 1 0.16500 119244.000000
6889 17728 1 0.16500 119244.000000
6890 13733 1 0.16500 119244.000000
6890 14276 1 0.16500 119244.000000
6891 13734 1 0.16500 119244.000000
6891 16376 1 0.16500 119244.000000
6892 13734 1 0.16500 119244.000000
6892 15516 1 0.16500 119244.000000
6893 13735 1 0.16500 119244.000000
6893 14597 1 0.16500 119244.000000
6894 13735 1 0.16500 119244.000000
6894 15210 1 0.16500 119244.000000
6895 13736 1 0.16500 119244.000000
6895 15077 1 0.16500 119244.000000
6896 13736 1 0.16500 119244.000000
6896 15821 1 0.16500 119244.000000
6897 15821 1 0.16500 119244.000000
6897 16034 1 0.16500 119244.000000
6898 13736 1 0.16500 119244.000000
6898 16080 1 0.16500 119244.000000
6899 14526 1 0.16500 119244.000000
6899 17530 1 0.16500 119244.000000
6900 16192 1 0.16500 119244.000000
6900 17530 1 0.16500 119244.000000
6901 17533 1 0.16500 119244.000000
6901 17863 1 0.16500 119244.000000
6902 13737 1 0.16500 119244.000000
6902 15217 1 0.16500 119244.000000
6903 13737 1 0.16500 119244.000000
6903 14468 1 0.16500 119244.000000
6904 13737 1 0.16500 119244.000000
6904 15572 1 0.16500 119244.000000
6905 13738 1 0.16500 119244.000000
6905 14215 1 0.16500 119244.000000
6906 13739 1 0.16500 119244.000000
6906 13918 1 0.16500 119244.000000
6907 13739 1 0.16500 119244.000000
6907 16334 1 0.16500 119244.000000
6908 13739 1 0.16500 119244.000000
6908 16237 1 0.16500 119244.000000
6909 13739 1 0.16500 119244.000000
6909 15986 1 0.16500 119244.000000
6910 13740 1 0.16500 119244.000000
6910 14565 1 0.16500 119244.000000
6911 13741 1 0.16500 119244.000000
6911 15565 1 0.16500 119244.000000
6912 13741 1 0.16500 119244.000000
6912 13968 1 0.16500 119244.000000
6913 13742 1 0.16500 119244.000000
6913 17902 1 0.16500 119244.000000
6914 13742 1 0.16500 119244.000000
6914 15280 1 0.16500 119244.000000
6915 13742 1 0.16500 119244.000000
6915 17062 1 0.16500 119244.000000
6916 13743 1 0.16500 119244.000000
6916 13966 1 0.16500 119244.000000
6917 13743 1 0.16500 119244.000000
6917 15082 1 0.16500 119244.000000
6918 13744 1 0.16500 119244.000000
6918 14768 1 0.16500 119244.000000
6919 13744 1 0.16500 119244.000000
6919 15522 1 0.16500 119244.000000
6920 13744 1 0.16500 119244.000000
6920 15636 1 0.16500 119244.000000
6921 13745 1 0.16500 119244.000000
6921 16935 1 0.16500 119244.000000
6922 13746 1 0.16500 119244.000000
6922 14289 1 0.16500 119244.000000
6923 13746 1 0.16500 119244.000000
6923 14860 1 0.16500 119244.000000
6924 14591 1 0.16500 119244.000000
6924 14860 1 0.16500 119244.000000
6925 13747 1 0.16500 119244.000000
6925 13975 1 0.16500 119244.000000
6926 13748 1 0.16500 119244.000000
6926 15418 1 0.16500 119244.000000
6927 13749 1 0.16500 119244.000000
6927 15599 1 0.16500 119244.000000
6928 13749 1 0.16500 119244.000000
6928 15618 1 0.16500 119244.000000
6929 13749 1 0.16500 119244.000000
6929 15845 1 0.16500 119244.000000
6930 13750 1 0.16500 119244.000000
6930 14382 1 0.16500 119244.000000
6931 16789 1 0.16500 119244.000000
6931 17536 1 0.16500 119244.000000
6932 14592 1 0.16500 119244.000000
6932 17536 1 0.16500 119244.000000
6933 13751 1 0.16500 119244.000000
6933 14506 1 0.16500 119244.000000
6934 13751 1 0.16500 119244.000000
6934 15975 1 0.16500 119244.000000
6935 13752 1 0.16500 119244.000000
6935 14548 1 0.16500 119244.000000
6936 13752 1 0.16500 119244.000000
6936 15568 1 0.16500 119244.000000
6937 13752 1 0.16500 119244.000000
6937 15931 1 0.16500 119244.000000
6938 13753 1 0.16500 119244.000000
6938 15934 1 0.16500 119244.000000
6939 13753 1 0.16500 119244.000000
6939 16386 1 0.16500 119244.000000
6940 13753 1 0.16500 119244.000000
6940 14442 1 0.16500 119244.000000
6941 13754 1 0.16500 119244.000000
6941 16261 1 0.16500 119244.000000
6942 13754 1 0.16500 119244.000000
6942 16201 1 0.16500 119244.000000
6943 13754 1 0.16500 119244.000000
6943 14048 1 0.16500 119244.000000
6944 13755 1 0.16500 119244.000000
6944 16582 1 0.16500 119244.000000
6945 13755 1 0.16500 119244.000000
6945 15256 1 0.16500 119244.000000
6946 13756 1 0.16500 119244.000000
6946 14588 1 0.16500 119244.000000
6947 13756 1 0.16500 119244.000000
6947 16504 1 0.16500 119244.000000
6948 14901 1 0.16500 119244.000000
6948 15408 1 0.16500 119244.000000
6949 15408 1 0.16500 119244.000000
6949 15600 1 0.16500 119244.000000
6950 13757 1 0.16500 119244.000000
6950 15408 1 0.16500 119244.000000
6951 13758 1 0.16500 119244.000000
6951 16151 1 0.16500 119244.000000
6952 13758 1 0.16500 119244.000000
6952 14012 1 0.16500 119244.000000
6953 13758 1 0.16500 119244.000000
6953 16244 1 0.16500 119244.000000
6954 13758 1 0.16500 119244.000000
6954 16150 1 0.16500 119244.000000
6955 13759 1 0.16500 119244.000000
6955 17029 1 0.16500 119244.000000
6956 13759 1 0.16500 119244.000000
6956 15305 1 0.16500 119244.000000
6957 13759 1 0.16500 119244.000000
6957 14115 1 0.16500 119244.000000
6958 13760 1 0.16500 119244.000000
6958 16556 1 0.16500 119244.000000
6959 12753 1 0.16500 119244.000000
6959 17179 1 0.16500 119244.000000
6960 13761 1 0.16500 119244.000000
6960 14749 1 0.16500 119244.000000
6961 13733 1 0.16500 119244.000000
6961 13762 1 0.16500 119244.000000
6962 13763 1 0.16500 119244.000000
6962 15217 1 0.16500 119244.000000
6963 13763 1 0.16500 119244.000000
6963 14099 1 0.16500 119244.000000
6964 14099 1 0.16500 119244.000000
6964 14949 1 0.16500 119244.000000
6965 14009 1 0.16500 119244.000000
6965 15715 1 0.16500 119244.000000
6966 13764 1 0.16500 119244.000000
6966 15504 1 0.16500 119244.000000
6967 13764 1 0.16500 119244.000000
6967 15715 1 0.16500 119244.000000
6968 13765 1 0.16500 119244.000000
6968 15345 1 0.16500 119244.000000
6969 15345 1 0.16500 119244.000000
6969 15835 1 0.16500 119244.000000
6970 13766 1 0.16500 119244.000000
6970 15292 1 0.16500 119244.000000
6971 12636 1 0.16500 119244.000000
6971 14002 1 0.16500 119244.000000
6972 13767 1 0.16500 119244.000000
6972 14943 1 0.16500 119244.000000
6973 13767 1 0.16500 119244.000000
6973 14729 1 0.16500 119244.000000
6974 13767 1 0.16500 119244.000000
6974 16487 1 0.16500 119244.000000
6975 13768 1 0.16500 119244.000000
6975 15813 1 0.16500 119244.000000
6976 13768 1 0.16500 119244.000000
6976 15071 1 0.16500 119244.000000
6977 13768 1 0.16500 119244.000000
6977 14006 1 0.16500 119244.000000
6978 13769 1 0.16500 119244.000000
6978 15187 1 0.16500 119244.000000
6979 13770 1 0.16500 119244.000000
6979 16555 1 0.16500 119244.000000
6980 13770 1 0.16500 119244.000000
6980 14942 1 0.16500 119244.000000
6981 13770 1 0.16500 119244.000000
6981 15932 1 0.16500 119244.000000
6982 13772 1 0.16500 119244.000000
6982 15521 1 0.16500 119244.000000
6983 13772 1 0.16500 119244.000000
6983 15758 1 0.16500 119244.000000
6984 13773 1 0.16500 119244.000000
6984 14992 1 0.16500 119244.000000
6985 13773 1 0.16500 119244.000000
6985 15786 1 0.16500 119244.000000
6986 13773 1 0.16500 119244.000000
6986 14124 1 0.16500 119244.000000
6987 13774 1 0.16500 119244.000000
6987 16581 1 0.16500 119244.000000
6988 13774 1 0.16500 119244.000000
6988 17842 1 0.16500 119244.000000
6989 13775 1 0.16500 119244.000000
6989 14007 1 0.16500 119244.000000
6990 13775 1 0.16500 119244.000000
6990 15513 1 0.16500 119244.000000
6991 13776 1 0.16500 119244.000000
6991 16121 1 0.16500 119244.000000
6992 13776 1 0.16500 119244.000000
6992 16815 1 0.16500 119244.000000
6993 13777 1 0.16500 119244.000000
6993 16648 1 0.16500 119244.000000
6994 13777 1 0.16500 119244.000000
6994 16919 1 0.16500 119244.000000
6995 13778 1 0.16500 119244.000000
6995 14317 1 0.16500 119244.000000
6996 13778 1 0.16500 119244.000000
6996 14946 1 0.16500 119244.000000
6997 13779 1 0.16500 119244.000000
6997 17893 1 0.16500 119244.000000
6998 13780 1 0.16500 119244.000000
6998 14445 1 0.16500 119244.000000
6999 13780 1 0.16500 119244.000000
6999 14026 1 0.16500 119244.000000
7000 13781 1 0.16500 119244.000000
7000 16298 1 0.16500 119244.000000
7001 13782 1 0.16500 119244.000000
7001 14250 1 0.16500 119244.000000
7002 11789 1 0.16500 119244.000000
7002 13783 1 0.16500 119244.000000
7003 13784 1 0.16500 119244.000000
7003 16248 1 0.16500 119244.000000
7004 13784 1 0.16500 119244.000000
7004 16782 1 0.16500 119244.000000
7005 13784 1 0.16500 119244.000000
7005 15971 1 0.16500 119244.000000
7006 13785 1 0.16500 119244.000000
7006 16009 1 0.16500 119244.000000
7007 13786 1 0.16500 119244.000000
7007 15642 1 0.16500 119244.000000
7008 13786 1 0.16500 119244.000000
7008 16956 1 0.16500 119244.000000
7009 13786 1 0.16500 119244.000000
7009 15199 1 0.16500 119244.000000
7010 13787 1 0.16500 119244.000000
7010 14800 1 0.16500 119244.000000
7011 13787 1 0.16500 119244.000000
7011 16197 1 0.16500 119244.000000
7012 13787 1 0.16500 119244.000000
7012 15412 1 0.16500 119244.000000
7013 13788 1 0.16500 119244.000000
7013 15551 1 0.16500 119244.000000
7014 13788 1 0.16500 119244.000000
7014 14818 1 0.16500 119244.000000
7015 13788 1 0.16500 119244.000000
7015 16644 1 0.16500 119244.000000
7016 13788 1 0.16500 119244.000000
7016 16169 1 0.16500 119244.000000
7017 13789 1 0.16500 119244.000000
7017 16145 1 0.16500 119244.000000
7018 13789 1 0.16500 119244.000000
7018 16994 1 0.16500 119244.000000
7019 13790 1 0.16500 119244.000000
7019 15113 1 0.16500 119244.000000
7020 13790 1 0.16500 119244.000000
7020 15377 1 0.16500 119244.000000
7021 13791 1 0.16500 119244.000000
7021 16516 1 0.16500 119244.000000
7022 13791 1 0.16500 119244.000000
7022 13943 1 0.16500 119244.000000
7023 13791 1 0.16500 119244.000000
7023 17002 1 0.16500 119244.000000
7024 13792 1 0.16500 119244.000000
7024 16278 1 0.16500 119244.000000
7025 13792 1 0.16500 119244.000000
7025 14565 1 0.16500 119244.000000
7026 13792 1 0.16500 119244.000000
7026 16113 1 0.16500 119244.000000
7027 13792 1 0.16500 119244.000000
7027 16446 1 0.16500 119244.000000
7028 13793 1 0.16500 119244.000000
7028 14312 1 0.16500 119244.000000
7029 13793 1 0.16500 119244.000000
7029 15547 1 0.16500 119244.000000
7030 13793 1 0.16500 119244.000000
7030 16945 1 0.16500 119244.000000
7031 13793 1 0.16500 119244.000000
7031 13843 1 0.16500 119244.000000
7032 13794 1 0.16500 119244.000000
7032 16339 1 0.16500 119244.000000
7033 13794 1 0.16500 119244.000000
7033 16496 1 0.16500 119244.000000
7034 13794 1 0.16500 119244.000000
7034 14933 1 0.16500 119244.000000
7035 13795 1 0.16500 119244.000000
7035 14536 1 0.16500 119244.000000
7036 13795 1 0.16500 119244.000000
7036 15751 1 0.16500 119244.000000
7037 13795 1 0.16500 119244.000000
7037 17151 1 0.16500 119244.000000
7038 13797 1 0.16500 119244.000000
7038 16763 1 0.16500 119244.000000
7039 13797 1 0.16500 119244.000000
7039 15672 1 0.16500 119244.000000
7040 13797 1 0.16500 119244.000000
7040 14869 1 0.16500 119244.000000
7041 13797 1 0.16500 119244.000000
7041 16830 1 0.16500 119244.000000
7042 13798 1 0.16500 119244.000000
7042 15864 1 0.16500 119244.000000
7043 13798 1 0.16500 119244.000000
7043 15744 1 0.16500 119244.000000
7044 13799 1 0.16500 119244.000000
7044 14885 1 0.16500 119244.000000
7045 13799 1 0.16500 119244.000000
7045 14745 1 0.16500 119244.000000
7046 13799 1 0.16500 119244.000000
7046 15768 1 0.16500 119244.000000
7047 13800 1 0.16500 119244.000000
7047 16577 1 0.16500 119244.000000
7048 13800 1 0.16500 119244.000000
7048 14214 1 0.16500 119244.000000
7049 13800 1 0.16500 119244.000000
7049 14724 1 0.16500 119244.000000
7050 13800 1 0.16500 119244.000000
7050 15298 1 0.16500 119244.000000
7051 13801 1 0.16500 119244.000000
7051 15525 1 0.16500 119244.000000
7052 13802 1 0.16500 119244.000000
7052 16620 1 0.16500 119244.000000
7053 13803 1 0.16500 119244.000000
7053 14676 1 0.16500 119244.000000
7054 13803 1 0.16500 119244.000000
7054 14085 1 0.16500 119244.000000
7055 13804 1 0.16500 119244.000000
7055 17121 1 0.16500 119244.000000
7056 13805 1 0.16500 119244.000000
7056 17143 1 0.16500 119244.000000
7057 13805 1 0.16500 119244.000000
7057 14698 1 0.16500 119244.000000
7058 13806 1 0.16500 119244.000000
7058 14440 1 0.16500 119244.000000
7059 13806 1 0.16500 119244.000000
7059 14669 1 0.16500 119244.000000
7060 13806 1 0.16500 119244.000000
7060 16636 1 0.16500 119244.000000
7061 13807 1 0.16500 119244.000000
7061 14763 1 0.16500 119244.000000
7062 13807 1 0.16500 119244.000000
7062 15736 1 0.16500 119244.000000
7063 14763 1 0.16500 119244.000000
7063 16257 1 0.16500 119244.000000
7064 13807 1 0.16500 119244.000000
7064 14648 1 0.16500 119244.000000
7065 13808 1 0.16500 119244.000000
7065 15988 1 0.16500 119244.000000
7066 13808 1 0.16500 119244.000000
7066 17569 1 0.16500 119244.000000
7067 13809 1 0.16500 119244.000000
7067 14962 1 0.16500 119244.000000
7068 13809 1 0.16500 119244.000000
7068 16300 1 0.16500 119244.000000
7069 13809 1 0.16500 119244.000000
7069 15504 1 0.16500 119244.000000
7070 13809 1 0.16500 119244.000000
7070 14759 1 0.16500 119244.000000
7071 13810 1 0.16500 119244.000000
7071 16384 1 0.16500 119244.000000
7072 13810 1 0.16500 119244.000000
7072 16948 1 0.16500 119244.000000
7073 13810 1 0.16500 119244.000000
7073 15467 1 0.16500 119244.000000
7074 13811 1 0.16500 119244.000000
7074 15488 1 0.16500 119244.000000
7075 13811 1 0.16500 119244.000000
7075 14481 1 0.16500 119244.000000
7076 13811 1 0.16500 119244.000000
7076 16278 1 0.16500 119244.000000
7077 13812 1 0.16500 119244.000000
7077 15325 1 0.16500 119244.000000
7078 13812 1 0.16500 119244.000000
7078 15938 1 0.16500 119244.000000
7079 13813 1 0.16500 119244.000000
7079 16486 1 0.16500 119244.000000
7080 13813 1 0.16500 119244.000000
7080 15058 1 0.16500 119244.000000
7081 13813 1 0.16500 119244.000000
7081 15819 1 0.16500 119244.000000
7082 15058 1 0.16500 119244.000000
7082 16691 1 0.16500 119244.000000
7083 13814 1 0.16500 119244.000000
7083 15010 1 0.16500 119244.000000
7084 13814 1 0.16500 119244.000000
7084 13979 1 0.16500 119244.000000
7085 12693 1 0.16500 119244.000000
7085 13815 1 0.16500 119244.000000
7086 13815 1 0.16500 119244.000000
7086 15354 1 0.16500 119244.000000
7087 13816 1 0.16500 119244.000000
7087 15054 1 0.16500 119244.000000
7088 13816 1 0.16500 119244.000000
7088 14579 1 0.16500 119244.000000
7089 13816 1 0.16500 119244.000000
7089 14879 1 0.16500 119244.000000
7090 13817 1 0.16500 119244.000000
7090 16573 1 0.16500 119244.000000
7091 13940 1 0.16500 119244.000000
7091 16622 1 0.16500 119244.000000
7092 13817 1 0.16500 119244.000000
7092 16622 1 0.16500 119244.000000
7093 13817 1 0.16500 119244.000000
7093 13959 1 0.16500 119244.000000
7094 13818 1 0.16500 119244.000000
7094 17878 1 0.16500 119244.000000
7095 13819 1 0.16500 119244.000000
7095 16733 1 0.16500 119244.000000
7096 13819 1 0.16500 119244.000000
7096 16345 1 0.16500 119244.000000
7097 13819 1 0.16500 119244.000000
7097 16893 1 0.16500 119244.000000
7098 15063 1 0.16500 119244.000000
7098 17539 1 0.16500 119244.000000
7099 13820 1 0.16500 119244.000000
7099 14148 1 0.16500 119244.000000
7100 13820 1 0.16500 119244.000000
7100 15057 1 0.16500 119244.000000
7101 13821 1 0.16500 119244.000000
7101 15369 1 0.16500 119244.000000
7102 13821 1 0.16500 119244.000000
7102 15128 1 0.16500 119244.000000
7103 13822 1 0.16500 119244.000000
7103 14139 1 0.16500 119244.000000
7104 13822 1 0.16500 119244.000000
7104 14573 1 0.16500 119244.000000
7105 13823 1 0.16500 119244.000000
7105 16851 1 0.16500 119244.000000
7106 13823 1 0.16500 119244.000000
7106 14859 1 0.16500 119244.000000
7107 13823 1 0.16500 119244.000000
7107 15726 1 0.16500 119244.000000
7108 13824 1 0.16500 119244.000000
7108 16628 1 0.16500 119244.000000
7109 13824 1 0.16500 119244.000000
7109 15406 1 0.16500 119244.000000
7110 13824 1 0.16500 119244.000000
7110 15590 1 0.16500 119244.000000
7111 13824 1 0.16500 119244.000000
7111 16754 1 0.16500 119244.000000
7112 13825 1 0.16500 119244.000000
7112 17169 1 0.16500 119244.000000
7113 13825 1 0.16500 119244.000000
7113 16364 1 0.16500 119244.000000
7114 13825 1 0.16500 119244.000000
7114 15407 1 0.16500 119244.000000
7115 13826 1 0.16500 119244.000000
7115 15681 1 0.16500 119244.000000
7116 13826 1 0.16500 119244.000000
7116 16423 1 0.16500 119244.000000
7117 13826 1 0.16500 119244.000000
7117 15965 1 0.16500 119244.000000
7118 13827 1 0.16500 119244.000000
7118 15148 1 0.16500 119244.000000
7119 13827 1 0.16500 119244.000000
7119 15655 1 0.16500 119244.000000
7120 13827 1 0.16500 119244.000000
7120 15441 1 0.16500 119244.000000
7121 13828 1 0.16500 119244.000000
7121 16248 1 0.16500 119244.000000
7122 13828 1 0.16500 119244.000000
7122 14338 1 0.16500 119244.000000
7123 13828 1 0.16500 119244.000000
7123 13865 1 0.16500 119244.000000
7124 13829 1 0.16500 119244.000000
7124 15115 1 0.16500 119244.000000
7125 13829 1 0.16500 119244.000000
7125 16442 1 0.16500 119244.000000
7126 15115 1 0.16500 119244.000000
7126 17725 1 0.16500 119244.000000
7127 13830 1 0.16500 119244.000000
7127 16338 1 0.16500 119244.000000
7128 13830 1 0.16500 119244.000000
7128 14022 1 0.16500 119244.000000
7129 13830 1 0.16500 119244.000000
7129 13909 1 0.16500 119244.000000
7130 13830 1 0.16500 119244.000000
7130 16679 1 0.16500 119244.000000
7131 13831 1 0.16500 119244.000000
7131 16459 1 0.16500 119244.000000
7132 15241 1 0.16500 119244.000000
7132 16459 1 0.16500 119244.000000
7133 13832 1 0.16500 119244.000000
7133 15175 1 0.16500 119244.000000
7134 13832 1 0.16500 119244.000000
7134 17032 1 0.16500 119244.000000
7135 13833 1 0.16500 119244.000000
7135 14030 1 0.16500 119244.000000
7136 13833 1 0.16500 119244.000000
7136 14178 1 0.16500 119244.000000
7137 13833 1 0.16500 119244.000000
7137 15892 1 0.16500 119244.000000
7138 13834 1 0.16500 119244.000000
7138 15322 1 0.16500 119244.000000
7139 13834 1 0.16500 119244.000000
7139 15153 1 0.16500 119244.000000
7140 13834 1 0.16500 119244.000000
7140 16588 1 0.16500 119244.000000
7141 13835 1 0.16500 119244.000000
7141 15846 1 0.16500 119244.000000
7142 13835 1 0.16500 119244.000000
7142 17689 1 0.16500 119244.000000
7143 13836 1 0.16500 119244.000000
7143 13989 1 0.16500 119244.000000
7144 13174 1 0.16500 119244.000000
7144 14840 1 0.16500 119244.000000
7145 13836 1 0.16500 119244.000000
7145 15559 1 0.16500 119244.000000
7146 13837 1 0.16500 119244.000000
7146 15153 1 0.16500 119244.000000
7147 13837 1 0.16500 119244.000000
7147 16424 1 0.16500 119244.000000
7148 13837 1 0.16500 119244.000000
7148 16560 1 0.16500 119244.000000
7149 13838 1 0.16500 119244.000000
7149 15435 1 0.16500 119244.000000
7150 13838 1 0.16500 119244.000000
7150 17035 1 0.16500 119244.000000
7151 13838 1 0.16500 119244.000000
7151 13907 1 0.16500 119244.000000
7152 13839 1 0.16500 119244.000000
7152 15588 1 0.16500 119244.000000
7153 13840 1 0.16500 119244.000000
7153 14408 1 0.16500 119244.000000
7154 13840 1 0.16500 119244.000000
7154 16953 1 0.16500 119244.000000
7155 13841 1 0.16500 119244.000000
7155 16618 1 0.16500 119244.000000
7156 13841 1 0.16500 119244.000000
7156 15752 1 0.16500 119244.000000
7157 13841 1 0.16500 119244.000000
7157 16282 1 0.16500 119244.000000
7158 13842 1 0.16500 119244.000000
7158 14923 1 0.16500 119244.000000
7159 13842 1 0.16500 119244.000000
7159 14634 1 0.16500 119244.000000
7160 13842 1 0.16500 119244.000000
7160 16578 1 0.16500 119244.000000
7161 13842 1 0.16500 119244.000000
7161 15796 1 0.16500 119244.000000
7162 13843 1 0.16500 119244.000000
7162 14155 1 0.16500 119244.000000
7163 13843 1 0.16500 119244.000000
7163 16572 1 0.16500 119244.000000
7164 13844 1 0.16500 119244.000000
7164 16487 1 0.16500 119244.000000
7165 13844 1 0.16500 119244.000000
7165 14907 1 0.16500 119244.000000
7166 13844 1 0.16500 119244.000000
7166 14825 1 0.16500 119244.000000
7167 13845 1 0.16500 119244.000000
7167 15397 1 0.16500 119244.000000
7168 13846 1 0.16500 119244.000000
7168 15072 1 0.16500 119244.000000
7169 13846 1 0.16500 119244.000000
7169 14120 1 0.16500 119244.000000
7170 13846 1 0.16500 119244.000000
7170 15816 1 0.16500 119244.000000
7171 15991 1 0.16500 119244.000000
7171 17545 1 0.16500 119244.000000
7172 13847 1 0.16500 119244.000000
7172 15956 1 0.16500 119244.000000
7173 13847 1 0.16500 119244.000000
7173 14146 1 0.16500 119244.000000
7174 13847 1 0.16500 119244.000000
7174 16360 1 0.16500 119244.000000
7175 13848 1 0.16500 119244.000000
7175 17077 1 0.16500 119244.000000
7176 13848 1 0.16500 119244.000000
7176 15323 1 0.16500 119244.000000
7177 12128 1 0.16500 119244.000000
7177 13848 1 0.16500 119244.000000
7178 13849 1 0.16500 119244.000000
7178 14130 1 0.16500 119244.000000
7179 13849 1 0.16500 119244.000000
7179 16048 1 0.16500 119244.000000
7180 13850 1 0.16500 119244.000000
7180 17692 1 0.16500 119244.000000
7181 13851 1 0.16500 119244.000000
7181 13964 1 0.16500 119244.000000
7182 13851 1 0.16500 119244.000000
7182 14222 1 0.16500 119244.000000
7183 13852 1 0.16500 119244.000000
7183 16328 1 0.16500 119244.000000
7184 13853 1 0.16500 119244.000000
7184 15450 1 0.16500 119244.000000
7185 13853 1 0.16500 119244.000000
7185 14434 1 0.16500 119244.000000
7186 13854 1 0.16500 119244.000000
7186 14127 1 0.16500 119244.000000
7187 13854 1 0.16500 119244.000000
7187 16160 1 0.16500 119244.000000
7188 13854 1 0.16500 119244.000000
7188 14251 1 0.16500 119244.000000
7189 13854 1 0.16500 119244.000000
7189 14033 1 0.16500 119244.000000
7190 13855 1 0.16500 119244.000000
7190 16766 1 0.16500 119244.000000
7191 13855 1 0.16500 119244.000000
7191 14315 1 0.16500 119244.000000
7192 13855 1 0.16500 119244.000000
7192 16891 1 0.16500 119244.000000
7193 13855 1 0.16500 119244.000000
7193 13881 1 0.16500 119244.000000
7194 13321 1 0.16500 119244.000000
7194 13856 1 0.16500 119244.000000
7195 13856 1 0.16500 119244.000000
7195 16331 1 0.16500 119244.000000
7196 13857 1 0.16500 119244.000000
7196 15068 1 0.16500 119244.000000
7197 13857 1 0.16500 119244.000000
7197 16842 1 0.16500 119244.000000
7198 12050 1 0.16500 119244.000000
7198 17551 1 0.16500 119244.000000
7199 13858 1 0.16500 119244.000000
7199 16505 1 0.16500 119244.000000
7200 13858 1 0.16500 119244.000000
7200 15045 1 0.16500 119244.000000
7201 13859 1 0.16500 119244.000000
7201 14161 1 0.16500 119244.000000
7202 13859 1 0.16500 119244.000000
7202 14784 1 0.16500 119244.000000
7203 13860 1 0.16500 119244.000000
7203 16088 1 0.16500 119244.000000
7204 13860 1 0.16500 119244.000000
7204 15113 1 0.16500 119244.000000
7205 13861 1 0.16500 119244.000000
7205 15518 1 0.16500 119244.000000
7206 13861 1 0.16500 119244.000000
7206 14801 1 0.16500 119244.000000
7207 13862 1 0.16500 119244.000000
7207 16133 1 0.16500 119244.000000
7208 13862 1 0.16500 119244.000000
7208 14209 1 0.16500 119244.000000
7209 13863 1 0.16500 119244.000000
7209 14051 1 0.16500 119244.000000
7210 13865 1 0.16500 119244.000000
7210 16014 1 0.16500 119244.000000
7211 13865 1 0.16500 119244.000000
7211 16669 1 0.16500 119244.000000
7212 13865 1 0.16500 119244.000000
7212 14067 1 0.16500 119244.000000
7213 13866 1 0.16500 119244.000000
7213 14294 1 0.16500 119244.000000
7214 13867 1 0.16500 119244.000000
7214 14672 1 0.16500 119244.000000
7215 13867 1 0.16500 119244.000000
7215 14563 1 0.16500 119244.000000
7216 14672 1 0.16500 119244.000000
7216 16898 1 0.16500 119244.000000
7217 13868 1 0.16500 119244.000000
7217 14384 1 0.16500 119244.000000
7218 13869 1 0.16500 119244.000000
7218 14622 1 0.16500 119244.000000
7219 13869 1 0.16500 119244.000000
7219 17635 1 0.16500 119244.000000
7220 13869 1 0.16500 119244.000000
7220 16178 1 0.16500 119244.000000
7221 13869 1 0.16500 119244.000000
7221 16220 1 0.16500 119244.000000
7222 16442 1 0.16500 119244.000000
7222 17554 1 0.16500 119244.000000
7223 13897 1 0.16500 119244.000000
7223 17554 1 0.16500 119244.000000
7224 14624 1 0.16500 119244.000000
7224 14714 1 0.16500 119244.000000
7225 13870 1 0.16500 119244.000000
7225 14714 1 0.16500 119244.000000
7226 13870 1 0.16500 119244.000000
7226 16998 1 0.16500 119244.000000
7227 13871 1 0.16500 119244.000000
7227 14856 1 0.16500 119244.000000
7228 13872 1 0.16500 119244.000000
7228 16464 1 0.16500 119244.000000
7229 13872 1 0.16500 119244.000000
7229 16867 1 0.16500 119244.000000
7230 13872 1 0.16500 119244.000000
7230 15278 1 0.16500 119244.000000
7231 13872 1 0.16500 119244.000000
7231 13909 1 0.16500 119244.000000
7232 13873 1 0.16500 119244.000000
7232 15411 1 0.16500 119244.000000
7233 13547 1 0.16500 119244.000000
7233 13873 1 0.16500 119244.000000
7234 13873 1 0.16500 119244.000000
7234 15017 1 0.16500 119244.000000
7235 13874 1 0.16500 119244.000000
7235 14867 1 0.16500 119244.000000
7236 13874 1 0.16500 119244.000000
7236 15279 1 0.16500 119244.000000
7237 15432 1 0.16500 119244.000000
7237 16540 1 0.16500 119244.000000
7238 13875 1 0.16500 119244.000000
7238 15192 1 0.16500 119244.000000
7239 13875 1 0.16500 119244.000000
7239 14193 1 0.16500 119244.000000
7240 16681 1 0.16500 119244.000000
7240 17125 1 0.16500 119244.000000
7241 13876 1 0.16500 119244.000000
7241 16681 1 0.16500 119244.000000
7242 13876 1 0.16500 119244.000000
7242 17158 1 0.16500 119244.000000
7243 13877 1 0.16500 119244.000000
7243 15043 1 0.16500 119244.000000
7244 13877 1 0.16500 119244.000000
7244 16817 1 0.16500 119244.000000
7245 13878 1 0.16500 119244.000000
7245 16907 1 0.16500 119244.000000
7246 13878 1 0.16500 119244.000000
7246 14821 1 0.16500 119244.000000
7247 13879 1 0.16500 119244.000000
7247 13936 1 0.16500 119244.000000
7248 13879 1 0.16500 119244.000000
7248 15704 1 0.16500 119244.000000
7249 13879 1 0.16500 119244.000000
7249 13959 1 0.16500 119244.000000
7250 13879 1 0.16500 119244.000000
7250 15489 1 0.16500 119244.000000
7251 13880 1 0.16500 119244.000000
7251 14509 1 0.16500 119244.000000
7252 14280 1 0.16500 119244.000000
7252 14509 1 0.16500 119244.000000
7253 13881 1 0.16500 119244.000000
7253 13953 1 0.16500 119244.000000
7254 13882 1 0.16500 119244.000000
7254 14261 1 0.16500 119244.000000
7255 13883 1 0.16500 119244.000000
7255 14401 1 0.16500 119244.000000
7256 13883 1 0.16500 119244.000000
7256 14092 1 0.16500 119244.000000
7257 16539 1 0.16500 119244.000000
7257 17557 1 0.16500 119244.000000
7258 13884 1 0.16500 119244.000000
7258 17081 1 0.16500 119244.000000
7259 13884 1 0.16500 119244.000000
7259 16388 1 0.16500 119244.000000
7260 13885 1 0.16500 119244.000000
7260 15124 1 0.16500 119244.000000
7261 13885 1 0.16500 119244.000000
7261 15898 1 0.16500 119244.000000
7262 13886 1 0.16500 119244.000000
7262 15237 1 0.16500 119244.000000
7263 13886 1 0.16500 119244.000000
7263 16564 1 0.16500 119244.000000
7264 13886 1 0.16500 119244.000000
7264 16412 1 0.16500 119244.000000
7265 12304 1 0.16500 119244.000000
7265 13887 1 0.16500 119244.000000
7266 13887 1 0.16500 119244.000000
7266 14715 1 0.16500 119244.000000
7267 13888 1 0.16500 119244.000000
7267 15629 1 0.16500 119244.000000
7268 13889 1 0.16500 119244.000000
7268 13896 1 0.16500 119244.000000
7269 14774 1 0.16500 119244.000000
7269 15727 1 0.16500 119244.000000
7270 13891 1 0.16500 119244.000000
7270 15727 1 0.16500 119244.000000
7271 13892 1 0.16500 119244.000000
7271 13979 1 0.16500 119244.000000
7272 13892 1 0.16500 119244.000000
7272 15868 1 0.16500 119244.000000
7273 13892 1 0.16500 119244.000000
7273 15027 1 0.16500 119244.000000
7274 13892 1 0.16500 119244.000000
7274 15949 1 0.16500 119244.000000
7275 13893 1 0.16500 119244.000000
7275 14797 1 0.16500 119244.000000
7276 13893 1 0.16500 119244.000000
7276 16299 1 0.16500 119244.000000
7277 14942 1 0.16500 119244.000000
7277 16630 1 0.16500 119244.000000
7278 13894 1 0.16500 119244.000000
7278 15129 1 0.16500 119244.000000
7279 13894 1 0.16500 119244.000000
7279 16630 1 0.16500 119244.000000
7280 13894 1 0.16500 119244.000000
7280 16901 1 0.16500 119244.000000
7281 13895 1 0.16500 119244.000000
7281 15944 1 0.16500 119244.000000
7282 15555 1 0.16500 119244.000000
7282 15944 1 0.16500 119244.000000
7283 13442 1 0.16500 119244.000000
7283 13916 1 0.16500 119244.000000
7284 13896 1 0.16500 119244.000000
7284 13923 1 0.16500 119244.000000
7285 13896 1 0.16500 119244.000000
7285 17839 1 0.16500 119244.000000
7286 13896 1 0.16500 119244.000000
7286 18094 1 0.16500 119244.000000
7287 13897 1 0.16500 119244.000000
7287 17887 1 0.16500 119244.000000
7288 14709 1 0.16500 119244.000000
7288 17887 1 0.16500 119244.000000
7289 13898 1 0.16500 119244.000000
7289 16263 1 0.16500 119244.000000
7290 13898 1 0.16500 119244.000000
7290 15632 1 0.16500 119244.000000
7291 16263 1 0.16500 119244.000000
7291 16535 1 0.16500 119244.000000
7292 13899 1 0.16500 119244.000000
7292 14875 1 0.16500 119244.000000
7293 13899 1 0.16500 119244.000000
7293 16070 1 0.16500 119244.000000
7294 13899 1 0.16500 119244.000000
7294 16655 1 0.16500 119244.000000
7295 13900 1 0.16500 119244.000000
7295 14972 1 0.16500 119244.000000
7296 13900 1 0.16500 119244.000000
7296 15198 1 0.16500 119244.000000
7297 13900 1 0.16500 119244.000000
7297 14552 1 0.16500 119244.000000
7298 13902 1 0.16500 119244.000000
7298 14454 1 0.16500 119244.000000
7299 13902 1 0.16500 119244.000000
7299 15294 1 0.16500 119244.000000
7300 13902 1 0.16500 119244.000000
7300 16741 1 0.16500 119244.000000
7301 13903 1 0.16500 119244.000000
7301 15045 1 0.16500 119244.000000
7302 13903 1 0.16500 119244.000000
7302 18089 1 0.16500 119244.000000
7303 13904 1 0.16500 119244.000000
7303 15728 1 0.16500 119244.000000
7304 13904 1 0.16500 119244.000000
7304 17125 1 0.16500 119244.000000
7305 13904 1 0.16500 119244.000000
7305 15528 1 0.16500 119244.000000
7306 13905 1 0.16500 119244.000000
7306 15819 1 0.16500 119244.000000
7307 13905 1 0.16500 119244.000000
7307 14301 1 0.16500 119244.000000
7308 13528 1 0.16500 119244.000000
7308 13905 1 0.16500 119244.000000
7309 13906 1 0.16500 119244.000000
7309 16288 1 0.16500 119244.000000
7310 13906 1 0.16500 119244.000000
7310 13963 1 0.16500 119244.000000
7311 13906 1 0.16500 119244.000000
7311 16712 1 0.16500 119244.000000
7312 13906 1 0.16500 119244.000000
7312 15942 1 0.16500 119244.000000
7313 13907 1 0.16500 119244.000000
7313 15687 1 0.16500 119244.000000
7314 13907 1 0.16500 119244.000000
7314 15699 1 0.16500 119244.000000
7315 13908 1 0.16500 119244.000000
7315 15343 1 0.16500 119244.000000
7316 13908 1 0.16500 119244.000000
7316 15850 1 0.16500 119244.000000
7317 13910 1 0.16500 119244.000000
7317 14329 1 0.16500 119244.000000
7318 13910 1 0.16500 119244.000000
7318 16604 1 0.16500 119244.000000
7319 11958 1 0.16500 119244.000000
7319 16650 1 0.16500 119244.000000
7320 11958 1 0.16500 119244.000000
7320 14918 1 0.16500 119244.000000
7321 13912 1 0.16500 119244.000000
7321 14298 1 0.16500 119244.000000
7322 13912 1 0.16500 119244.000000
7322 17006 1 0.16500 119244.000000
7323 13913 1 0.16500 119244.000000
7323 16062 1 0.16500 119244.000000
7324 13913 1 0.16500 119244.000000
7324 16051 1 0.16500 119244.000000
7325 14657 1 0.16500 119244.000000
7325 16062 1 0.16500 119244.000000
7326 14118 1 0.16500 119244.000000
7326 15883 1 0.16500 119244.000000
7327 13915 1 0.16500 119244.000000
7327 14934 1 0.16500 119244.000000
7328 13915 1 0.16500 119244.000000
7328 14118 1 0.16500 119244.000000
7329 13916 1 0.16500 119244.000000
7329 16159 1 0.16500 119244.000000
7330 13917 1 0.16500 119244.000000
7330 15485 1 0.16500 119244.000000
7331 13918 1 0.16500 119244.000000
7331 17192 1 0.16500 119244.000000
7332 13918 1 0.16500 119244.000000
7332 15000 1 0.16500 119244.000000
7333 13918 1 0.16500 119244.000000
7333 14896 1 0.16500 119244.000000
7334 13919 1 0.16500 119244.000000
7334 14809 1 0.16500 119244.000000
7335 13919 1 0.16500 119244.000000
7335 16590 1 0.16500 119244.000000
7336 13919 1 0.16500 119244.000000
7336 17026 1 0.16500 119244.000000
7337 13919 1 0.16500 119244.000000
7337 15938 1 0.16500 119244.000000
7338 13920 1 0.16500 119244.000000
7338 16888 1 0.16500 119244.000000
7339 13920 1 0.16500 119244.000000
7339 14921 1 0.16500 119244.000000
7340 13920 1 0.16500 119244.000000
7340 15548 1 0.16500 119244.000000
7341 17128 1 0.16500 119244.000000
7341 17572 1 0.16500 119244.000000
7342 13921 1 0.16500 119244.000000
7342 17572 1 0.16500 119244.000000
7343 13921 1 0.16500 119244.000000
7343 16240 1 0.16500 119244.000000
7344 13921 1 0.16500 119244.000000
7344 15994 1 0.16500 119244.000000
7345 13922 1 0.16500 119244.000000
7345 16516 1 0.16500 119244.000000
7346 13922 1 0.16500 119244.000000
7346 15180 1 0.16500 119244.000000
7347 13922 1 0.16500 119244.000000
7347 17086 1 0.16500 119244.000000
7348 13923 1 0.16500 119244.000000
7348 17154 1 0.16500 119244.000000
7349 13923 1 0.16500 119244.000000
7349 17100 1 0.16500 119244.000000
7350 13923 1 0.16500 119244.000000
7350 16619 1 0.16500 119244.000000
7351 13924 1 0.16500 119244.000000
7351 14034 1 0.16500 119244.000000
7352 13924 1 0.16500 119244.000000
7352 14873 1 0.16500 119244.000000
7353 13924 1 0.16500 119244.000000
7353 17131 1 0.16500 119244.000000
7354 13926 1 0.16500 119244.000000
7354 15661 1 0.16500 119244.000000
7355 13926 1 0.16500 119244.000000
7355 16230 1 0.16500 119244.000000
7356 13926 1 0.16500 119244.000000
7356 14729 1 0.16500 119244.000000
7357 13927 1 0.16500 119244.000000
7357 16743 1 0.16500 119244.000000
7358 13681 1 0.16500 119244.000000
7358 15275 1 0.16500 119244.000000
7359 13681 1 0.16500 119244.000000
7359 13927 1 0.16500 119244.000000
7360 13928 1 0.16500 119244.000000
7360 16940 1 0.16500 119244.000000
7361 13928 1 0.16500 119244.000000
7361 15288 1 0.16500 119244.000000
7362 13928 1 0.16500 119244.000000
7362 16615 1 0.16500 119244.000000
7363 13929 1 0.16500 119244.000000
7363 14045 1 0.16500 119244.000000
7364 13929 1 0.16500 119244.000000
7364 14293 1 0.16500 119244.000000
7365 13929 1 0.16500 119244.000000
7365 17788 1 0.16500 119244.000000
7366 13930 1 0.16500 119244.000000
7366 16115 1 0.16500 119244.000000
7367 13931 1 0.16500 119244.000000
7367 14112 1 0.16500 119244.000000
7368 11650 1 0.16500 119244.000000
7368 16930 1 0.16500 119244.000000
7369 13932 1 0.16500 119244.000000
7369 14679 1 0.16500 119244.000000
7370 13933 1 0.16500 119244.000000
7370 14351 1 0.16500 119244.000000
7371 11902 1 0.16500 119244.000000
7371 14988 1 0.16500 119244.000000
7372 13933 1 0.16500 119244.000000
7372 16485 1 0.16500 119244.000000
7373 11916 1 0.16500 119244.000000
7373 13689 1 0.16500 119244.000000
7374 13934 1 0.16500 119244.000000
7374 15115 1 0.16500 119244.000000
7375 14761 1 0.16500 119244.000000
7375 17560 1 0.16500 119244.000000
7376 17560 1 0.16500 119244.000000
7376 17845 1 0.16500 119244.000000
7377 13937 1 0.16500 119244.000000
7377 16012 1 0.16500 119244.000000
7378 13937 1 0.16500 119244.000000
7378 17057 1 0.16500 119244.000000
7379 13937 1 0.16500 119244.000000
7379 14311 1 0.16500 119244.000000
7380 13937 1 0.16500 119244.000000
7380 15782 1 0.16500 119244.000000
7381 13938 1 0.16500 119244.000000
7381 14777 1 0.16500 119244.000000
7382 13938 1 0.16500 119244.000000
7382 17027 1 0.16500 119244.000000
7383 13939 1 0.16500 119244.000000
7383 16143 1 0.16500 119244.000000
7384 13941 1 0.16500 119244.000000
7384 14988 1 0.16500 119244.000000
7385 13941 1 0.16500 119244.000000
7385 15773 1 0.16500 119244.000000
7386 13941 1 0.16500 119244.000000
7386 14142 1 0.16500 119244.000000
7387 13941 1 0.16500 119244.000000
7387 16219 1 0.16500 119244.000000
7388 13942 1 0.16500 119244.000000
7388 16699 1 0.16500 119244.000000
7389 13942 1 0.16500 119244.000000
7389 14282 1 0.16500 119244.000000
7390 13943 1 0.16500 119244.000000
7390 16522 1 0.16500 119244.000000
7391 13943 1 0.16500 119244.000000
7391 15506 1 0.16500 119244.000000
7392 13944 1 0.16500 119244.000000
7392 14897 1 0.16500 119244.000000
7393 13944 1 0.16500 119244.000000
7393 14970 1 0.16500 119244.000000
7394 13945 1 0.16500 119244.000000
7394 14554 1 0.16500 119244.000000
7395 13945 1 0.16500 119244.000000
7395 15370 1 0.16500 119244.000000
7396 13945 1 0.16500 119244.000000
7396 16216 1 0.16500 119244.000000
7397 13946 1 0.16500 119244.000000
7397 14440 1 0.16500 119244.000000
7398 13946 1 0.16500 119244.000000
7398 14056 1 0.16500 119244.000000
7399 15102 1 0.16500 119244.000000
7399 17563 1 0.16500 119244.000000
7400 17157 1 0.16500 119244.000000
7400 17563 1 0.16500 119244.000000
7401 13947 1 0.16500 119244.000000
7401 15268 1 0.16500 119244.000000
7402 13947 1 0.16500 119244.000000
7402 14658 1 0.16500 119244.000000
7403 13947 1 0.16500 119244.000000
7403 14021 1 0.16500 119244.000000
7404 13947 1 0.16500 119244.000000
7404 16069 1 0.16500 119244.000000
7405 13948 1 0.16500 119244.000000
7405 16723 1 0.16500 119244.000000
7406 13948 1 0.16500 119244.000000
7406 14550 1 0.16500 119244.000000
7407 13948 1 0.16500 119244.000000
7407 16396 1 0.16500 119244.000000
7408 13949 1 0.16500 119244.000000
7408 16305 1 0.16500 119244.000000
7409 12706 1 0.16500 119244.000000
7409 13957 1 0.16500 119244.000000
7410 14948 1 0.16500 119244.000000
7410 16305 1 0.16500 119244.000000
7411 13950 1 0.16500 119244.000000
7411 16639 1 0.16500 119244.000000
7412 13950 1 0.16500 119244.000000
7412 14627 1 0.16500 119244.000000
7413 13950 1 0.16500 119244.000000
7413 15341 1 0.16500 119244.000000
7414 13951 1 0.16500 119244.000000
7414 14605 1 0.16500 119244.000000
7415 13952 1 0.16500 119244.000000
7415 14912 1 0.16500 119244.000000
7416 13952 1 0.16500 119244.000000
7416 15201 1 0.16500 119244.000000
7417 13953 1 0.16500 119244.000000
7417 16631 1 0.16500 119244.000000
7418 13193 1 0.16500 119244.000000
7418 13954 1 0.16500 119244.000000
7419 13954 1 0.16500 119244.000000
7419 14269 1 0.16500 119244.000000
7420 13954 1 0.16500 119244.000000
7420 14808 1 0.16500 119244.000000
7421 13955 1 0.16500 119244.000000
7421 16145 1 0.16500 119244.000000
7422 13955 1 0.16500 119244.000000
7422 14239 1 0.16500 119244.000000
7423 13956 1 0.16500 119244.000000
7423 16458 1 0.16500 119244.000000
7424 13957 1 0.16500 119244.000000
7424 15531 1 0.16500 119244.000000
7425 13957 1 0.16500 119244.000000
7425 17146 1 0.16500 119244.000000
7426 13957 1 0.16500 119244.000000
7426 14182 1 0.16500 119244.000000
7427 13958 1 0.16500 119244.000000
7427 16245 1 0.16500 119244.000000
7428 13958 1 0.16500 119244.000000
7428 14416 1 0.16500 119244.000000
7429 13958 1 0.16500 119244.000000
7429 16018 1 0.16500 119244.000000
7430 13959 1 0.16500 119244.000000
7430 15928 1 0.16500 119244.000000
7431 12406 1 0.16500 119244.000000
7431 15864 1 0.16500 119244.000000
7432 13959 1 0.16500 119244.000000
7432 15864 1 0.16500 119244.000000
7433 13960 1 0.16500 119244.000000
7433 14883 1 0.16500 119244.000000
7434 13961 1 0.16500 119244.000000
7434 16011 1 0.16500 119244.000000
7435 13961 1 0.16500 119244.000000
7435 16421 1 0.16500 119244.000000
7436 13961 1 0.16500 119244.000000
7436 13998 1 0.16500 119244.000000
7437 13962 1 0.16500 119244.000000
7437 16111 1 0.16500 119244.000000
7438 13962 1 0.16500 119244.000000
7438 15697 1 0.16500 119244.000000
7439 13962 1 0.16500 119244.000000
7439 17082 1 0.16500 119244.000000
7440 13963 1 0.16500 119244.000000
7440 14540 1 0.16500 119244.000000
7441 13963 1 0.16500 119244.000000
7441 14650 1 0.16500 119244.000000
7442 13964 1 0.16500 119244.000000
7442 16861 1 0.16500 119244.000000
7443 13965 1 0.16500 119244.000000
7443 15616 1 0.16500 119244.000000
7444 13965 1 0.16500 119244.000000
7444 15028 1 0.16500 119244.000000
7445 13965 1 0.16500 119244.000000
7445 14993 1 0.16500 119244.000000
7446 13682 1 0.16500 119244.000000
7446 15436 1 0.16500 119244.000000
7447 13967 1 0.16500 119244.000000
7447 17092 1 0.16500 119244.000000
7448 13967 1 0.16500 119244.000000
7448 14921 1 0.16500 119244.000000
7449 13968 1 0.16500 119244.000000
7449 14690 1 0.16500 119244.000000
7450 13968 1 0.16500 119244.000000
7450 14629 1 0.16500 119244.000000
7451 12979 1 0.16500 119244.000000
7451 14378 1 0.16500 119244.000000
7452 13969 1 0.16500 119244.000000
7452 14263 1 0.16500 119244.000000
7453 13969 1 0.16500 119244.000000
7453 14123 1 0.16500 119244.000000
7454 13970 1 0.16500 119244.000000
7454 17187 1 0.16500 119244.000000
7455 13970 1 0.16500 119244.000000
7455 15787 1 0.16500 119244.000000
7456 13970 1 0.16500 119244.000000
7456 15014 1 0.16500 119244.000000
7457 13971 1 0.16500 119244.000000
7457 16128 1 0.16500 119244.000000
7458 13971 1 0.16500 119244.000000
7458 16324 1 0.16500 119244.000000
7459 13972 1 0.16500 119244.000000
7459 16192 1 0.16500 119244.000000
7460 13972 1 0.16500 119244.000000
7460 15100 1 0.16500 119244.000000
7461 13972 1 0.16500 119244.000000
7461 16315 1 0.16500 119244.000000
7462 13973 1 0.16500 119244.000000
7462 15198 1 0.16500 119244.000000
7463 13973 1 0.16500 119244.000000
7463 16909 1 0.16500 119244.000000
7464 13974 1 0.16500 119244.000000
7464 16817 1 0.16500 119244.000000
7465 13974 1 0.16500 119244.000000
7465 14388 1 0.16500 119244.000000
7466 13974 1 0.16500 119244.000000
7466 15678 1 0.16500 119244.000000
7467 13975 1 0.16500 119244.000000
7467 14492 1 0.16500 119244.000000
7468 13975 1 0.16500 119244.000000
7468 15026 1 0.16500 119244.000000
7469 13860 1 0.16500 119244.000000
7469 13976 1 0.16500 119244.000000
7470 14634 1 0.16500 119244.000000
7470 17569 1 0.16500 119244.000000
7471 13977 1 0.16500 119244.000000
7471 16790 1 0.16500 119244.000000
7472 13978 1 0.16500 119244.000000
7472 16641 1 0.16500 119244.000000
7473 13979 1 0.16500 119244.000000
7473 16635 1 0.16500 119244.000000
7474 13980 1 0.16500 119244.000000
7474 15259 1 0.16500 119244.000000
7475 13980 1 0.16500 119244.000000
7475 15667 1 0.16500 119244.000000
7476 13980 1 0.16500 119244.000000
7476 15520 1 0.16500 119244.000000
7477 13627 1 0.16500 119244.000000
7477 13980 1 0.16500 119244.000000
7478 13981 1 0.16500 119244.000000
7478 15713 1 0.16500 119244.000000
7479 13982 1 0.16500 119244.000000
7479 14084 1 0.16500 119244.000000
7480 13982 1 0.16500 119244.000000
7480 14451 1 0.16500 119244.000000
7481 13983 1 0.16500 119244.000000
7481 14831 1 0.16500 119244.000000
7482 13983 1 0.16500 119244.000000
7482 16094 1 0.16500 119244.000000
7483 13983 1 0.16500 119244.000000
7483 14018 1 0.16500 119244.000000
7484 13984 1 0.16500 119244.000000
7484 15709 1 0.16500 119244.000000
7485 13985 1 0.16500 119244.000000
7485 15142 1 0.16500 119244.000000
7486 13985 1 0.16500 119244.000000
7486 16524 1 0.16500 119244.000000
7487 13986 1 0.16500 119244.000000
7487 14671 1 0.16500 119244.000000
7488 13986 1 0.16500 119244.000000
7488 15783 1 0.16500 119244.000000
7489 13986 1 0.16500 119244.000000
7489 15291 1 0.16500 119244.000000
7490 13987 1 0.16500 119244.000000
7490 15102 1 0.16500 119244.000000
7491 13987 1 0.16500 119244.000000
7491 14086 1 0.16500 119244.000000
7492 13987 1 0.16500 119244.000000
7492 14121 1 0.16500 119244.000000
7493 13988 1 0.16500 119244.000000
7493 15918 1 0.16500 119244.000000
7494 13988 1 0.16500 119244.000000
7494 15875 1 0.16500 119244.000000
7495 13989 1 0.16500 119244.000000
7495 14822 1 0.16500 119244.000000
7496 13989 1 0.16500 119244.000000
7496 14595 1 0.16500 119244.000000
7497 13990 1 0.16500 119244.000000
7497 14008 1 0.16500 119244.000000
7498 13991 1 0.16500 119244.000000
7498 14785 1 0.16500 119244.000000
7499 13991 1 0.16500 119244.000000
7499 16142 1 0.16500 119244.000000
7500 13991 1 0.16500 119244.000000
7500 14314 1 0.16500 119244.000000
7501 13991 1 0.16500 119244.000000
7501 14537 1 0.16500 119244.000000
7502 13992 1 0.16500 119244.000000
7502 15832 1 0.16500 119244.000000
7503 13992 1 0.16500 119244.000000
7503 14730 1 0.16500 119244.000000
7504 13992 1 0.16500 119244.000000
7504 14724 1 0.16500 119244.000000
7505 13993 1 0.16500 119244.000000
7505 16394 1 0.16500 119244.000000
7506 13746 1 0.16500 119244.000000
7506 13993 1 0.16500 119244.000000
7507 14986 1 0.16500 119244.000000
7507 15615 1 0.16500 119244.000000
7508 13995 1 0.16500 119244.000000
7508 14986 1 0.16500 119244.000000
7509 13995 1 0.16500 119244.000000
7509 15471 1 0.16500 119244.000000
7510 14692 1 0.16500 119244.000000
7510 17575 1 0.16500 119244.000000
7511 13996 1 0.16500 119244.000000
7511 14577 1 0.16500 119244.000000
7512 12376 1 0.16500 119244.000000
7512 13996 1 0.16500 119244.000000
7513 14578 1 0.16500 119244.000000
7513 16533 1 0.16500 119244.000000
7514 14228 1 0.16500 119244.000000
7514 14578 1 0.16500 119244.000000
7515 13997 1 0.16500 119244.000000
7515 15454 1 0.16500 119244.000000
7516 13998 1 0.16500 119244.000000
7516 14192 1 0.16500 119244.000000
7517 13998 1 0.16500 119244.000000
7517 16526 1 0.16500 119244.000000
7518 13999 1 0.16500 119244.000000
7518 14785 1 0.16500 119244.000000
7519 13999 1 0.16500 119244.000000
7519 15910 1 0.16500 119244.000000
7520 14000 1 0.16500 119244.000000
7520 16000 1 0.16500 119244.000000
7521 14000 1 0.16500 119244.000000
7521 15956 1 0.16500 119244.000000
7522 15956 1 0.16500 119244.000000
7522 16863 1 0.16500 119244.000000
7523 14001 1 0.16500 119244.000000
7523 17022 1 0.16500 119244.000000
7524 14001 1 0.16500 119244.000000
7524 15311 1 0.16500 119244.000000
7525 14001 1 0.16500 119244.000000
7525 14450 1 0.16500 119244.000000
7526 14002 1 0.16500 119244.000000
7526 16738 1 0.16500 119244.000000
7527 14002 1 0.16500 119244.000000
7527 15550 1 0.16500 119244.000000
7528 13309 1 0.16500 119244.000000
7528 17578 1 0.16500 119244.000000
7529 14288 1 0.16500 119244.000000
7529 17578 1 0.16500 119244.000000
7530 14003 1 0.16500 119244.000000
7530 15333 1 0.16500 119244.000000
7531 14003 1 0.16500 119244.000000
7531 16881 1 0.16500 119244.000000
7532 14003 1 0.16500 119244.000000
7532 15927 1 0.16500 119244.000000
7533 14004 1 0.16500 119244.000000
7533 14271 1 0.16500 119244.000000
7534 14004 1 0.16500 119244.000000
7534 15113 1 0.16500 119244.000000
7535 14005 1 0.16500 119244.000000
7535 17105 1 0.16500 119244.000000
7536 14006 1 0.16500 119244.000000
7536 16777 1 0.16500 119244.000000
7537 14006 1 0.16500 119244.000000
7537 17034 1 0.16500 119244.000000
7538 14007 1 0.16500 119244.000000
7538 16046 1 0.16500 119244.000000
7539 14008 1 0.16500 119244.000000
7539 16991 1 0.16500 119244.000000
7540 14008 1 0.16500 119244.000000
7540 15778 1 0.16500 119244.000000
7541 14009 1 0.16500 119244.000000
7541 16577 1 0.16500 119244.000000
7542 14009 1 0.16500 119244.000000
7542 16110 1 0.16500 119244.000000
7543 14009 1 0.16500 119244.000000
7543 14631 1 0.16500 119244.000000
7544 14010 1 0.16500 119244.000000
7544 16362 1 0.16500 119244.000000
7545 14011 1 0.16500 119244.000000
7545 16544 1 0.16500 119244.000000
7546 14011 1 0.16500 119244.000000
7546 17764 1 0.16500 119244.000000
7547 14013 1 0.16500 119244.000000
7547 14183 1 0.16500 119244.000000
7548 14014 1 0.16500 119244.000000
7548 14626 1 0.16500 119244.000000
7549 14014 1 0.16500 119244.000000
7549 14269 1 0.16500 119244.000000
7550 14014 1 0.16500 119244.000000
7550 15772 1 0.16500 119244.000000
7551 14015 1 0.16500 119244.000000
7551 16886 1 0.16500 119244.000000
7552 14015 1 0.16500 119244.000000
7552 17176 1 0.16500 119244.000000
7553 14016 1 0.16500 119244.000000
7553 15359 1 0.16500 119244.000000
7554 14016 1 0.16500 119244.000000
7554 17142 1 0.16500 119244.000000
7555 14017 1 0.16500 119244.000000
7555 14616 1 0.16500 119244.000000
7556 14018 1 0.16500 119244.000000
7556 15464 1 0.16500 119244.000000
7557 14018 1 0.16500 119244.000000
7557 15269 1 0.16500 119244.000000
7558 14018 1 0.16500 119244.000000
7558 14699 1 0.16500 119244.000000
7559 14296 1 0.16500 119244.000000
7559 18069 1 0.16500 119244.000000
7560 14019 1 0.16500 119244.000000
7560 16078 1 0.16500 119244.000000
7561 14019 1 0.16500 119244.000000
7561 17065 1 0.16500 119244.000000
7562 14019 1 0.16500 119244.000000
7562 15197 1 0.16500 119244.000000
7563 14019 1 0.16500 119244.000000
7563 14238 1 0.16500 119244.000000
7564 14020 1 0.16500 119244.000000
7564 15653 1 0.16500 119244.000000
7565 14020 1 0.16500 119244.000000
7565 14138 1 0.16500 119244.000000
7566 14021 1 0.16500 119244.000000
7566 16480 1 0.16500 119244.000000
7567 14022 1 0.16500 119244.000000
7567 15031 1 0.16500 119244.000000
7568 15031 1 0.16500 119244.000000
7568 16852 1 0.16500 119244.000000
7569 14022 1 0.16500 119244.000000
7569 14421 1 0.16500 119244.000000
7570 14576 1 0.16500 119244.000000
7570 15101 1 0.16500 119244.000000
7571 14023 1 0.16500 119244.000000
7571 14576 1 0.16500 119244.000000
7572 14023 1 0.16500 119244.000000
7572 14889 1 0.16500 119244.000000
7573 14024 1 0.16500 119244.000000
7573 15038 1 0.16500 119244.000000
7574 14024 1 0.16500 119244.000000
7574 15812 1 0.16500 119244.000000
7575 14024 1 0.16500 119244.000000
7575 16566 1 0.16500 119244.000000
7576 14027 1 0.16500 119244.000000
7576 14683 1 0.16500 119244.000000
7577 14027 1 0.16500 119244.000000
7577 16023 1 0.16500 119244.000000
7578 14028 1 0.16500 119244.000000
7578 15403 1 0.16500 119244.000000
7579 14029 1 0.16500 119244.000000
7579 15174 1 0.16500 119244.000000
7580 14029 1 0.16500 119244.000000
7580 14216 1 0.16500 119244.000000
7581 14029 1 0.16500 119244.000000
7581 15750 1 0.16500 119244.000000
7582 14030 1 0.16500 119244.000000
7582 15683 1 0.16500 119244.000000
7583 14031 1 0.16500 119244.000000
7583 16944 1 0.16500 119244.000000
7584 14032 1 0.16500 119244.000000
7584 14699 1 0.16500 119244.000000
7585 14032 1 0.16500 119244.000000
7585 15623 1 0.16500 119244.000000
7586 14033 1 0.16500 119244.000000
7586 16637 1 0.16500 119244.000000
7587 14033 1 0.16500 119244.000000
7587 17033 1 0.16500 119244.000000
7588 14034 1 0.16500 119244.000000
7588 16310 1 0.16500 119244.000000
7589 14034 1 0.16500 119244.000000
7589 14524 1 0.16500 119244.000000
7590 14034 1 0.16500 119244.000000
7590 14139 1 0.16500 119244.000000
7591 14035 1 0.16500 119244.000000
7591 15027 1 0.16500 119244.000000
7592 14035 1 0.16500 119244.000000
7592 16881 1 0.16500 119244.000000
7593 14035 1 0.16500 119244.000000
7593 16046 1 0.16500 119244.000000
7594 14036 1 0.16500 119244.000000
7594 15586 1 0.16500 119244.000000
7595 14036 1 0.16500 119244.000000
7595 15034 1 0.16500 119244.000000
7596 14036 1 0.16500 119244.000000
7596 15189 1 0.16500 119244.000000
7597 14037 1 0.16500 119244.000000
7597 14265 1 0.16500 119244.000000
7598 14037 1 0.16500 119244.000000
7598 17004 1 0.16500 119244.000000
7599 14038 1 0.16500 119244.000000
7599 16544 1 0.16500 119244.000000
7600 14038 1 0.16500 119244.000000
7600 14422 1 0.16500 119244.000000
7601 14039 1 0.16500 119244.000000
7601 14043 1 0.16500 119244.000000
7602 14039 1 0.16500 119244.000000
7602 16076 1 0.16500 119244.000000
7603 14560 1 0.16500 119244.000000
7603 15693 1 0.16500 119244.000000
7604 14040 1 0.16500 119244.000000
7604 15617 1 0.16500 119244.000000
7605 14040 1 0.16500 119244.000000
7605 15693 1 0.16500 119244.000000
7606 14040 1 0.16500 119244.000000
7606 15500 1 0.16500 119244.000000
7607 14041 1 0.16500 119244.000000
7607 16342 1 0.16500 119244.000000
7608 14042 1 0.16500 119244.000000
7608 14899 1 0.16500 119244.000000
7609 14042 1 0.16500 119244.000000
7609 15688 1 0.16500 119244.000000
7610 14043 1 0.16500 119244.000000
7610 15973 1 0.16500 119244.000000
7611 14044 1 0.16500 119244.000000
7611 14419 1 0.16500 119244.000000
7612 14543 1 0.16500 119244.000000
7612 17896 1 0.16500 119244.000000
7613 14046 1 0.16500 119244.000000
7613 17896 1 0.16500 119244.000000
7614 13265 1 0.16500 119244.000000
7614 14046 1 0.16500 119244.000000
7615 14047 1 0.16500 119244.000000
7615 16413 1 0.16500 119244.000000
7616 14047 1 0.16500 119244.000000
7616 17170 1 0.16500 119244.000000
7617 14047 1 0.16500 119244.000000
7617 15493 1 0.16500 119244.000000
7618 14049 1 0.16500 119244.000000
7618 14442 1 0.16500 119244.000000
7619 14049 1 0.16500 119244.000000
7619 14321 1 0.16500 119244.000000
7620 14049 1 0.16500 119244.000000
7620 15018 1 0.16500 119244.000000
7621 14050 1 0.16500 119244.000000
7621 16890 1 0.16500 119244.000000
7622 14050 1 0.16500 119244.000000
7622 14969 1 0.16500 119244.000000
7623 14050 1 0.16500 119244.000000
7623 15673 1 0.16500 119244.000000
7624 15332 1 0.16500 119244.000000
7624 17581 1 0.16500 119244.000000
7625 14880 1 0.16500 119244.000000
7625 17581 1 0.16500 119244.000000
7626 15318 1 0.16500 119244.000000
7626 17581 1 0.16500 119244.000000
7627 14051 1 0.16500 119244.000000
7627 17998 1 0.16500 119244.000000
7628 14051 1 0.16500 119244.000000
7628 15165 1 0.16500 119244.000000
7629 14052 1 0.16500 119244.000000
7629 15522 1 0.16500 119244.000000
7630 14052 1 0.16500 119244.000000
7630 15998 1 0.16500 119244.000000
7631 14052 1 0.16500 119244.000000
7631 16871 1 0.16500 119244.000000
7632 14053 1 0.16500 119244.000000
7632 15152 1 0.16500 119244.000000
7633 14053 1 0.16500 119244.000000
7633 15629 1 0.16500 119244.000000
7634 14053 1 0.16500 119244.000000
7634 16573 1 0.16500 119244.000000
7635 14053 1 0.16500 119244.000000
7635 15704 1 0.16500 119244.000000
7636 14054 1 0.16500 119244.000000
7636 15996 1 0.16500 119244.000000
7637 14055 1 0.16500 119244.000000
7637 14452 1 0.16500 119244.000000
7638 14055 1 0.16500 119244.000000
7638 17959 1 0.16500 119244.000000
7639 14055 1 0.16500 119244.000000
7639 16666 1 0.16500 119244.000000
7640 14056 1 0.16500 119244.000000
7640 14973 1 0.16500 119244.000000
7641 14056 1 0.16500 119244.000000
7641 14915 1 0.16500 119244.000000
7642 14057 1 0.16500 119244.000000
7642 16609 1 0.16500 119244.000000
7643 14057 1 0.16500 119244.000000
7643 16761 1 0.16500 119244.000000
7644 14830 1 0.16500 119244.000000
7644 16319 1 0.16500 119244.000000
7645 14058 1 0.16500 119244.000000
7645 16319 1 0.16500 119244.000000
7646 12160 1 0.16500 119244.000000
7646 14058 1 0.16500 119244.000000
7647 14059 1 0.16500 119244.000000
7647 15985 1 0.16500 119244.000000
7648 14059 1 0.16500 119244.000000
7648 14308 1 0.16500 119244.000000
7649 14060 1 0.16500 119244.000000
7649 16636 1 0.16500 119244.000000
7650 14060 1 0.16500 119244.000000
7650 14143 1 0.16500 119244.000000
7651 14061 1 0.16500 119244.000000
7651 14967 1 0.16500 119244.000000
7652 14061 1 0.16500 119244.000000
7652 15822 1 0.16500 119244.000000
7653 14061 1 0.16500 119244.000000
7653 14678 1 0.16500 119244.000000
7654 14062 1 0.16500 119244.000000
7654 17059 1 0.16500 119244.000000
7655 13254 1 0.16500 119244.000000
7655 16435 1 0.16500 119244.000000
7656 14063 1 0.16500 119244.000000
7656 15720 1 0.16500 119244.000000
7657 14064 1 0.16500 119244.000000
7657 14893 1 0.16500 119244.000000
7658 12796 1 0.16500 119244.000000
7658 15520 1 0.16500 119244.000000
7659 14065 1 0.16500 119244.000000
7659 15168 1 0.16500 119244.000000
7660 14065 1 0.16500 119244.000000
7660 16170 1 0.16500 119244.000000
7661 15557 1 0.16500 119244.000000
7661 17587 1 0.16500 119244.000000
7662 14176 1 0.16500 119244.000000
7662 17587 1 0.16500 119244.000000
7663 12114 1 0.16500 119244.000000
7663 15557 1 0.16500 119244.000000
7664 14066 1 0.16500 119244.000000
7664 14996 1 0.16500 119244.000000
7665 14957 1 0.16500 119244.000000
7665 17590 1 0.16500 119244.000000
7666 14347 1 0.16500 119244.000000
7666 17590 1 0.16500 119244.000000
7667 14068 1 0.16500 119244.000000
7667 15746 1 0.16500 119244.000000
7668 14069 1 0.16500 119244.000000
7668 16192 1 0.16500 119244.000000
7669 11731 1 0.16500 119244.000000
7669 14582 1 0.16500 119244.000000
7670 13387 1 0.16500 119244.000000
7670 16733 1 0.16500 119244.000000
7671 14070 1 0.16500 119244.000000
7671 16844 1 0.16500 119244.000000
7672 15456 1 0.16500 119244.000000
7672 16844 1 0.16500 119244.000000
7673 14071 1 0.16500 119244.000000
7673 15500 1 0.16500 119244.000000
7674 13266 1 0.16500 119244.000000
7674 14072 1 0.16500 119244.000000
7675 14073 1 0.16500 119244.000000
7675 15786 1 0.16500 119244.000000
7676 14073 1 0.16500 119244.000000
7676 16201 1 0.16500 119244.000000
7677 14073 1 0.16500 119244.000000
7677 15657 1 0.16500 119244.000000
7678 14074 1 0.16500 119244.000000
7678 15283 1 0.16500 119244.000000
7679 14074 1 0.16500 119244.000000
7679 16462 1 0.16500 119244.000000
7680 14074 1 0.16500 119244.000000
7680 15265 1 0.16500 119244.000000
7681 14075 1 0.16500 119244.000000
7681 15757 1 0.16500 119244.000000
7682 14075 1 0.16500 119244.000000
7682 14871 1 0.16500 119244.000000
7683 14076 1 0.16500 119244.000000
7683 14982 1 0.16500 119244.000000
7684 14076 1 0.16500 119244.000000
7684 17040 1 0.16500 119244.000000
7685 14076 1 0.16500 119244.000000
7685 16388 1 0.16500 119244.000000
7686 14078 1 0.16500 119244.000000
7686 15193 1 0.16500 119244.000000
7687 14392 1 0.16500 119244.000000
7687 17593 1 0.16500 119244.000000
7688 15878 1 0.16500 119244.000000
7688 17593 1 0.16500 119244.000000
7689 14079 1 0.16500 119244.000000
7689 15947 1 0.16500 119244.000000
7690 14079 1 0.16500 119244.000000
7690 16872 1 0.16500 119244.000000
7691 14080 1 0.16500 119244.000000
7691 16348 1 0.16500 119244.000000
7692 14080 1 0.16500 119244.000000
7692 16794 1 0.16500 119244.000000
7693 15201 1 0.16500 119244.000000
7693 16037 1 0.16500 119244.000000
7694 14081 1 0.16500 119244.000000
7694 14425 1 0.16500 119244.000000
7695 14081 1 0.16500 119244.000000
7695 15201 1 0.16500 119244.000000
7696 14081 1 0.16500 119244.000000
7696 16707 1 0.16500 119244.000000
7697 14082 1 0.16500 119244.000000
7697 17122 1 0.16500 119244.000000
7698 14082 1 0.16500 119244.000000
7698 14999 1 0.16500 119244.000000
7699 14794 1 0.16500 119244.000000
7699 17122 1 0.16500 119244.000000
7700 14083 1 0.16500 119244.000000
7700 16937 1 0.16500 119244.000000
7701 14083 1 0.16500 119244.000000
7701 16252 1 0.16500 119244.000000
7702 14084 1 0.16500 119244.000000
7702 16450 1 0.16500 119244.000000
7703 14084 1 0.16500 119244.000000
7703 14926 1 0.16500 119244.000000
7704 14085 1 0.16500 119244.000000
7704 15764 1 0.16500 119244.000000
7705 14085 1 0.16500 119244.000000
7705 16349 1 0.16500 119244.000000
7706 14086 1 0.16500 119244.000000
7706 14562 1 0.16500 119244.000000
7707 14086 1 0.16500 119244.000000
7707 15177 1 0.16500 119244.000000
7708 14087 1 0.16500 119244.000000
7708 16772 1 0.16500 119244.000000
7709 14087 1 0.16500 119244.000000
7709 16143 1 0.16500 119244.000000
7710 14087 1 0.16500 119244.000000
7710 15712 1 0.16500 119244.000000
7711 14088 1 0.16500 119244.000000
7711 17902 1 0.16500 119244.000000
7712 14088 1 0.16500 119244.000000
7712 14787 1 0.16500 119244.000000
7713 14089 1 0.16500 119244.000000
7713 16002 1 0.16500 119244.000000
7714 13771 1 0.16500 119244.000000
7714 14089 1 0.16500 119244.000000
7715 14090 1 0.16500 119244.000000
7715 16989 1 0.16500 119244.000000
7716 14090 1 0.16500 119244.000000
7716 16713 1 0.16500 119244.000000
7717 14090 1 0.16500 119244.000000
7717 15095 1 0.16500 119244.000000
7718 14091 1 0.16500 119244.000000
7718 17085 1 0.16500 119244.000000
7719 14091 1 0.16500 119244.000000
7719 15840 1 0.16500 119244.000000
7720 14091 1 0.16500 119244.000000
7720 16198 1 0.16500 119244.000000
7721 14092 1 0.16500 119244.000000
7721 15177 1 0.16500 119244.000000
7722 14093 1 0.16500 119244.000000
7722 14355 1 0.16500 119244.000000
7723 14093 1 0.16500 119244.000000
7723 16644 1 0.16500 119244.000000
7724 14093 1 0.16500 119244.000000
7724 14791 1 0.16500 119244.000000
7725 14093 1 0.16500 119244.000000
7725 15628 1 0.16500 119244.000000
7726 14094 1 0.16500 119244.000000
7726 14996 1 0.16500 119244.000000
7727 14094 1 0.16500 119244.000000
7727 16418 1 0.16500 119244.000000
7728 14094 1 0.16500 119244.000000
7728 14974 1 0.16500 119244.000000
7729 14095 1 0.16500 119244.000000
7729 17041 1 0.16500 119244.000000
7730 14095 1 0.16500 119244.000000
7730 15515 1 0.16500 119244.000000
7731 14096 1 0.16500 119244.000000
7731 14964 1 0.16500 119244.000000
7732 14097 1 0.16500 119244.000000
7732 15225 1 0.16500 119244.000000
7733 14097 1 0.16500 119244.000000
7733 16499 1 0.16500 119244.000000
7734 14097 1 0.16500 119244.000000
7734 16151 1 0.16500 119244.000000
7735 14098 1 0.16500 119244.000000
7735 16448 1 0.16500 119244.000000
7736 14098 1 0.16500 119244.000000
7736 15217 1 0.16500 119244.000000
7737 14098 1 0.16500 119244.000000
7737 14443 1 0.16500 119244.000000
7738 14099 1 0.16500 119244.000000
7738 15397 1 0.16500 119244.000000
7739 13763 1 0.16500 119244.000000
7739 15186 1 0.16500 119244.000000
7740 11812 1 0.16500 119244.000000
7740 14099 1 0.16500 119244.000000
7741 14100 1 0.16500 119244.000000
7741 16457 1 0.16500 119244.000000
7742 14100 1 0.16500 119244.000000
7742 15240 1 0.16500 119244.000000
7743 14100 1 0.16500 119244.000000
7743 14921 1 0.16500 119244.000000
7744 14100 1 0.16500 119244.000000
7744 16197 1 0.16500 119244.000000
7745 14101 1 0.16500 119244.000000
7745 16536 1 0.16500 119244.000000
7746 14102 1 0.16500 119244.000000
7746 15828 1 0.16500 119244.000000
7747 14102 1 0.16500 119244.000000
7747 15046 1 0.16500 119244.000000
7748 14102 1 0.16500 119244.000000
7748 14812 1 0.16500 119244.000000
7749 14102 1 0.16500 119244.000000
7749 16010 1 0.16500 119244.000000
7750 14104 1 0.16500 119244.000000
7750 16485 1 0.16500 119244.000000
7751 14104 1 0.16500 119244.000000
7751 15773 1 0.16500 119244.000000
7752 14105 1 0.16500 119244.000000
7752 16551 1 0.16500 119244.000000
7753 14105 1 0.16500 119244.000000
7753 16180 1 0.16500 119244.000000
7754 14105 1 0.16500 119244.000000
7754 16488 1 0.16500 119244.000000
7755 14106 1 0.16500 119244.000000
7755 17119 1 0.16500 119244.000000
7756 14106 1 0.16500 119244.000000
7756 15779 1 0.16500 119244.000000
7757 14106 1 0.16500 119244.000000
7757 17088 1 0.16500 119244.000000
7758 14107 1 0.16500 119244.000000
7758 16501 1 0.16500 119244.000000
7759 12823 1 0.16500 119244.000000
7759 17035 1 0.16500 119244.000000
7760 14108 1 0.16500 119244.000000
7760 16248 1 0.16500 119244.000000
7761 13048 1 0.16500 119244.000000
7761 16728 1 0.16500 119244.000000
7762 14110 1 0.16500 119244.000000
7762 14293 1 0.16500 119244.000000
7763 14119 1 0.16500 119244.000000
7763 14293 1 0.16500 119244.000000
7764 14110 1 0.16500 119244.000000
7764 16441 1 0.16500 119244.000000
7765 12029 1 0.16500 119244.000000
7765 17157 1 0.16500 119244.000000
7766 14111 1 0.16500 119244.000000
7766 15696 1 0.16500 119244.000000
7767 14111 1 0.16500 119244.000000
7767 15177 1 0.16500 119244.000000
7768 14112 1 0.16500 119244.000000
7768 15320 1 0.16500 119244.000000
7769 14113 1 0.16500 119244.000000
7769 15458 1 0.16500 119244.000000
7770 14113 1 0.16500 119244.000000
7770 17662 1 0.16500 119244.000000
7771 14114 1 0.16500 119244.000000
7771 16836 1 0.16500 119244.000000
7772 14114 1 0.16500 119244.000000
7772 15205 1 0.16500 119244.000000
7773 11790 1 0.16500 119244.000000
7773 14114 1 0.16500 119244.000000
7774 15008 1 0.16500 119244.000000
7774 16244 1 0.16500 119244.000000
7775 14115 1 0.16500 119244.000000
7775 15305 1 0.16500 119244.000000
7776 14115 1 0.16500 119244.000000
7776 16244 1 0.16500 119244.000000
7777 14116 1 0.16500 119244.000000
7777 14192 1 0.16500 119244.000000
7778 14117 1 0.16500 119244.000000
7778 16973 1 0.16500 119244.000000
7779 14117 1 0.16500 119244.000000
7779 14825 1 0.16500 119244.000000
7780 14118 1 0.16500 119244.000000
7780 15684 1 0.16500 119244.000000
7781 13915 1 0.16500 119244.000000
7781 15459 1 0.16500 119244.000000
7782 14118 1 0.16500 119244.000000
7782 16978 1 0.16500 119244.000000
7783 14119 1 0.16500 119244.000000
7783 17503 1 0.16500 119244.000000
7784 14968 1 0.16500 119244.000000
7784 16867 1 0.16500 119244.000000
7785 14119 1 0.16500 119244.000000
7785 14968 1 0.16500 119244.000000
7786 14120 1 0.16500 119244.000000
7786 14790 1 0.16500 119244.000000
7787 14120 1 0.16500 119244.000000
7787 16102 1 0.16500 119244.000000
7788 14121 1 0.16500 119244.000000
7788 15251 1 0.16500 119244.000000
7789 14121 1 0.16500 119244.000000
7789 16628 1 0.16500 119244.000000
7790 14121 1 0.16500 119244.000000
7790 17157 1 0.16500 119244.000000
7791 14122 1 0.16500 119244.000000
7791 15711 1 0.16500 119244.000000
7792 14123 1 0.16500 119244.000000
7792 16087 1 0.16500 119244.000000
7793 14124 1 0.16500 119244.000000
7793 15706 1 0.16500 119244.000000
7794 14124 1 0.16500 119244.000000
7794 17143 1 0.16500 119244.000000
7795 14124 1 0.16500 119244.000000
7795 15333 1 0.16500 119244.000000
7796 14125 1 0.16500 119244.000000
7796 16801 1 0.16500 119244.000000
7797 14125 1 0.16500 119244.000000
7797 14580 1 0.16500 119244.000000
7798 14127 1 0.16500 119244.000000
7798 16747 1 0.16500 119244.000000
7799 14127 1 0.16500 119244.000000
7799 14550 1 0.16500 119244.000000
7800 14128 1 0.16500 119244.000000
7800 17620 1 0.16500 119244.000000
7801 14129 1 0.16500 119244.000000
7801 15919 1 0.16500 119244.000000
7802 14129 1 0.16500 119244.000000
7802 16768 1 0.16500 119244.000000
7803 14130 1 0.16500 119244.000000
7803 14739 1 0.16500 119244.000000
7804 14131 1 0.16500 119244.000000
7804 15836 1 0.16500 119244.000000
7805 17596 1 0.16500 119244.000000
7805 17638 1 0.16500 119244.000000
7806 16591 1 0.16500 119244.000000
7806 17596 1 0.16500 119244.000000
7807 14132 1 0.16500 119244.000000
7807 15394 1 0.16500 119244.000000
7808 14133 1 0.16500 119244.000000
7808 15497 1 0.16500 119244.000000
7809 14133 1 0.16500 119244.000000
7809 14369 1 0.16500 119244.000000
7810 14133 1 0.16500 119244.000000
7810 15420 1 0.16500 119244.000000
7811 14133 1 0.16500 119244.000000
7811 16189 1 0.16500 119244.000000
7812 14419 1 0.16500 119244.000000
7812 17599 1 0.16500 119244.000000
7813 17599 1 0.16500 119244.000000
7813 17953 1 0.16500 119244.000000
7814 14134 1 0.16500 119244.000000
7814 16315 1 0.16500 119244.000000
7815 14134 1 0.16500 119244.000000
7815 14225 1 0.16500 119244.000000
7816 14135 1 0.16500 119244.000000
7816 16363 1 0.16500 119244.000000
7817 14135 1 0.16500 119244.000000
7817 15892 1 0.16500 119244.000000
7818 16452 1 0.16500 119244.000000
7818 17629 1 0.16500 119244.000000
7819 16434 1 0.16500 119244.000000
7819 17629 1 0.16500 119244.000000
7820 12605 1 0.16500 119244.000000
7820 15764 1 0.16500 119244.000000
7821 14137 1 0.16500 119244.000000
7821 16131 1 0.16500 119244.000000
7822 14137 1 0.16500 119244.000000
7822 15739 1 0.16500 119244.000000
7823 14138 1 0.16500 119244.000000
7823 14505 1 0.16500 119244.000000
7824 14138 1 0.16500 119244.000000
7824 17126 1 0.16500 119244.000000
7825 14138 1 0.16500 119244.000000
7825 16460 1 0.16500 119244.000000
7826 14140 1 0.16500 119244.000000
7826 16724 1 0.16500 119244.000000
7827 14140 1 0.16500 119244.000000
7827 17114 1 0.16500 119244.000000
7828 14141 1 0.16500 119244.000000
7828 16890 1 0.16500 119244.000000
7829 14141 1 0.16500 119244.000000
7829 16728 1 0.16500 119244.000000
7830 14142 1 0.16500 119244.000000
7830 17196 1 0.16500 119244.000000
7831 14142 1 0.16500 119244.000000
7831 15566 1 0.16500 119244.000000
7832 16939 1 0.16500 119244.000000
7832 17173 1 0.16500 119244.000000
7833 14143 1 0.16500 119244.000000
7833 17173 1 0.16500 119244.000000
7834 14144 1 0.16500 119244.000000
7834 15356 1 0.16500 119244.000000
7835 14144 1 0.16500 119244.000000
7835 15562 1 0.16500 119244.000000
7836 14144 1 0.16500 119244.000000
7836 15211 1 0.16500 119244.000000
7837 14145 1 0.16500 119244.000000
7837 14979 1 0.16500 119244.000000
7838 14145 1 0.16500 119244.000000
7838 15222 1 0.16500 119244.000000
7839 14146 1 0.16500 119244.000000
7839 14496 1 0.16500 119244.000000
7840 14147 1 0.16500 119244.000000
7840 15001 1 0.16500 119244.000000
7841 14147 1 0.16500 119244.000000
7841 14255 1 0.16500 119244.000000
7842 14148 1 0.16500 119244.000000
7842 17689 1 0.16500 119244.000000
7843 14149 1 0.16500 119244.000000
7843 16314 1 0.16500 119244.000000
7844 14149 1 0.16500 119244.000000
7844 14176 1 0.16500 119244.000000
7845 14149 1 0.16500 119244.000000
7845 16815 1 0.16500 119244.000000
7846 14150 1 0.16500 119244.000000
7846 15229 1 0.16500 119244.000000
7847 14150 1 0.16500 119244.000000
7847 14151 1 0.16500 119244.000000
7848 14151 1 0.16500 119244.000000
7848 15087 1 0.16500 119244.000000
7849 14151 1 0.16500 119244.000000
7849 16064 1 0.16500 119244.000000
7850 14152 1 0.16500 119244.000000
7850 15124 1 0.16500 119244.000000
7851 16162 1 0.16500 119244.000000
7851 17785 1 0.16500 119244.000000
7852 14152 1 0.16500 119244.000000
7852 16162 1 0.16500 119244.000000
7853 14153 1 0.16500 119244.000000
7853 16576 1 0.16500 119244.000000
7854 14154 1 0.16500 119244.000000
7854 15804 1 0.16500 119244.000000
7855 14154 1 0.16500 119244.000000
7855 14180 1 0.16500 119244.000000
7856 14155 1 0.16500 119244.000000
7856 16187 1 0.16500 119244.000000
7857 14155 1 0.16500 119244.000000
7857 14822 1 0.16500 119244.000000
7858 14155 1 0.16500 119244.000000
7858 16700 1 0.16500 119244.000000
7859 14156 1 0.16500 119244.000000
7859 14285 1 0.16500 119244.000000
7860 14157 1 0.16500 119244.000000
7860 14326 1 0.16500 119244.000000
7861 14157 1 0.16500 119244.000000
7861 17902 1 0.16500 119244.000000
7862 14158 1 0.16500 119244.000000
7862 17725 1 0.16500 119244.000000
7863 14158 1 0.16500 119244.000000
7863 16855 1 0.16500 119244.000000
7864 14158 1 0.16500 119244.000000
7864 17154 1 0.16500 119244.000000
7865 13549 1 0.16500 119244.000000
7865 14159 1 0.16500 119244.000000
7866 14159 1 0.16500 119244.000000
7866 14984 1 0.16500 119244.000000
7867 14159 1 0.16500 119244.000000
7867 14805 1 0.16500 119244.000000
7868 14159 1 0.16500 119244.000000
7868 17108 1 0.16500 119244.000000
7869 14161 1 0.16500 119244.000000
7869 16730 1 0.16500 119244.000000
7870 14161 1 0.16500 119244.000000
7870 14210 1 0.16500 119244.000000
7871 14162 1 0.16500 119244.000000
7871 15890 1 0.16500 119244.000000
7872 14162 1 0.16500 119244.000000
7872 14945 1 0.16500 119244.000000
7873 14163 1 0.16500 119244.000000
7873 16061 1 0.16500 119244.000000
7874 14163 1 0.16500 119244.000000
7874 16649 1 0.16500 119244.000000
7875 14164 1 0.16500 119244.000000
7875 15103 1 0.16500 119244.000000
7876 14164 1 0.16500 119244.000000
7876 14486 1 0.16500 119244.000000
7877 14164 1 0.16500 119244.000000
7877 16499 1 0.16500 119244.000000
7878 13710 1 0.16500 119244.000000
7878 14165 1 0.16500 119244.000000
7879 14165 1 0.16500 119244.000000
7879 16092 1 0.16500 119244.000000
7880 14165 1 0.16500 119244.000000
7880 16807 1 0.16500 119244.000000
7881 14166 1 0.16500 119244.000000
7881 16510 1 0.16500 119244.000000
7882 14166 1 0.16500 119244.000000
7882 16829 1 0.16500 119244.000000
7883 14167 1 0.16500 119244.000000
7883 15662 1 0.16500 119244.000000
7884 14167 1 0.16500 119244.000000
7884 16120 1 0.16500 119244.000000
7885 14167 1 0.16500 119244.000000
7885 14262 1 0.16500 119244.000000
7886 14168 1 0.16500 119244.000000
7886 16349 1 0.16500 119244.000000
7887 14168 1 0.16500 119244.000000
7887 16404 1 0.16500 119244.000000
7888 14168 1 0.16500 119244.000000
7888 15605 1 0.16500 119244.000000
7889 14169 1 0.16500 119244.000000
7889 17006 1 0.16500 119244.000000
7890 14169 1 0.16500 119244.000000
7890 16575 1 0.16500 119244.000000
7891 14169 1 0.16500 119244.000000
7891 15195 1 0.16500 119244.000000
7892 14170 1 0.16500 119244.000000
7892 14643 1 0.16500 119244.000000
7893 14170 1 0.16500 119244.000000
7893 15694 1 0.16500 119244.000000
7894 14170 1 0.16500 119244.000000
7894 14190 1 0.16500 119244.000000
7895 14171 1 0.16500 119244.000000
7895 16641 1 0.16500 119244.000000
7896 14171 1 0.16500 119244.000000
7896 16700 1 0.16500 119244.000000
7897 12174 1 0.16500 119244.000000
7897 14171 1 0.16500 119244.000000
7898 14172 1 0.16500 119244.000000
7898 14804 1 0.16500 119244.000000
7899 14172 1 0.16500 119244.000000
7899 15175 1 0.16500 119244.000000
7900 14172 1 0.16500 119244.000000
7900 16114 1 0.16500 119244.000000
7901 14173 1 0.16500 119244.000000
7901 14948 1 0.16500 119244.000000
7902 14174 1 0.16500 119244.000000
7902 16899 1 0.16500 119244.000000
7903 14174 1 0.16500 119244.000000
7903 14698 1 0.16500 119244.000000
7904 14175 1 0.16500 119244.000000
7904 16748 1 0.16500 119244.000000
7905 14175 1 0.16500 119244.000000
7905 14562 1 0.16500 119244.000000
7906 14177 1 0.16500 119244.000000
7906 15085 1 0.16500 119244.000000
7907 14177 1 0.16500 119244.000000
7907 14511 1 0.16500 119244.000000
7908 16987 1 0.16500 119244.000000
7908 17602 1 0.16500 119244.000000
7909 14178 1 0.16500 119244.000000
7909 16915 1 0.16500 119244.000000
7910 14178 1 0.16500 119244.000000
7910 14325 1 0.16500 119244.000000
7911 14179 1 0.16500 119244.000000
7911 16927 1 0.16500 119244.000000
7912 14179 1 0.16500 119244.000000
7912 15501 1 0.16500 119244.000000
7913 14180 1 0.16500 119244.000000
7913 14411 1 0.16500 119244.000000
7914 14180 1 0.16500 119244.000000
7914 15266 1 0.16500 119244.000000
7915 14180 1 0.16500 119244.000000
7915 16615 1 0.16500 119244.000000
7916 14181 1 0.16500 119244.000000
7916 16780 1 0.16500 119244.000000
7917 14181 1 0.16500 119244.000000
7917 16561 1 0.16500 119244.000000
7918 14182 1 0.16500 119244.000000
7918 15809 1 0.16500 119244.000000
7919 14182 1 0.16500 119244.000000
7919 14948 1 0.16500 119244.000000
7920 14182 1 0.16500 119244.000000
7920 16142 1 0.16500 119244.000000
7921 14183 1 0.16500 119244.000000
7921 15363 1 0.16500 119244.000000
7922 14183 1 0.16500 119244.000000
7922 14677 1 0.16500 119244.000000
7923 14184 1 0.16500 119244.000000
7923 15572 1 0.16500 119244.000000
7924 14184 1 0.16500 119244.000000
7924 16638 1 0.16500 119244.000000
7925 14184 1 0.16500 119244.000000
7925 14245 1 0.16500 119244.000000
7926 14185 1 0.16500 119244.000000
7926 16001 1 0.16500 119244.000000
7927 14186 1 0.16500 119244.000000
7927 17160 1 0.16500 119244.000000
7928 14186 1 0.16500 119244.000000
7928 14755 1 0.16500 119244.000000
7929 14187 1 0.16500 119244.000000
7929 16974 1 0.16500 119244.000000
7930 14187 1 0.16500 119244.000000
7930 15781 1 0.16500 119244.000000
7931 14187 1 0.16500 119244.000000
7931 14258 1 0.16500 119244.000000
7932 14188 1 0.16500 119244.000000
7932 16562 1 0.16500 119244.000000
7933 14188 1 0.16500 119244.000000
7933 16005 1 0.16500 119244.000000
7934 14189 1 0.16500 119244.000000
7934 16825 1 0.16500 119244.000000
7935 14189 1 0.16500 119244.000000
7935 16266 1 0.16500 119244.000000
7936 14189 1 0.16500 119244.000000
7936 14744 1 0.16500 119244.000000
7937 14190 1 0.16500 119244.000000
7937 16335 1 0.16500 119244.000000
7938 14190 1 0.16500 119244.000000
7938 14594 1 0.16500 119244.000000
7939 14190 1 0.16500 119244.000000
7939 15317 1 0.16500 119244.000000
7940 14191 1 0.16500 119244.000000
7940 17081 1 0.16500 119244.000000
7941 14191 1 0.16500 119244.000000
7941 15218 1 0.16500 119244.000000
7942 14192 1 0.16500 119244.000000
7942 15791 1 0.16500 119244.000000
7943 14193 1 0.16500 119244.000000
7943 14528 1 0.16500 119244.000000
7944 14193 1 0.16500 119244.000000
7944 16453 1 0.16500 119244.000000
7945 15165 1 0.16500 119244.000000
7945 17605 1 0.16500 119244.000000
7946 14194 1 0.16500 119244.000000
7946 14828 1 0.16500 119244.000000
7947 14194 1 0.16500 119244.000000
7947 16025 1 0.16500 119244.000000
7948 14194 1 0.16500 119244.000000
7948 14388 1 0.16500 119244.000000
7949 14195 1 0.16500 119244.000000
7949 16475 1 0.16500 119244.000000
7950 14196 1 0.16500 119244.000000
7950 15610 1 0.16500 119244.000000
7951 14197 1 0.16500 119244.000000
7951 16904 1 0.16500 119244.000000
7952 14197 1 0.16500 119244.000000
7952 15676 1 0.16500 119244.000000
7953 13236 1 0.16500 119244.000000
7953 14197 1 0.16500 119244.000000
7954 14198 1 0.16500 119244.000000
7954 17015 1 0.16500 119244.000000
7955 14199 1 0.16500 119244.000000
7955 16986 1 0.16500 119244.000000
7956 14200 1 0.16500 119244.000000
7956 16295 1 0.16500 119244.000000
7957 14201 1 0.16500 119244.000000
7957 16902 1 0.16500 119244.000000
7958 14201 1 0.16500 119244.000000
7958 14696 1 0.16500 119244.000000
7959 14201 1 0.16500 119244.000000
7959 15974 1 0.16500 119244.000000
7960 14202 1 0.16500 119244.000000
7960 15622 1 0.16500 119244.000000
7961 14202 1 0.16500 119244.000000
7961 17028 1 0.16500 119244.000000
7962 14203 1 0.16500 119244.000000
7962 17109 1 0.16500 119244.000000
7963 14204 1 0.16500 119244.000000
7963 16422 1 0.16500 119244.000000
7964 14204 1 0.16500 119244.000000
7964 16132 1 0.16500 119244.000000
7965 14204 1 0.16500 119244.000000
7965 16665 1 0.16500 119244.000000
7966 14204 1 0.16500 119244.000000
7966 16006 1 0.16500 119244.000000
7967 14205 1 0.16500 119244.000000
7967 16043 1 0.16500 119244.000000
7968 14205 1 0.16500 119244.000000
7968 14421 1 0.16500 119244.000000
7969 14207 1 0.16500 119244.000000
7969 15633 1 0.16500 119244.000000
7970 14207 1 0.16500 119244.000000
7970 15684 1 0.16500 119244.000000
7971 14207 1 0.16500 119244.000000
7971 15396 1 0.16500 119244.000000
7972 17011 1 0.16500 119244.000000
7972 17049 1 0.16500 119244.000000
7973 15060 1 0.16500 119244.000000
7973 17011 1 0.16500 119244.000000
7974 14208 1 0.16500 119244.000000
7974 17011 1 0.16500 119244.000000
7975 14209 1 0.16500 119244.000000
7975 16403 1 0.16500 119244.000000
7976 14209 1 0.16500 119244.000000
7976 15146 1 0.16500 119244.000000
7977 14210 1 0.16500 119244.000000
7977 14937 1 0.16500 119244.000000
7978 14211 1 0.16500 119244.000000
7978 16956 1 0.16500 119244.000000
7979 14211 1 0.16500 119244.000000
7979 16130 1 0.16500 119244.000000
7980 14211 1 0.16500 119244.000000
7980 14453 1 0.16500 119244.000000
7981 14212 1 0.16500 119244.000000
7981 15378 1 0.16500 119244.000000
7982 14213 1 0.16500 119244.000000
7982 16765 1 0.16500 119244.000000
7983 14213 1 0.16500 119244.000000
7983 16239 1 0.16500 119244.000000
7984 14214 1 0.16500 119244.000000
7984 17115 1 0.16500 119244.000000
7985 14214 1 0.16500 119244.000000
7985 15202 1 0.16500 119244.000000
7986 14215 1 0.16500 119244.000000
7986 15441 1 0.16500 119244.000000
7987 14215 1 0.16500 119244.000000
7987 16079 1 0.16500 119244.000000
7988 14215 1 0.16500 119244.000000
7988 17073 1 0.16500 119244.000000
7989 14217 1 0.16500 119244.000000
7989 14706 1 0.16500 119244.000000
7990 14217 1 0.16500 119244.000000
7990 17989 1 0.16500 119244.000000
7991 14217 1 0.16500 119244.000000
7991 16880 1 0.16500 119244.000000
7992 14218 1 0.16500 119244.000000
7992 15830 1 0.16500 119244.000000
7993 14218 1 0.16500 119244.000000
7993 14805 1 0.16500 119244.000000
7994 14219 1 0.16500 119244.000000
7994 16476 1 0.16500 119244.000000
7995 14220 1 0.16500 119244.000000
7995 15358 1 0.16500 119244.000000
7996 14220 1 0.16500 119244.000000
7996 15288 1 0.16500 119244.000000
7997 14220 1 0.16500 119244.000000
7997 16289 1 0.16500 119244.000000
7998 14221 1 0.16500 119244.000000
7998 16544 1 0.16500 119244.000000
7999 14221 1 0.16500 119244.000000
7999 14481 1 0.16500 119244.000000
8000 14221 1 0.16500 119244.000000
8000 15224 1 0.16500 119244.000000
8001 14223 1 0.16500 119244.000000
8001 14977 1 0.16500 119244.000000
8002 14223 1 0.16500 119244.000000
8002 15020 1 0.16500 119244.000000
8003 14223 1 0.16500 119244.000000
8003 16361 1 0.16500 119244.000000
8004 14224 1 0.16500 119244.000000
8004 15419 1 0.16500 119244.000000
8005 14224 1 0.16500 119244.000000
8005 15674 1 0.16500 119244.000000
8006 14224 1 0.16500 119244.000000
8006 16606 1 0.16500 119244.000000
8007 14224 1 0.16500 119244.000000
8007 14482 1 0.16500 119244.000000
8008 14225 1 0.16500 119244.000000
8008 16192 1 0.16500 119244.000000
8009 14225 1 0.16500 119244.000000
8009 15065 1 0.16500 119244.000000
8010 14226 1 0.16500 119244.000000
8010 14399 1 0.16500 119244.000000
8011 14226 1 0.16500 119244.000000
8011 15050 1 0.16500 119244.000000
8012 14227 1 0.16500 119244.000000
8012 16359 1 0.16500 119244.000000
8013 14227 1 0.16500 119244.000000
8013 16887 1 0.16500 119244.000000
8014 13997 1 0.16500 119244.000000
8014 14228 1 0.16500 119244.000000
8015 14229 1 0.16500 119244.000000
8015 16817 1 0.16500 119244.000000
8016 14229 1 0.16500 119244.000000
8016 14723 1 0.16500 119244.000000
8017 14229 1 0.16500 119244.000000
8017 17129 1 0.16500 119244.000000
8018 14229 1 0.16500 119244.000000
8018 15250 1 0.16500 119244.000000
8019 14230 1 0.16500 119244.000000
8019 16002 1 0.16500 119244.000000
8020 14230 1 0.16500 119244.000000
8020 17105 1 0.16500 119244.000000
8021 14230 1 0.16500 119244.000000
8021 14862 1 0.16500 119244.000000
8022 13488 1 0.16500 119244.000000
8022 14230 1 0.16500 119244.000000
8023 14231 1 0.16500 119244.000000
8023 15875 1 0.16500 119244.000000
8024 14231 1 0.16500 119244.000000
8024 15386 1 0.16500 119244.000000
8025 14232 1 0.16500 119244.000000
8025 17027 1 0.16500 119244.000000
8026 14232 1 0.16500 119244.000000
8026 16440 1 0.16500 119244.000000
8027 14232 1 0.16500 119244.000000
8027 15836 1 0.16500 119244.000000
8028 14233 1 0.16500 119244.000000
8028 16858 1 0.16500 119244.000000
8029 14234 1 0.16500 119244.000000
8029 14370 1 0.16500 119244.000000
8030 14234 1 0.16500 119244.000000
8030 17134 1 0.16500 119244.000000
8031 14234 1 0.16500 119244.000000
8031 14593 1 0.16500 119244.000000
8032 14234 1 0.16500 119244.000000
8032 16341 1 0.16500 119244.000000
8033 14235 1 0.16500 119244.000000
8033 14791 1 0.16500 119244.000000
8034 14235 1 0.16500 119244.000000
8034 14828 1 0.16500 119244.000000
8035 14235 1 0.16500 119244.000000
8035 15329 1 0.16500 119244.000000
8036 14236 1 0.16500 119244.000000
8036 14927 1 0.16500 119244.000000
8037 14236 1 0.16500 119244.000000
8037 15624 1 0.16500 119244.000000
8038 14237 1 0.16500 119244.000000
8038 16221 1 0.16500 119244.000000
8039 14237 1 0.16500 119244.000000
8039 16101 1 0.16500 119244.000000
8040 14238 1 0.16500 119244.000000
8040 15812 1 0.16500 119244.000000
8041 14238 1 0.16500 119244.000000
8041 14512 1 0.16500 119244.000000
8042 14239 1 0.16500 119244.000000
8042 14349 1 0.16500 119244.000000
8043 14240 1 0.16500 119244.000000
8043 17776 1 0.16500 119244.000000
8044 16098 1 0.16500 119244.000000
8044 17776 1 0.16500 119244.000000
8045 14241 1 0.16500 119244.000000
8045 17659 1 0.16500 119244.000000
8046 14242 1 0.16500 119244.000000
8046 16984 1 0.16500 119244.000000
8047 14243 1 0.16500 119244.000000
8047 16260 1 0.16500 119244.000000
8048 14243 1 0.16500 119244.000000
8048 16264 1 0.16500 119244.000000
8049 14244 1 0.16500 119244.000000
8049 15642 1 0.16500 119244.000000
8050 14244 1 0.16500 119244.000000
8050 16387 1 0.16500 119244.000000
8051 14245 1 0.16500 119244.000000
8051 14855 1 0.16500 119244.000000
8052 14245 1 0.16500 119244.000000
8052 14298 1 0.16500 119244.000000
8053 14247 1 0.16500 119244.000000
8053 15814 1 0.16500 119244.000000
8054 14247 1 0.16500 119244.000000
8054 16158 1 0.16500 119244.000000
8055 14248 1 0.16500 119244.000000
8055 15490 1 0.16500 119244.000000
8056 14248 1 0.16500 119244.000000
8056 14864 1 0.16500 119244.000000
8057 12035 1 0.16500 119244.000000
8057 14248 1 0.16500 119244.000000
8058 14249 1 0.16500 119244.000000
8058 17731 1 0.16500 119244.000000
8059 14249 1 0.16500 119244.000000
8059 15908 1 0.16500 119244.000000
8060 14250 1 0.16500 119244.000000
8060 15902 1 0.16500 119244.000000
8061 14250 1 0.16500 119244.000000
8061 15097 1 0.16500 119244.000000
8062 14251 1 0.16500 119244.000000
8062 15280 1 0.16500 119244.000000
8063 14252 1 0.16500 119244.000000
8063 16330 1 0.16500 119244.000000
8064 14253 1 0.16500 119244.000000
8064 16623 1 0.16500 119244.000000
8065 14253 1 0.16500 119244.000000
8065 16727 1 0.16500 119244.000000
8066 14253 1 0.16500 119244.000000
8066 14856 1 0.16500 119244.000000
8067 17932 1 0.16500 119244.000000
8067 18074 1 0.16500 119244.000000
8068 14254 1 0.16500 119244.000000
8068 14504 1 0.16500 119244.000000
8069 14254 1 0.16500 119244.000000
8069 16007 1 0.16500 119244.000000
8070 14255 1 0.16500 119244.000000
8070 15582 1 0.16500 119244.000000
8071 14255 1 0.16500 119244.000000
8071 14742 1 0.16500 119244.000000
8072 14256 1 0.16500 119244.000000
8072 16000 1 0.16500 119244.000000
8073 14257 1 0.16500 119244.000000
8073 16962 1 0.16500 119244.000000
8074 14258 1 0.16500 119244.000000
8074 15589 1 0.16500 119244.000000
8075 14259 1 0.16500 119244.000000
8075 14674 1 0.16500 119244.000000
8076 14259 1 0.16500 119244.000000
8076 15466 1 0.16500 119244.000000
8077 14259 1 0.16500 119244.000000
8077 16199 1 0.16500 119244.000000
8078 14260 1 0.16500 119244.000000
8078 14463 1 0.16500 119244.000000
8079 14260 1 0.16500 119244.000000
8079 15687 1 0.16500 119244.000000
8080 14260 1 0.16500 119244.000000
8080 15343 1 0.16500 119244.000000
8081 17186 1 0.16500 119244.000000
8081 17608 1 0.16500 119244.000000
8082 14261 1 0.16500 119244.000000
8082 15961 1 0.16500 119244.000000
8083 14261 1 0.16500 119244.000000
8083 15523 1 0.16500 119244.000000
8084 13882 1 0.16500 119244.000000
8084 14709 1 0.16500 119244.000000
8085 14262 1 0.16500 119244.000000
8085 15775 1 0.16500 119244.000000
8086 14262 1 0.16500 119244.000000
8086 15183 1 0.16500 119244.000000
8087 14263 1 0.16500 119244.000000
8087 15696 1 0.16500 119244.000000
8088 14263 1 0.16500 119244.000000
8088 15635 1 0.16500 119244.000000
8089 14264 1 0.16500 119244.000000
8089 14924 1 0.16500 119244.000000
8090 12907 1 0.16500 119244.000000
8090 14264 1 0.16500 119244.000000
8091 15136 1 0.16500 119244.000000
8091 17611 1 0.16500 119244.000000
8092 15270 1 0.16500 119244.000000
8092 17611 1 0.16500 119244.000000
8093 14596 1 0.16500 119244.000000
8093 17611 1 0.16500 119244.000000
8094 14265 1 0.16500 119244.000000
8094 14643 1 0.16500 119244.000000
8095 14265 1 0.16500 119244.000000
8095 15452 1 0.16500 119244.000000
8096 14266 1 0.16500 119244.000000
8096 16287 1 0.16500 119244.000000
8097 14266 1 0.16500 119244.000000
8097 17992 1 0.16500 119244.000000
8098 14267 1 0.16500 119244.000000
8098 16632 1 0.16500 119244.000000
8099 16166 1 0.16500 119244.000000
8099 16546 1 0.16500 119244.000000
8100 14267 1 0.16500 119244.000000
8100 14492 1 0.16500 119244.000000
8101 14267 1 0.16500 119244.000000
8101 16546 1 0.16500 119244.000000
8102 14268 1 0.16500 119244.000000
8102 15315 1 0.16500 119244.000000
8103 14268 1 0.16500 119244.000000
8103 16523 1 0.16500 119244.000000
8104 14268 1 0.16500 119244.000000
8104 14382 1 0.16500 119244.000000
8105 14823 1 0.16500 119244.000000
8105 16302 1 0.16500 119244.000000
8106 14270 1 0.16500 119244.000000
8106 14823 1 0.16500 119244.000000
8107 14272 1 0.16500 119244.000000
8107 16208 1 0.16500 119244.000000
8108 14273 1 0.16500 119244.000000
8108 15249 1 0.16500 119244.000000
8109 14273 1 0.16500 119244.000000
8109 16504 1 0.16500 119244.000000
8110 14273 1 0.16500 119244.000000
8110 17001 1 0.16500 119244.000000
8111 14274 1 0.16500 119244.000000
8111 15277 1 0.16500 119244.000000
8112 14274 1 0.16500 119244.000000
8112 16500 1 0.16500 119244.000000
8113 14275 1 0.16500 119244.000000
8113 15919 1 0.16500 119244.000000
8114 14275 1 0.16500 119244.000000
8114 14283 1 0.16500 119244.000000
8115 12491 1 0.16500 119244.000000
8115 15802 1 0.16500 119244.000000
8116 14276 1 0.16500 119244.000000
8116 17045 1 0.16500 119244.000000
8117 14277 1 0.16500 119244.000000
8117 15640 1 0.16500 119244.000000
8118 14277 1 0.16500 119244.000000
8118 15907 1 0.16500 119244.000000
8119 14278 1 0.16500 119244.000000
8119 16722 1 0.16500 119244.000000
8120 14278 1 0.16500 119244.000000
8120 16365 1 0.16500 119244.000000
8121 14278 1 0.16500 119244.000000
8121 16647 1 0.16500 119244.000000
8122 13867 1 0.16500 119244.000000
8122 14279 1 0.16500 119244.000000
8123 14280 1 0.16500 119244.000000
8123 16610 1 0.16500 119244.000000
8124 14280 1 0.16500 119244.000000
8124 16790 1 0.16500 119244.000000
8125 14281 1 0.16500 119244.000000
8125 14506 1 0.16500 119244.000000
8126 14281 1 0.16500 119244.000000
8126 16686 1 0.16500 119244.000000
8127 14282 1 0.16500 119244.000000
8127 17073 1 0.16500 119244.000000
8128 14282 1 0.16500 119244.000000
8128 15916 1 0.16500 119244.000000
8129 14282 1 0.16500 119244.000000
8129 14712 1 0.16500 119244.000000
8130 14283 1 0.16500 119244.000000
8130 16768 1 0.16500 119244.000000
8131 14283 1 0.16500 119244.000000
8131 14992 1 0.16500 119244.000000
8132 14284 1 0.16500 119244.000000
8132 15078 1 0.16500 119244.000000
8133 14284 1 0.16500 119244.000000
8133 16981 1 0.16500 119244.000000
8134 14285 1 0.16500 119244.000000
8134 15526 1 0.16500 119244.000000
8135 14285 1 0.16500 119244.000000
8135 15514 1 0.16500 119244.000000
8136 14286 1 0.16500 119244.000000
8136 14311 1 0.16500 119244.000000
8137 14286 1 0.16500 119244.000000
8137 15148 1 0.16500 119244.000000
8138 14286 1 0.16500 119244.000000
8138 16215 1 0.16500 119244.000000
8139 14287 1 0.16500 119244.000000
8139 16869 1 0.16500 119244.000000
8140 14287 1 0.16500 119244.000000
8140 16078 1 0.16500 119244.000000
8141 14287 1 0.16500 119244.000000
8141 15887 1 0.16500 119244.000000
8142 14288 1 0.16500 119244.000000
8142 16532 1 0.16500 119244.000000
8143 14289 1 0.16500 119244.000000
8143 15405 1 0.16500 119244.000000
8144 14289 1 0.16500 119244.000000
8144 15433 1 0.16500 119244.000000
8145 14290 1 0.16500 119244.000000
8145 16743 1 0.16500 119244.000000
8146 14291 1 0.16500 119244.000000
8146 15392 1 0.16500 119244.000000
8147 14291 1 0.16500 119244.000000
8147 16751 1 0.16500 119244.000000
8148 14770 1 0.16500 119244.000000
8148 16558 1 0.16500 119244.000000
8149 14292 1 0.16500 119244.000000
8149 16558 1 0.16500 119244.000000
8150 14110 1 0.16500 119244.000000
8150 16292 1 0.16500 119244.000000
8151 14294 1 0.16500 119244.000000
8151 14426 1 0.16500 119244.000000
8152 14294 1 0.16500 119244.000000
8152 16082 1 0.16500 119244.000000
8153 15361 1 0.16500 119244.000000
8153 17614 1 0.16500 119244.000000
8154 14295 1 0.16500 119244.000000
8154 15578 1 0.16500 119244.000000
8155 14295 1 0.16500 119244.000000
8155 15722 1 0.16500 119244.000000
8156 15578 1 0.16500 119244.000000
8156 16075 1 0.16500 119244.000000
8157 14295 1 0.16500 119244.000000
8157 14802 1 0.16500 119244.000000
8158 14296 1 0.16500 119244.000000
8158 15285 1 0.16500 119244.000000
8159 14296 1 0.16500 119244.000000
8159 17030 1 0.16500 119244.000000
8160 14297 1 0.16500 119244.000000
8160 17195 1 0.16500 119244.000000
8161 11990 1 0.16500 119244.000000
8161 15049 1 0.16500 119244.000000
8162 11990 1 0.16500 119244.000000
8162 14297 1 0.16500 119244.000000
8163 14298 1 0.16500 119244.000000
8163 14466 1 0.16500 119244.000000
8164 14298 1 0.16500 119244.000000
8164 16474 1 0.16500 119244.000000
8165 14299 1 0.16500 119244.000000
8165 15923 1 0.16500 119244.000000
8166 11983 1 0.16500 119244.000000
8166 16818 1 0.16500 119244.000000
8167 14300 1 0.16500 119244.000000
8167 16840 1 0.16500 119244.000000
8168 14301 1 0.16500 119244.000000
8168 14911 1 0.16500 119244.000000
8169 14302 1 0.16500 119244.000000
8169 15389 1 0.16500 119244.000000
8170 14302 1 0.16500 119244.000000
8170 16816 1 0.16500 119244.000000
8171 14302 1 0.16500 119244.000000
8171 14489 1 0.16500 119244.000000
8172 14303 1 0.16500 119244.000000
8172 15763 1 0.16500 119244.000000
8173 14303 1 0.16500 119244.000000
8173 18104 1 0.16500 119244.000000
8174 14303 1 0.16500 119244.000000
8174 16207 1 0.16500 119244.000000
8175 14304 1 0.16500 119244.000000
8175 14595 1 0.16500 119244.000000
8176 14304 1 0.16500 119244.000000
8176 15559 1 0.16500 119244.000000
8177 14304 1 0.16500 119244.000000
8177 15464 1 0.16500 119244.000000
8178 14304 1 0.16500 119244.000000
8178 15379 1 0.16500 119244.000000
8179 14305 1 0.16500 119244.000000
8179 16237 1 0.16500 119244.000000
8180 14305 1 0.16500 119244.000000
8180 15393 1 0.16500 119244.000000
8181 14305 1 0.16500 119244.000000
8181 15122 1 0.16500 119244.000000
8182 14305 1 0.16500 119244.000000
8182 15789 1 0.16500 119244.000000
8183 14306 1 0.16500 119244.000000
8183 16493 1 0.16500 119244.000000
8184 14306 1 0.16500 119244.000000
8184 15144 1 0.16500 119244.000000
8185 14307 1 0.16500 119244.000000
8185 16400 1 0.16500 119244.000000
8186 14308 1 0.16500 119244.000000
8186 14372 1 0.16500 119244.000000
8187 14308 1 0.16500 119244.000000
8187 16899 1 0.16500 119244.000000
8188 14308 1 0.16500 119244.000000
8188 16070 1 0.16500 119244.000000
8189 14309 1 0.16500 119244.000000
8189 15585 1 0.16500 119244.000000
8190 14309 1 0.16500 119244.000000
8190 15387 1 0.16500 119244.000000
8191 14309 1 0.16500 119244.000000
8191 15534 1 0.16500 119244.000000
8192 14310 1 0.16500 119244.000000
8192 14904 1 0.16500 119244.000000
8193 14310 1 0.16500 119244.000000
8193 14432 1 0.16500 119244.000000
8194 14310 1 0.16500 119244.000000
8194 15462 1 0.16500 119244.000000
8195 14311 1 0.16500 119244.000000
8195 15417 1 0.16500 119244.000000
8196 14311 1 0.16500 119244.000000
8196 14731 1 0.16500 119244.000000
8197 14312 1 0.16500 119244.000000
8197 15920 1 0.16500 119244.000000
8198 14650 1 0.16500 119244.000000
8198 17617 1 0.16500 119244.000000
8199 14313 1 0.16500 119244.000000
8199 14338 1 0.16500 119244.000000
8200 14313 1 0.16500 119244.000000
8200 15598 1 0.16500 119244.000000
8201 14313 1 0.16500 119244.000000
8201 16804 1 0.16500 119244.000000
8202 14314 1 0.16500 119244.000000
8202 15834 1 0.16500 119244.000000
8203 14315 1 0.16500 119244.000000
8203 14958 1 0.16500 119244.000000
8204 14315 1 0.16500 119244.000000
8204 14905 1 0.16500 119244.000000
8205 14316 1 0.16500 119244.000000
8205 16859 1 0.16500 119244.000000
8206 14316 1 0.16500 119244.000000
8206 17085 1 0.16500 119244.000000
8207 14316 1 0.16500 119244.000000
8207 16183 1 0.16500 119244.000000
8208 14317 1 0.16500 119244.000000
8208 16622 1 0.16500 119244.000000
8209 14317 1 0.16500 119244.000000
8209 16543 1 0.16500 119244.000000
8210 14318 1 0.16500 119244.000000
8210 17075 1 0.16500 119244.000000
8211 12693 1 0.16500 119244.000000
8211 14552 1 0.16500 119244.000000
8212 12982 1 0.16500 119244.000000
8212 17233 1 0.16500 119244.000000
8213 14320 1 0.16500 119244.000000
8213 16158 1 0.16500 119244.000000
8214 14321 1 0.16500 119244.000000
8214 16093 1 0.16500 119244.000000
8215 14321 1 0.16500 119244.000000
8215 15117 1 0.16500 119244.000000
8216 14912 1 0.16500 119244.000000
8216 17097 1 0.16500 119244.000000
8217 14322 1 0.16500 119244.000000
8217 14912 1 0.16500 119244.000000
8218 14323 1 0.16500 119244.000000
8218 16952 1 0.16500 119244.000000
8219 14323 1 0.16500 119244.000000
8219 15207 1 0.16500 119244.000000
8220 14324 1 0.16500 119244.000000
8220 16175 1 0.16500 119244.000000
8221 14325 1 0.16500 119244.000000
8221 16363 1 0.16500 119244.000000
8222 14326 1 0.16500 119244.000000
8222 16202 1 0.16500 119244.000000
8223 14327 1 0.16500 119244.000000
8223 16194 1 0.16500 119244.000000
8224 14327 1 0.16500 119244.000000
8224 15698 1 0.16500 119244.000000
8225 14327 1 0.16500 119244.000000
8225 17175 1 0.16500 119244.000000
8226 14328 1 0.16500 119244.000000
8226 16742 1 0.16500 119244.000000
8227 14328 1 0.16500 119244.000000
8227 14570 1 0.16500 119244.000000
8228 14328 1 0.16500 119244.000000
8228 16775 1 0.16500 119244.000000
8229 14330 1 0.16500 119244.000000
8229 15870 1 0.16500 119244.000000
8230 14330 1 0.16500 119244.000000
8230 17131 1 0.16500 119244.000000
8231 14330 1 0.16500 119244.000000
8231 14533 1 0.16500 119244.000000
8232 14330 1 0.16500 119244.000000
8232 15080 1 0.16500 119244.000000
8233 14331 1 0.16500 119244.000000
8233 16502 1 0.16500 119244.000000
8234 14331 1 0.16500 119244.000000
8234 17881 1 0.16500 119244.000000
8235 14332 1 0.16500 119244.000000
8235 15212 1 0.16500 119244.000000
8236 14332 1 0.16500 119244.000000
8236 16711 1 0.16500 119244.000000
8237 14333 1 0.16500 119244.000000
8237 14680 1 0.16500 119244.000000
8238 14334 1 0.16500 119244.000000
8238 17079 1 0.16500 119244.000000
8239 14334 1 0.16500 119244.000000
8239 16087 1 0.16500 119244.000000
8240 15160 1 0.16500 119244.000000
8240 16967 1 0.16500 119244.000000
8241 14335 1 0.16500 119244.000000
8241 15461 1 0.16500 119244.000000
8242 14335 1 0.16500 119244.000000
8242 16967 1 0.16500 119244.000000
8243 14336 1 0.16500 119244.000000
8243 15383 1 0.16500 119244.000000
8244 14336 1 0.16500 119244.000000
8244 14505 1 0.16500 119244.000000
8245 14336 1 0.16500 119244.000000
8245 16036 1 0.16500 119244.000000
8246 14337 1 0.16500 119244.000000
8246 15379 1 0.16500 119244.000000
8247 15969 1 0.16500 119244.000000
8247 17620 1 0.16500 119244.000000
8248 14338 1 0.16500 119244.000000
8248 14711 1 0.16500 119244.000000
8249 14339 1 0.16500 119244.000000
8249 15913 1 0.16500 119244.000000
8250 14339 1 0.16500 119244.000000
8250 16667 1 0.16500 119244.000000
8251 14339 1 0.16500 119244.000000
8251 15457 1 0.16500 119244.000000
8252 14339 1 0.16500 119244.000000
8252 14738 1 0.16500 119244.000000
8253 14340 1 0.16500 119244.000000
8253 16389 1 0.16500 119244.000000
8254 14340 1 0.16500 119244.000000
8254 14850 1 0.16500 119244.000000
8255 14340 1 0.16500 119244.000000
8255 17166 1 0.16500 119244.000000
8256 14341 1 0.16500 119244.000000
8256 16051 1 0.16500 119244.000000
8257 14341 1 0.16500 119244.000000
8257 14456 1 0.16500 119244.000000
8258 14341 1 0.16500 119244.000000
8258 14814 1 0.16500 119244.000000
8259 12065 1 0.16500 119244.000000
8259 16153 1 0.16500 119244.000000
8260 14343 1 0.16500 119244.000000
8260 15941 1 0.16500 119244.000000
8261 14343 1 0.16500 119244.000000
8261 15697 1 0.16500 119244.000000
8262 14344 1 0.16500 119244.000000
8262 16506 1 0.16500 119244.000000
8263 14345 1 0.16500 119244.000000
8263 14838 1 0.16500 119244.000000
8264 14345 1 0.16500 119244.000000
8264 16111 1 0.16500 119244.000000
8265 15829 1 0.16500 119244.000000
8265 18079 1 0.16500 119244.000000
8266 14346 1 0.16500 119244.000000
8266 16554 1 0.16500 119244.000000
8267 14346 1 0.16500 119244.000000
8267 16662 1 0.16500 119244.000000
8268 14346 1 0.16500 119244.000000
8268 17187 1 0.16500 119244.000000
8269 14348 1 0.16500 119244.000000
8269 15492 1 0.16500 119244.000000
8270 14348 1 0.16500 119244.000000
8270 16686 1 0.16500 119244.000000
8271 14348 1 0.16500 119244.000000
8271 14728 1 0.16500 119244.000000
8272 14349 1 0.16500 119244.000000
8272 16340 1 0.16500 119244.000000
8273 14350 1 0.16500 119244.000000
8273 17198 1 0.16500 119244.000000
8274 14351 1 0.16500 119244.000000
8274 16625 1 0.16500 119244.000000
8275 14352 1 0.16500 119244.000000
8275 16372 1 0.16500 119244.000000
8276 16553 1 0.16500 119244.000000
8276 17626 1 0.16500 119244.000000
8277 13600 1 0.16500 119244.000000
8277 14952 1 0.16500 119244.000000
8278 14353 1 0.16500 119244.000000
8278 15788 1 0.16500 119244.000000
8279 13600 1 0.16500 119244.000000
8279 15465 1 0.16500 119244.000000
8280 14354 1 0.16500 119244.000000
8280 16850 1 0.16500 119244.000000
8281 14355 1 0.16500 119244.000000
8281 16734 1 0.16500 119244.000000
8282 14355 1 0.16500 119244.000000
8282 14730 1 0.16500 119244.000000
8283 14730 1 0.16500 119244.000000
8283 15202 1 0.16500 119244.000000
8284 14356 1 0.16500 119244.000000
8284 16310 1 0.16500 119244.000000
8285 14356 1 0.16500 119244.000000
8285 14681 1 0.16500 119244.000000
8286 14356 1 0.16500 119244.000000
8286 15485 1 0.16500 119244.000000
8287 14356 1 0.16500 119244.000000
8287 14573 1 0.16500 119244.000000
8288 15568 1 0.16500 119244.000000
8288 18084 1 0.16500 119244.000000
8289 14748 1 0.16500 119244.000000
8289 18084 1 0.16500 119244.000000
8290 14357 1 0.16500 119244.000000
8290 16712 1 0.16500 119244.000000
8291 14357 1 0.16500 119244.000000
8291 17127 1 0.16500 119244.000000
8292 14358 1 0.16500 119244.000000
8292 15982 1 0.16500 119244.000000
8293 14358 1 0.16500 119244.000000
8293 14841 1 0.16500 119244.000000
8294 13427 1 0.16500 119244.000000
8294 17803 1 0.16500 119244.000000
8295 14359 1 0.16500 119244.000000
8295 16700 1 0.16500 119244.000000
8296 14359 1 0.16500 119244.000000
8296 17758 1 0.16500 119244.000000
8297 14360 1 0.16500 119244.000000
8297 15022 1 0.16500 119244.000000
8298 14361 1 0.16500 119244.000000
8298 16410 1 0.16500 119244.000000
8299 14362 1 0.16500 119244.000000
8299 15445 1 0.16500 119244.000000
8300 14362 1 0.16500 119244.000000
8300 15049 1 0.16500 119244.000000
8301 14362 1 0.16500 119244.000000
8301 15969 1 0.16500 119244.000000
8302 14363 1 0.16500 119244.000000
8302 15323 1 0.16500 119244.000000
8303 14363 1 0.16500 119244.000000
8303 16784 1 0.16500 119244.000000
8304 14363 1 0.16500 119244.000000
8304 16581 1 0.16500 119244.000000
8305 14364 1 0.16500 119244.000000
8305 16164 1 0.16500 119244.000000
8306 14364 1 0.16500 119244.000000
8306 15076 1 0.16500 119244.000000
8307 14365 1 0.16500 119244.000000
8307 14630 1 0.16500 119244.000000
8308 14365 1 0.16500 119244.000000
8308 16858 1 0.16500 119244.000000
8309 14366 1 0.16500 119244.000000
8309 15799 1 0.16500 119244.000000
8310 14366 1 0.16500 119244.000000
8310 17031 1 0.16500 119244.000000
8311 14366 1 0.16500 119244.000000
8311 16874 1 0.16500 119244.000000
8312 14367 1 0.16500 119244.000000
8312 17169 1 0.16500 119244.000000
8313 14367 1 0.16500 119244.000000
8313 15876 1 0.16500 119244.000000
8314 13322 1 0.16500 119244.000000
8314 16872 1 0.16500 119244.000000
8315 15307 1 0.16500 119244.000000
8315 15876 1 0.16500 119244.000000
8316 14368 1 0.16500 119244.000000
8316 16307 1 0.16500 119244.000000
8317 14368 1 0.16500 119244.000000
8317 15707 1 0.16500 119244.000000
8318 14368 1 0.16500 119244.000000
8318 14494 1 0.16500 119244.000000
8319 14368 1 0.16500 119244.000000
8319 17057 1 0.16500 119244.000000
8320 14369 1 0.16500 119244.000000
8320 14899 1 0.16500 119244.000000
8321 14370 1 0.16500 119244.000000
8321 16704 1 0.16500 119244.000000
8322 14370 1 0.16500 119244.000000
8322 14786 1 0.16500 119244.000000
8323 14371 1 0.16500 119244.000000
8323 15077 1 0.16500 119244.000000
8324 14371 1 0.16500 119244.000000
8324 15040 1 0.16500 119244.000000
8325 14372 1 0.16500 119244.000000
8325 15575 1 0.16500 119244.000000
8326 14372 1 0.16500 119244.000000
8326 16891 1 0.16500 119244.000000
8327 14373 1 0.16500 119244.000000
8327 15236 1 0.16500 119244.000000
8328 14373 1 0.16500 119244.000000
8328 16325 1 0.16500 119244.000000
8329 14373 1 0.16500 119244.000000
8329 15925 1 0.16500 119244.000000
8330 12406 1 0.16500 119244.000000
8330 14373 1 0.16500 119244.000000
8331 14374 1 0.16500 119244.000000
8331 15516 1 0.16500 119244.000000
8332 14374 1 0.16500 119244.000000
8332 17036 1 0.16500 119244.000000
8333 14375 1 0.16500 119244.000000
8333 16754 1 0.16500 119244.000000
8334 14375 1 0.16500 119244.000000
8334 14683 1 0.16500 119244.000000
8335 14375 1 0.16500 119244.000000
8335 16811 1 0.16500 119244.000000
8336 14376 1 0.16500 119244.000000
8336 17166 1 0.16500 119244.000000
8337 14376 1 0.16500 119244.000000
8337 16077 1 0.16500 119244.000000
8338 14376 1 0.16500 119244.000000
8338 14484 1 0.16500 119244.000000
8339 14376 1 0.16500 119244.000000
8339 15465 1 0.16500 119244.000000
8340 14377 1 0.16500 119244.000000
8340 15004 1 0.16500 119244.000000
8341 14377 1 0.16500 119244.000000
8341 15973 1 0.16500 119244.000000
8342 14378 1 0.16500 119244.000000
8342 15351 1 0.16500 119244.000000
8343 14379 1 0.16500 119244.000000
8343 14476 1 0.16500 119244.000000
8344 14379 1 0.16500 119244.000000
8344 16330 1 0.16500 119244.000000
8345 14379 1 0.16500 119244.000000
8345 16361 1 0.16500 119244.000000
8346 14380 1 0.16500 119244.000000
8346 16816 1 0.16500 119244.000000
8347 14380 1 0.16500 119244.000000
8347 17060 1 0.16500 119244.000000
8348 14381 1 0.16500 119244.000000
8348 15916 1 0.16500 119244.000000
8349 14381 1 0.16500 119244.000000
8349 15620 1 0.16500 119244.000000
8350 14381 1 0.16500 119244.000000
8350 15931 1 0.16500 119244.000000
8351 14383 1 0.16500 119244.000000
8351 15664 1 0.16500 119244.000000
8352 14383 1 0.16500 119244.000000
8352 16814 1 0.16500 119244.000000
8353 14383 1 0.16500 119244.000000
8353 14468 1 0.16500 119244.000000
8354 14384 1 0.16500 119244.000000
8354 15943 1 0.16500 119244.000000
8355 14385 1 0.16500 119244.000000
8355 15483 1 0.16500 119244.000000
8356 14385 1 0.16500 119244.000000
8356 14973 1 0.16500 119244.000000
8357 14386 1 0.16500 119244.000000
8357 14959 1 0.16500 119244.000000
8358 14386 1 0.16500 119244.000000
8358 16799 1 0.16500 119244.000000
8359 14387 1 0.16500 119244.000000
8359 15612 1 0.16500 119244.000000
8360 14387 1 0.16500 119244.000000
8360 14755 1 0.16500 119244.000000
8361 14387 1 0.16500 119244.000000
8361 16971 1 0.16500 119244.000000
8362 14388 1 0.16500 119244.000000
8362 15313 1 0.16500 119244.000000
8363 14389 1 0.16500 119244.000000
8363 17824 1 0.16500 119244.000000
8364 14389 1 0.16500 119244.000000
8364 16102 1 0.16500 119244.000000
8365 14389 1 0.16500 119244.000000
8365 16926 1 0.16500 119244.000000
8366 14390 1 0.16500 119244.000000
8366 14804 1 0.16500 119244.000000
8367 14390 1 0.16500 119244.000000
8367 14418 1 0.16500 119244.000000
8368 14391 1 0.16500 119244.000000
8368 14935 1 0.16500 119244.000000
8369 14391 1 0.16500 119244.000000
8369 14423 1 0.16500 119244.000000
8370 14391 1 0.16500 119244.000000
8370 14837 1 0.16500 119244.000000
8371 14622 1 0.16500 119244.000000
8371 17632 1 0.16500 119244.000000
8372 14392 1 0.16500 119244.000000
8372 15312 1 0.16500 119244.000000
8373 14333 1 0.16500 119244.000000
8373 16836 1 0.16500 119244.000000
8374 14393 1 0.16500 119244.000000
8374 16729 1 0.16500 119244.000000
8375 14393 1 0.16500 119244.000000
8375 15651 1 0.16500 119244.000000
8376 12051 1 0.16500 119244.000000
8376 16565 1 0.16500 119244.000000
8377 14394 1 0.16500 119244.000000
8377 14929 1 0.16500 119244.000000
8378 14395 1 0.16500 119244.000000
8378 16593 1 0.16500 119244.000000
8379 14396 1 0.16500 119244.000000
8379 16336 1 0.16500 119244.000000
8380 14396 1 0.16500 119244.000000
8380 16922 1 0.16500 119244.000000
8381 14758 1 0.16500 119244.000000
8381 17635 1 0.16500 119244.000000
8382 14397 1 0.16500 119244.000000
8382 17150 1 0.16500 119244.000000
8383 11939 1 0.16500 119244.000000
8383 14397 1 0.16500 119244.000000
8384 14398 1 0.16500 119244.000000
8384 15360 1 0.16500 119244.000000
8385 14399 1 0.16500 119244.000000
8385 14719 1 0.16500 119244.000000
8386 14400 1 0.16500 119244.000000
8386 14529 1 0.16500 119244.000000
8387 14400 1 0.16500 119244.000000
8387 16545 1 0.16500 119244.000000
8388 14400 1 0.16500 119244.000000
8388 15699 1 0.16500 119244.000000
8389 14401 1 0.16500 119244.000000
8389 14895 1 0.16500 119244.000000
8390 14402 1 0.16500 119244.000000
8390 15600 1 0.16500 119244.000000
8391 14402 1 0.16500 119244.000000
8391 15759 1 0.16500 119244.000000
8392 14403 1 0.16500 119244.000000
8392 14986 1 0.16500 119244.000000
8393 14403 1 0.16500 119244.000000
8393 16038 1 0.16500 119244.000000
8394 14404 1 0.16500 119244.000000
8394 17138 1 0.16500 119244.000000
8395 14404 1 0.16500 119244.000000
8395 14819 1 0.16500 119244.000000
8396 14404 1 0.16500 119244.000000
8396 15437 1 0.16500 119244.000000
8397 14405 1 0.16500 119244.000000
8397 14774 1 0.16500 119244.000000
8398 14405 1 0.16500 119244.000000
8398 16963 1 0.16500 119244.000000
8399 14406 1 0.16500 119244.000000
8399 16371 1 0.16500 119244.000000
8400 14406 1 0.16500 119244.000000
8400 15654 1 0.16500 119244.000000
8401 14407 1 0.16500 119244.000000
8401 17005 1 0.16500 119244.000000
8402 14407 1 0.16500 119244.000000
8402 16603 1 0.16500 119244.000000
8403 14409 1 0.16500 119244.000000
8403 16639 1 0.16500 119244.000000
8404 15137 1 0.16500 119244.000000
8404 17638 1 0.16500 119244.000000
8405 17638 1 0.16500 119244.000000
8405 17890 1 0.16500 119244.000000
8406 14411 1 0.16500 119244.000000
8406 17149 1 0.16500 119244.000000
8407 14411 1 0.16500 119244.000000
8407 14692 1 0.16500 119244.000000
8408 14412 1 0.16500 119244.000000
8408 15847 1 0.16500 119244.000000
8409 14412 1 0.16500 119244.000000
8409 15645 1 0.16500 119244.000000
8410 14412 1 0.16500 119244.000000
8410 14999 1 0.16500 119244.000000
8411 14413 1 0.16500 119244.000000
8411 16404 1 0.16500 119244.000000
8412 11792 1 0.16500 119244.000000
8412 17926 1 0.16500 119244.000000
8413 14414 1 0.16500 119244.000000
8413 14756 1 0.16500 119244.000000
8414 14414 1 0.16500 119244.000000
8414 14486 1 0.16500 119244.000000
8415 14415 1 0.16500 119244.000000
8415 15543 1 0.16500 119244.000000
8416 14415 1 0.16500 119244.000000
8416 16176 1 0.16500 119244.000000
8417 14415 1 0.16500 119244.000000
8417 16437 1 0.16500 119244.000000
8418 14416 1 0.16500 119244.000000
8418 15794 1 0.16500 119244.000000
8419 14416 1 0.16500 119244.000000
8419 14581 1 0.16500 119244.000000
8420 14416 1 0.16500 119244.000000
8420 16815 1 0.16500 119244.000000
8421 13121 1 0.16500 119244.000000
8421 15861 1 0.16500 119244.000000
8422 14417 1 0.16500 119244.000000
8422 15096 1 0.16500 119244.000000
8423 14418 1 0.16500 119244.000000
8423 16267 1 0.16500 119244.000000
8424 14418 1 0.16500 119244.000000
8424 14781 1 0.16500 119244.000000
8425 14418 1 0.16500 119244.000000
8425 15856 1 0.16500 119244.000000
8426 15235 1 0.16500 119244.000000
8426 16923 1 0.16500 119244.000000
8427 14419 1 0.16500 119244.000000
8427 16923 1 0.16500 119244.000000
8428 15007 1 0.16500 119244.000000
8428 16923 1 0.16500 119244.000000
8429 16594 1 0.16500 119244.000000
8429 16878 1 0.16500 119244.000000
8430 14420 1 0.16500 119244.000000
8430 15216 1 0.16500 119244.000000
8431 14420 1 0.16500 119244.000000
8431 16878 1 0.16500 119244.000000
8432 14421 1 0.16500 119244.000000
8432 16875 1 0.16500 119244.000000
8433 14421 1 0.16500 119244.000000
8433 15675 1 0.16500 119244.000000
8434 14422 1 0.16500 119244.000000
8434 16818 1 0.16500 119244.000000
8435 14422 1 0.16500 119244.000000
8435 15711 1 0.16500 119244.000000
8436 15862 1 0.16500 119244.000000
8436 16818 1 0.16500 119244.000000
8437 15427 1 0.16500 119244.000000
8437 16125 1 0.16500 119244.000000
8438 14423 1 0.16500 119244.000000
8438 17755 1 0.16500 119244.000000
8439 14423 1 0.16500 119244.000000
8439 16125 1 0.16500 119244.000000
8440 14424 1 0.16500 119244.000000
8440 16292 1 0.16500 119244.000000
8441 14424 1 0.16500 119244.000000
8441 14961 1 0.16500 119244.000000
8442 14425 1 0.16500 119244.000000
8442 15808 1 0.16500 119244.000000
8443 14426 1 0.16500 119244.000000
8443 15257 1 0.16500 119244.000000
8444 14427 1 0.16500 119244.000000
8444 16793 1 0.16500 119244.000000
8445 14428 1 0.16500 119244.000000
8445 14463 1 0.16500 119244.000000
8446 14428 1 0.16500 119244.000000
8446 16702 1 0.16500 119244.000000
8447 14428 1 0.16500 119244.000000
8447 15338 1 0.16500 119244.000000
8448 14429 1 0.16500 119244.000000
8448 15668 1 0.16500 119244.000000
8449 14429 1 0.16500 119244.000000
8449 16306 1 0.16500 119244.000000
8450 16306 1 0.16500 119244.000000
8450 16438 1 0.16500 119244.000000
8451 14430 1 0.16500 119244.000000
8451 16705 1 0.16500 119244.000000
8452 14430 1 0.16500 119244.000000
8452 14928 1 0.16500 119244.000000
8453 14430 1 0.16500 119244.000000
8453 15832 1 0.16500 119244.000000
8454 16705 1 0.16500 119244.000000
8454 16760 1 0.16500 119244.000000
8455 14431 1 0.16500 119244.000000
8455 15493 1 0.16500 119244.000000
8456 11848 1 0.16500 119244.000000
8456 16022 1 0.16500 119244.000000
8457 14433 1 0.16500 119244.000000
8457 16209 1 0.16500 119244.000000
8458 14433 1 0.16500 119244.000000
8458 15670 1 0.16500 119244.000000
8459 16311 1 0.16500 119244.000000
8459 17641 1 0.16500 119244.000000
8460 14434 1 0.16500 119244.000000
8460 16932 1 0.16500 119244.000000
8461 14825 1 0.16500 119244.000000
8461 16932 1 0.16500 119244.000000
8462 14435 1 0.16500 119244.000000
8462 15761 1 0.16500 119244.000000
8463 14435 1 0.16500 119244.000000
8463 15122 1 0.16500 119244.000000
8464 14435 1 0.16500 119244.000000
8464 15703 1 0.16500 119244.000000
8465 14436 1 0.16500 119244.000000
8465 15150 1 0.16500 119244.000000
8466 14436 1 0.16500 119244.000000
8466 16066 1 0.16500 119244.000000
8467 14437 1 0.16500 119244.000000
8467 17110 1 0.16500 119244.000000
8468 14438 1 0.16500 119244.000000
8468 15675 1 0.16500 119244.000000
8469 14022 1 0.16500 119244.000000
8469 14438 1 0.16500 119244.000000
8470 14438 1 0.16500 119244.000000
8470 16679 1 0.16500 119244.000000
8471 14438 1 0.16500 119244.000000
8471 15933 1 0.16500 119244.000000
8472 14439 1 0.16500 119244.000000
8472 16595 1 0.16500 119244.000000
8473 14441 1 0.16500 119244.000000
8473 16828 1 0.16500 119244.000000
8474 14441 1 0.16500 119244.000000
8474 15683 1 0.16500 119244.000000
8475 14442 1 0.16500 119244.000000
8475 15480 1 0.16500 119244.000000
8476 14443 1 0.16500 119244.000000
8476 14542 1 0.16500 119244.000000
8477 14443 1 0.16500 119244.000000
8477 16477 1 0.16500 119244.000000
8478 14444 1 0.16500 119244.000000
8478 15527 1 0.16500 119244.000000
8479 14444 1 0.16500 119244.000000
8479 17144 1 0.16500 119244.000000
8480 14444 1 0.16500 119244.000000
8480 17125 1 0.16500 119244.000000
8481 14445 1 0.16500 119244.000000
8481 14969 1 0.16500 119244.000000
8482 14445 1 0.16500 119244.000000
8482 15899 1 0.16500 119244.000000
8483 14446 1 0.16500 119244.000000
8483 17722 1 0.16500 119244.000000
8484 14447 1 0.16500 119244.000000
8484 14539 1 0.16500 119244.000000
8485 14447 1 0.16500 119244.000000
8485 15359 1 0.16500 119244.000000
8486 14448 1 0.16500 119244.000000
8486 16682 1 0.16500 119244.000000
8487 14448 1 0.16500 119244.000000
8487 15338 1 0.16500 119244.000000
8488 14448 1 0.16500 119244.000000
8488 16986 1 0.16500 119244.000000
8489 14449 1 0.16500 119244.000000
8489 15386 1 0.16500 119244.000000
8490 14449 1 0.16500 119244.000000
8490 16626 1 0.16500 119244.000000
8491 14449 1 0.16500 119244.000000
8491 15266 1 0.16500 119244.000000
8492 16490 1 0.16500 119244.000000
8492 17644 1 0.16500 119244.000000
8493 14450 1 0.16500 119244.000000
8493 15846 1 0.16500 119244.000000
8494 14450 1 0.16500 119244.000000
8494 15424 1 0.16500 119244.000000
8495 14451 1 0.16500 119244.000000
8495 16686 1 0.16500 119244.000000
8496 14451 1 0.16500 119244.000000
8496 15249 1 0.16500 119244.000000
8497 15731 1 0.16500 119244.000000
8497 17884 1 0.16500 119244.000000
8498 14452 1 0.16500 119244.000000
8498 16108 1 0.16500 119244.000000
8499 14824 1 0.16500 119244.000000
8499 15731 1 0.16500 119244.000000
8500 14452 1 0.16500 119244.000000
8500 15731 1 0.16500 119244.000000
8501 14453 1 0.16500 119244.000000
8501 14849 1 0.16500 119244.000000
8502 14454 1 0.16500 119244.000000
8502 15164 1 0.16500 119244.000000
8503 14454 1 0.16500 119244.000000
8503 14827 1 0.16500 119244.000000
8504 14454 1 0.16500 119244.000000
8504 14559 1 0.16500 119244.000000
8505 12462 1 0.16500 119244.000000
8505 15979 1 0.16500 119244.000000
8506 12462 1 0.16500 119244.000000
8506 14473 1 0.16500 119244.000000
8507 14456 1 0.16500 119244.000000
8507 15748 1 0.16500 119244.000000
8508 14457 1 0.16500 119244.000000
8508 16011 1 0.16500 119244.000000
8509 14457 1 0.16500 119244.000000
8509 16526 1 0.16500 119244.000000
8510 14457 1 0.16500 119244.000000
8510 15936 1 0.16500 119244.000000
8511 16938 1 0.16500 119244.000000
8511 17647 1 0.16500 119244.000000
8512 16151 1 0.16500 119244.000000
8512 17647 1 0.16500 119244.000000
8513 14459 1 0.16500 119244.000000
8513 15643 1 0.16500 119244.000000
8514 14460 1 0.16500 119244.000000
8514 16215 1 0.16500 119244.000000
8515 14460 1 0.16500 119244.000000
8515 15350 1 0.16500 119244.000000
8516 14460 1 0.16500 119244.000000
8516 17057 1 0.16500 119244.000000
8517 14461 1 0.16500 119244.000000
8517 16965 1 0.16500 119244.000000
8518 14462 1 0.16500 119244.000000
8518 17183 1 0.16500 119244.000000
8519 14463 1 0.16500 119244.000000
8519 15699 1 0.16500 119244.000000
8520 14464 1 0.16500 119244.000000
8520 16886 1 0.16500 119244.000000
8521 14465 1 0.16500 119244.000000
8521 15108 1 0.16500 119244.000000
8522 14465 1 0.16500 119244.000000
8522 16599 1 0.16500 119244.000000
8523 14466 1 0.16500 119244.000000
8523 15360 1 0.16500 119244.000000
8524 14466 1 0.16500 119244.000000
8524 17177 1 0.16500 119244.000000
8525 11668 1 0.16500 119244.000000
8525 14870 1 0.16500 119244.000000
8526 11668 1 0.16500 119244.000000
8526 15171 1 0.16500 119244.000000
8527 11668 1 0.16500 119244.000000
8527 14726 1 0.16500 119244.000000
8528 14468 1 0.16500 119244.000000
8528 14542 1 0.16500 119244.000000
8529 14468 1 0.16500 119244.000000
8529 15186 1 0.16500 119244.000000
8530 14470 1 0.16500 119244.000000
8530 14761 1 0.16500 119244.000000
8531 14470 1 0.16500 119244.000000
8531 16384 1 0.16500 119244.000000
8532 14471 1 0.16500 119244.000000
8532 16888 1 0.16500 119244.000000
8533 14471 1 0.16500 119244.000000
8533 15950 1 0.16500 119244.000000
8534 14471 1 0.16500 119244.000000
8534 16982 1 0.16500 119244.000000
8535 14472 1 0.16500 119244.000000
8535 16520 1 0.16500 119244.000000
8536 14472 1 0.16500 119244.000000
8536 15813 1 0.16500 119244.000000
8537 14472 1 0.16500 119244.000000
8537 16849 1 0.16500 119244.000000
8538 14473 1 0.16500 119244.000000
8538 16769 1 0.16500 119244.000000
8539 14473 1 0.16500 119244.000000
8539 14833 1 0.16500 119244.000000
8540 14474 1 0.16500 119244.000000
8540 16716 1 0.16500 119244.000000
8541 14474 1 0.16500 119244.000000
8541 16097 1 0.16500 119244.000000
8542 14474 1 0.16500 119244.000000
8542 17066 1 0.16500 119244.000000
8543 14475 1 0.16500 119244.000000
8543 15317 1 0.16500 119244.000000
8544 14475 1 0.16500 119244.000000
8544 16537 1 0.16500 119244.000000
8545 14475 1 0.16500 119244.000000
8545 14594 1 0.16500 119244.000000
8546 14476 1 0.16500 119244.000000
8546 15821 1 0.16500 119244.000000
8547 14477 1 0.16500 119244.000000
8547 15635 1 0.16500 119244.000000
8548 14477 1 0.16500 119244.000000
8548 16087 1 0.16500 119244.000000
8549 14477 1 0.16500 119244.000000
8549 14727 1 0.16500 119244.000000
8550 14478 1 0.16500 119244.000000
8550 16469 1 0.16500 119244.000000
8551 14479 1 0.16500 119244.000000
8551 15304 1 0.16500 119244.000000
8552 14479 1 0.16500 119244.000000
8552 15662 1 0.16500 119244.000000
8553 14479 1 0.16500 119244.000000
8553 15183 1 0.16500 119244.000000
8554 14481 1 0.16500 119244.000000
8554 17094 1 0.16500 119244.000000
8555 14481 1 0.16500 119244.000000
8555 14514 1 0.16500 119244.000000
8556 14482 1 0.16500 119244.000000
8556 16959 1 0.16500 119244.000000
8557 14482 1 0.16500 119244.000000
8557 17052 1 0.16500 119244.000000
8558 14483 1 0.16500 119244.000000
8558 15483 1 0.16500 119244.000000
8559 14483 1 0.16500 119244.000000
8559 16939 1 0.16500 119244.000000
8560 14484 1 0.16500 119244.000000
8560 16531 1 0.16500 119244.000000
8561 14484 1 0.16500 119244.000000
8561 16655 1 0.16500 119244.000000
8562 14485 1 0.16500 119244.000000
8562 16064 1 0.16500 119244.000000
8563 14486 1 0.16500 119244.000000
8563 16961 1 0.16500 119244.000000
8564 14487 1 0.16500 119244.000000
8564 16963 1 0.16500 119244.000000
8565 14487 1 0.16500 119244.000000
8565 15849 1 0.16500 119244.000000
8566 14488 1 0.16500 119244.000000
8566 16660 1 0.16500 119244.000000
8567 14489 1 0.16500 119244.000000
8567 15697 1 0.16500 119244.000000
8568 14490 1 0.16500 119244.000000
8568 15089 1 0.16500 119244.000000
8569 14490 1 0.16500 119244.000000
8569 16402 1 0.16500 119244.000000
8570 14491 1 0.16500 119244.000000
8570 15757 1 0.16500 119244.000000
8571 14491 1 0.16500 119244.000000
8571 17160 1 0.16500 119244.000000
8572 14491 1 0.16500 119244.000000
8572 16331 1 0.16500 119244.000000
8573 14493 1 0.16500 119244.000000
8573 14908 1 0.16500 119244.000000
8574 14493 1 0.16500 119244.000000
8574 16607 1 0.16500 119244.000000
8575 14494 1 0.16500 119244.000000
8575 15782 1 0.16500 119244.000000
8576 14495 1 0.16500 119244.000000
8576 16954 1 0.16500 119244.000000
8577 14495 1 0.16500 119244.000000
8577 16378 1 0.16500 119244.000000
8578 14495 1 0.16500 119244.000000
8578 16992 1 0.16500 119244.000000
8579 14495 1 0.16500 119244.000000
8579 14575 1 0.16500 119244.000000
8580 14496 1 0.16500 119244.000000
8580 16264 1 0.16500 119244.000000
8581 12064 1 0.16500 119244.000000
8581 14496 1 0.16500 119244.000000
8582 14497 1 0.16500 119244.000000
8582 15791 1 0.16500 119244.000000
8583 14498 1 0.16500 119244.000000
8583 16607 1 0.16500 119244.000000
8584 14498 1 0.16500 119244.000000
8584 16088 1 0.16500 119244.000000
8585 11878 1 0.16500 119244.000000
8585 14498 1 0.16500 119244.000000
8586 14499 1 0.16500 119244.000000
8586 15549 1 0.16500 119244.000000
8587 14499 1 0.16500 119244.000000
8587 15761 1 0.16500 119244.000000
8588 14500 1 0.16500 119244.000000
8588 16671 1 0.16500 119244.000000
8589 14500 1 0.16500 119244.000000
8589 16073 1 0.16500 119244.000000
8590 14501 1 0.16500 119244.000000
8590 16167 1 0.16500 119244.000000
8591 14501 1 0.16500 119244.000000
8591 15617 1 0.16500 119244.000000
8592 14501 1 0.16500 119244.000000
8592 15994 1 0.16500 119244.000000
8593 13199 1 0.16500 119244.000000
8593 15087 1 0.16500 119244.000000
8594 14502 1 0.16500 119244.000000
8594 14544 1 0.16500 119244.000000
8595 14502 1 0.16500 119244.000000
8595 16984 1 0.16500 119244.000000
8596 14503 1 0.16500 119244.000000
8596 16225 1 0.16500 119244.000000
8597 14503 1 0.16500 119244.000000
8597 16313 1 0.16500 119244.000000
8598 14503 1 0.16500 119244.000000
8598 16668 1 0.16500 119244.000000
8599 14504 1 0.16500 119244.000000
8599 15559 1 0.16500 119244.000000
8600 14504 1 0.16500 119244.000000
8600 16062 1 0.16500 119244.000000
8601 14504 1 0.16500 119244.000000
8601 14887 1 0.16500 119244.000000
8602 14505 1 0.16500 119244.000000
8602 15246 1 0.16500 119244.000000
8603 14505 1 0.16500 119244.000000
8603 16919 1 0.16500 119244.000000
8604 14507 1 0.16500 119244.000000
8604 15637 1 0.16500 119244.000000
8605 14508 1 0.16500 119244.000000
8605 16970 1 0.16500 119244.000000
8606 14508 1 0.16500 119244.000000
8606 16744 1 0.16500 119244.000000
8607 14508 1 0.16500 119244.000000
8607 17064 1 0.16500 119244.000000
8608 14508 1 0.16500 119244.000000
8608 16415 1 0.16500 119244.000000
8609 14335 1 0.16500 119244.000000
8609 14509 1 0.16500 119244.000000
8610 14510 1 0.16500 119244.000000
8610 16735 1 0.16500 119244.000000
8611 14510 1 0.16500 119244.000000
8611 16447 1 0.16500 119244.000000
8612 12110 1 0.16500 119244.000000
8612 16771 1 0.16500 119244.000000
8613 14511 1 0.16500 119244.000000
8613 16728 1 0.16500 119244.000000
8614 14511 1 0.16500 119244.000000
8614 16447 1 0.16500 119244.000000
8615 14512 1 0.16500 119244.000000
8615 15625 1 0.16500 119244.000000
8616 14512 1 0.16500 119244.000000
8616 15019 1 0.16500 119244.000000
8617 14513 1 0.16500 119244.000000
8617 15690 1 0.16500 119244.000000
8618 14513 1 0.16500 119244.000000
8618 15199 1 0.16500 119244.000000
8619 14514 1 0.16500 119244.000000
8619 16822 1 0.16500 119244.000000
8620 14514 1 0.16500 119244.000000
8620 15536 1 0.16500 119244.000000
8621 16071 1 0.16500 119244.000000
8621 17653 1 0.16500 119244.000000
8622 11778 1 0.16500 119244.000000
8622 15369 1 0.16500 119244.000000
8623 14515 1 0.16500 119244.000000
8623 14940 1 0.16500 119244.000000
8624 14515 1 0.16500 119244.000000
8624 16133 1 0.16500 119244.000000
8625 14516 1 0.16500 119244.000000
8625 16486 1 0.16500 119244.000000
8626 14517 1 0.16500 119244.000000
8626 15572 1 0.16500 119244.000000
8627 14517 1 0.16500 119244.000000
8627 17129 1 0.16500 119244.000000
8628 14517 1 0.16500 119244.000000
8628 14542 1 0.16500 119244.000000
8629 14517 1 0.16500 119244.000000
8629 15664 1 0.16500 119244.000000
8630 14518 1 0.16500 119244.000000
8630 16425 1 0.16500 119244.000000
8631 14519 1 0.16500 119244.000000
8631 14675 1 0.16500 119244.000000
8632 14519 1 0.16500 119244.000000
8632 15028 1 0.16500 119244.000000
8633 14519 1 0.16500 119244.000000
8633 16181 1 0.16500 119244.000000
8634 14520 1 0.16500 119244.000000
8634 16188 1 0.16500 119244.000000
8635 14520 1 0.16500 119244.000000
8635 17695 1 0.16500 119244.000000
8636 14520 1 0.16500 119244.000000
8636 16092 1 0.16500 119244.000000
8637 15384 1 0.16500 119244.000000
8637 15466 1 0.16500 119244.000000
8638 15179 1 0.16500 119244.000000
8638 15466 1 0.16500 119244.000000
8639 14521 1 0.16500 119244.000000
8639 15466 1 0.16500 119244.000000
8640 14522 1 0.16500 119244.000000
8640 16582 1 0.16500 119244.000000
8641 14523 1 0.16500 119244.000000
8641 16003 1 0.16500 119244.000000
8642 14523 1 0.16500 119244.000000
8642 14633 1 0.16500 119244.000000
8643 14524 1 0.16500 119244.000000
8643 15789 1 0.16500 119244.000000
8644 14524 1 0.16500 119244.000000
8644 16035 1 0.16500 119244.000000
8645 14525 1 0.16500 119244.000000
8645 15503 1 0.16500 119244.000000
8646 14525 1 0.16500 119244.000000
8646 15518 1 0.16500 119244.000000
8647 14526 1 0.16500 119244.000000
8647 16698 1 0.16500 119244.000000
8648 14526 1 0.16500 119244.000000
8648 16726 1 0.16500 119244.000000
8649 14527 1 0.16500 119244.000000
8649 15623 1 0.16500 119244.000000
8650 14527 1 0.16500 119244.000000
8650 16261 1 0.16500 119244.000000
8651 14528 1 0.16500 119244.000000
8651 16169 1 0.16500 119244.000000
8652 14529 1 0.16500 119244.000000
8652 14971 1 0.16500 119244.000000
8653 14530 1 0.16500 119244.000000
8653 16464 1 0.16500 119244.000000
8654 14530 1 0.16500 119244.000000
8654 15655 1 0.16500 119244.000000
8655 14531 1 0.16500 119244.000000
8655 15605 1 0.16500 119244.000000
8656 14531 1 0.16500 119244.000000
8656 16714 1 0.16500 119244.000000
8657 14532 1 0.16500 119244.000000
8657 15411 1 0.16500 119244.000000
8658 14532 1 0.16500 119244.000000
8658 15099 1 0.16500 119244.000000
8659 14533 1 0.16500 119244.000000
8659 15742 1 0.16500 119244.000000
8660 14534 1 0.16500 119244.000000
8660 14970 1 0.16500 119244.000000
8661 14534 1 0.16500 119244.000000
8661 16354 1 0.16500 119244.000000
8662 14535 1 0.16500 119244.000000
8662 15543 1 0.16500 119244.000000
8663 14535 1 0.16500 119244.000000
8663 16931 1 0.16500 119244.000000
8664 13348 1 0.16500 119244.000000
8664 14535 1 0.16500 119244.000000
8665 14535 1 0.16500 119244.000000
8665 15063 1 0.16500 119244.000000
8666 14631 1 0.16500 119244.000000
8666 16906 1 0.16500 119244.000000
8667 14631 1 0.16500 119244.000000
8667 15533 1 0.16500 119244.000000
8668 14536 1 0.16500 119244.000000
8668 15885 1 0.16500 119244.000000
8669 14537 1 0.16500 119244.000000
8669 15827 1 0.16500 119244.000000
8670 14538 1 0.16500 119244.000000
8670 17023 1 0.16500 119244.000000
8671 14538 1 0.16500 119244.000000
8671 16908 1 0.16500 119244.000000
8672 14540 1 0.16500 119244.000000
8672 17128 1 0.16500 119244.000000
8673 14541 1 0.16500 119244.000000
8673 15479 1 0.16500 119244.000000
8674 14541 1 0.16500 119244.000000
8674 14610 1 0.16500 119244.000000
8675 11661 1 0.16500 119244.000000
8675 14543 1 0.16500 119244.000000
8676 14543 1 0.16500 119244.000000
8676 16885 1 0.16500 119244.000000
8677 14543 1 0.16500 119244.000000
8677 15978 1 0.16500 119244.000000
8678 14544 1 0.16500 119244.000000
8678 15233 1 0.16500 119244.000000
8679 15689 1 0.16500 119244.000000
8679 16333 1 0.16500 119244.000000
8680 14545 1 0.16500 119244.000000
8680 16333 1 0.16500 119244.000000
8681 14546 1 0.16500 119244.000000
8681 15639 1 0.16500 119244.000000
8682 14546 1 0.16500 119244.000000
8682 15745 1 0.16500 119244.000000
8683 14546 1 0.16500 119244.000000
8683 16420 1 0.16500 119244.000000
8684 14546 1 0.16500 119244.000000
8684 15088 1 0.16500 119244.000000
8685 14547 1 0.16500 119244.000000
8685 15538 1 0.16500 119244.000000
8686 14548 1 0.16500 119244.000000
8686 15212 1 0.16500 119244.000000
8687 14548 1 0.16500 119244.000000
8687 16921 1 0.16500 119244.000000
8688 14549 1 0.16500 119244.000000
8688 17155 1 0.16500 119244.000000
8689 14549 1 0.16500 119244.000000
8689 16243 1 0.16500 119244.000000
8690 14550 1 0.16500 119244.000000
8690 16545 1 0.16500 119244.000000
8691 14551 1 0.16500 119244.000000
8691 16744 1 0.16500 119244.000000
8692 14551 1 0.16500 119244.000000
8692 15110 1 0.16500 119244.000000
8693 14551 1 0.16500 119244.000000
8693 16970 1 0.16500 119244.000000
8694 14551 1 0.16500 119244.000000
8694 16068 1 0.16500 119244.000000
8695 14552 1 0.16500 119244.000000
8695 14913 1 0.16500 119244.000000
8696 14553 1 0.16500 119244.000000
8696 15339 1 0.16500 119244.000000
8697 14554 1 0.16500 119244.000000
8697 17056 1 0.16500 119244.000000
8698 14555 1 0.16500 119244.000000
8698 16555 1 0.16500 119244.000000
8699 14555 1 0.16500 119244.000000
8699 14797 1 0.16500 119244.000000
8700 14556 1 0.16500 119244.000000
8700 16425 1 0.16500 119244.000000
8701 14556 1 0.16500 119244.000000
8701 14908 1 0.16500 119244.000000
8702 14557 1 0.16500 119244.000000
8702 15231 1 0.16500 119244.000000
8703 14557 1 0.16500 119244.000000
8703 15125 1 0.16500 119244.000000
8704 14558 1 0.16500 119244.000000
8704 16031 1 0.16500 119244.000000
8705 14558 1 0.16500 119244.000000
8705 15992 1 0.16500 119244.000000
8706 14559 1 0.16500 119244.000000
8706 16378 1 0.16500 119244.000000
8707 14561 1 0.16500 119244.000000
8707 16190 1 0.16500 119244.000000
8708 14561 1 0.16500 119244.000000
8708 16227 1 0.16500 119244.000000
8709 14561 1 0.16500 119244.000000
8709 16405 1 0.16500 119244.000000
8710 14562 1 0.16500 119244.000000
8710 16118 1 0.16500 119244.000000
8711 14562 1 0.16500 119244.000000
8711 14582 1 0.16500 119244.000000
8712 14563 1 0.16500 119244.000000
8712 16713 1 0.16500 119244.000000
8713 14564 1 0.16500 119244.000000
8713 16293 1 0.16500 119244.000000
8714 14564 1 0.16500 119244.000000
8714 15708 1 0.16500 119244.000000
8715 14565 1 0.16500 119244.000000
8715 17134 1 0.16500 119244.000000
8716 14566 1 0.16500 119244.000000
8716 16396 1 0.16500 119244.000000
8717 14566 1 0.16500 119244.000000
8717 15592 1 0.16500 119244.000000
8718 14566 1 0.16500 119244.000000
8718 16119 1 0.16500 119244.000000
8719 14567 1 0.16500 119244.000000
8719 15660 1 0.16500 119244.000000
8720 14567 1 0.16500 119244.000000
8720 16877 1 0.16500 119244.000000
8721 14568 1 0.16500 119244.000000
8721 14822 1 0.16500 119244.000000
8722 14568 1 0.16500 119244.000000
8722 15725 1 0.16500 119244.000000
8723 14569 1 0.16500 119244.000000
8723 16321 1 0.16500 119244.000000
8724 14569 1 0.16500 119244.000000
8724 15494 1 0.16500 119244.000000
8725 14569 1 0.16500 119244.000000
8725 15225 1 0.16500 119244.000000
8726 14570 1 0.16500 119244.000000
8726 15040 1 0.16500 119244.000000
8727 14570 1 0.16500 119244.000000
8727 15609 1 0.16500 119244.000000
8728 14571 1 0.16500 119244.000000
8728 16193 1 0.16500 119244.000000
8729 11707 1 0.16500 119244.000000
8729 14571 1 0.16500 119244.000000
8730 14571 1 0.16500 119244.000000
8730 16077 1 0.16500 119244.000000
8731 14572 1 0.16500 119244.000000
8731 16781 1 0.16500 119244.000000
8732 14572 1 0.16500 119244.000000
8732 16672 1 0.16500 119244.000000
8733 14573 1 0.16500 119244.000000
8733 15320 1 0.16500 119244.000000
8734 14574 1 0.16500 119244.000000
8734 16897 1 0.16500 119244.000000
8735 13723 1 0.16500 119244.000000
8735 17046 1 0.16500 119244.000000
8736 14575 1 0.16500 119244.000000
8736 16289 1 0.16500 119244.000000
8737 14576 1 0.16500 119244.000000
8737 14795 1 0.16500 119244.000000
8738 14577 1 0.16500 119244.000000
8738 16989 1 0.16500 119244.000000
8739 14577 1 0.16500 119244.000000
8739 17059 1 0.16500 119244.000000
8740 14577 1 0.16500 119244.000000
8740 16498 1 0.16500 119244.000000
8741 14578 1 0.16500 119244.000000
8741 15626 1 0.16500 119244.000000
8742 14579 1 0.16500 119244.000000
8742 16131 1 0.16500 119244.000000
8743 14579 1 0.16500 119244.000000
8743 15894 1 0.16500 119244.000000
8744 14580 1 0.16500 119244.000000
8744 15061 1 0.16500 119244.000000
8745 14580 1 0.16500 119244.000000
8745 16674 1 0.16500 119244.000000
8746 14581 1 0.16500 119244.000000
8746 16204 1 0.16500 119244.000000
8747 14583 1 0.16500 119244.000000
8747 14600 1 0.16500 119244.000000
8748 14583 1 0.16500 119244.000000
8748 15553 1 0.16500 119244.000000
8749 14583 1 0.16500 119244.000000
8749 15961 1 0.16500 119244.000000
8750 14584 1 0.16500 119244.000000
8750 16219 1 0.16500 119244.000000
8751 14585 1 0.16500 119244.000000
8751 15553 1 0.16500 119244.000000
8752 14586 1 0.16500 119244.000000
8752 14589 1 0.16500 119244.000000
8753 14586 1 0.16500 119244.000000
8753 14806 1 0.16500 119244.000000
8754 14587 1 0.16500 119244.000000
8754 15766 1 0.16500 119244.000000
8755 14587 1 0.16500 119244.000000
8755 14685 1 0.16500 119244.000000
8756 14587 1 0.16500 119244.000000
8756 16657 1 0.16500 119244.000000
8757 14589 1 0.16500 119244.000000
8757 16408 1 0.16500 119244.000000
8758 14590 1 0.16500 119244.000000
8758 15827 1 0.16500 119244.000000
8759 14590 1 0.16500 119244.000000
8759 15497 1 0.16500 119244.000000
8760 14592 1 0.16500 119244.000000
8760 17962 1 0.16500 119244.000000
8761 14592 1 0.16500 119244.000000
8761 16325 1 0.16500 119244.000000
8762 14593 1 0.16500 119244.000000
8762 16113 1 0.16500 119244.000000
8763 14594 1 0.16500 119244.000000
8763 15615 1 0.16500 119244.000000
8764 14595 1 0.16500 119244.000000
8764 14601 1 0.16500 119244.000000
8765 14595 1 0.16500 119244.000000
8765 14831 1 0.16500 119244.000000
8766 14597 1 0.16500 119244.000000
8766 15053 1 0.16500 119244.000000
8767 14597 1 0.16500 119244.000000
8767 16445 1 0.16500 119244.000000
8768 14598 1 0.16500 119244.000000
8768 15135 1 0.16500 119244.000000
8769 14598 1 0.16500 119244.000000
8769 16358 1 0.16500 119244.000000
8770 14599 1 0.16500 119244.000000
8770 15799 1 0.16500 119244.000000
8771 14599 1 0.16500 119244.000000
8771 16020 1 0.16500 119244.000000
8772 14601 1 0.16500 119244.000000
8772 16896 1 0.16500 119244.000000
8773 14602 1 0.16500 119244.000000
8773 16687 1 0.16500 119244.000000
8774 14602 1 0.16500 119244.000000
8774 15024 1 0.16500 119244.000000
8775 14603 1 0.16500 119244.000000
8775 15917 1 0.16500 119244.000000
8776 14603 1 0.16500 119244.000000
8776 15622 1 0.16500 119244.000000
8777 14604 1 0.16500 119244.000000
8777 14849 1 0.16500 119244.000000
8778 14605 1 0.16500 119244.000000
8778 15760 1 0.16500 119244.000000
8779 14605 1 0.16500 119244.000000
8779 14909 1 0.16500 119244.000000
8780 14606 1 0.16500 119244.000000
8780 16365 1 0.16500 119244.000000
8781 14606 1 0.16500 119244.000000
8781 16077 1 0.16500 119244.000000
8782 14606 1 0.16500 119244.000000
8782 15430 1 0.16500 119244.000000
8783 14607 1 0.16500 119244.000000
8783 17103 1 0.16500 119244.000000
8784 14607 1 0.16500 119244.000000
8784 15055 1 0.16500 119244.000000
8785 14608 1 0.16500 119244.000000
8785 15825 1 0.16500 119244.000000
8786 14609 1 0.16500 119244.000000
8786 15641 1 0.16500 119244.000000
8787 14609 1 0.16500 119244.000000
8787 16200 1 0.16500 119244.000000
8788 14610 1 0.16500 119244.000000
8788 15401 1 0.16500 119244.000000
8789 14610 1 0.16500 119244.000000
8789 16085 1 0.16500 119244.000000
8790 14611 1 0.16500 119244.000000
8790 15282 1 0.16500 119244.000000
8791 14611 1 0.16500 119244.000000
8791 15785 1 0.16500 119244.000000
8792 14611 1 0.16500 119244.000000
8792 15105 1 0.16500 119244.000000
8793 14612 1 0.16500 119244.000000
8793 15318 1 0.16500 119244.000000
8794 14612 1 0.16500 119244.000000
8794 16172 1 0.16500 119244.000000
8795 14613 1 0.16500 119244.000000
8795 15273 1 0.16500 119244.000000
8796 14614 1 0.16500 119244.000000
8796 14891 1 0.16500 119244.000000
8797 14614 1 0.16500 119244.000000
8797 14963 1 0.16500 119244.000000
8798 14615 1 0.16500 119244.000000
8798 15354 1 0.16500 119244.000000
8799 14615 1 0.16500 119244.000000
8799 16397 1 0.16500 119244.000000
8800 14616 1 0.16500 119244.000000
8800 16155 1 0.16500 119244.000000
8801 14081 1 0.16500 119244.000000
8801 14616 1 0.16500 119244.000000
8802 14616 1 0.16500 119244.000000
8802 15426 1 0.16500 119244.000000
8803 14617 1 0.16500 119244.000000
8803 16635 1 0.16500 119244.000000
8804 14617 1 0.16500 119244.000000
8804 14620 1 0.16500 119244.000000
8805 14618 1 0.16500 119244.000000
8805 15238 1 0.16500 119244.000000
8806 14618 1 0.16500 119244.000000
8806 14754 1 0.16500 119244.000000
8807 14618 1 0.16500 119244.000000
8807 16521 1 0.16500 119244.000000
8808 14619 1 0.16500 119244.000000
8808 15735 1 0.16500 119244.000000
8809 14620 1 0.16500 119244.000000
8809 16784 1 0.16500 119244.000000
8810 14620 1 0.16500 119244.000000
8810 15010 1 0.16500 119244.000000
8811 14620 1 0.16500 119244.000000
8811 16145 1 0.16500 119244.000000
8812 14621 1 0.16500 119244.000000
8812 16775 1 0.16500 119244.000000
8813 14622 1 0.16500 119244.000000
8813 15438 1 0.16500 119244.000000
8814 14623 1 0.16500 119244.000000
8814 15447 1 0.16500 119244.000000
8815 13012 1 0.16500 119244.000000
8815 16456 1 0.16500 119244.000000
8816 14624 1 0.16500 119244.000000
8816 15291 1 0.16500 119244.000000
8817 14625 1 0.16500 119244.000000
8817 16788 1 0.16500 119244.000000
8818 14626 1 0.16500 119244.000000
8818 16510 1 0.16500 119244.000000
8819 14626 1 0.16500 119244.000000
8819 16964 1 0.16500 119244.000000
8820 14627 1 0.16500 119244.000000
8820 16824 1 0.16500 119244.000000
8821 14628 1 0.16500 119244.000000
8821 16495 1 0.16500 119244.000000
8822 17893 1 0.16500 119244.000000
8822 18094 1 0.16500 119244.000000
8823 14629 1 0.16500 119244.000000
8823 15071 1 0.16500 119244.000000
8824 14629 1 0.16500 119244.000000
8824 16589 1 0.16500 119244.000000
8825 14630 1 0.16500 119244.000000
8825 15736 1 0.16500 119244.000000
8826 16300 1 0.16500 119244.000000
8826 16906 1 0.16500 119244.000000
8827 14635 1 0.16500 119244.000000
8827 14735 1 0.16500 119244.000000
8828 14635 1 0.16500 119244.000000
8828 15327 1 0.16500 119244.000000
8829 14441 1 0.16500 119244.000000
8829 14635 1 0.16500 119244.000000
8830 14636 1 0.16500 119244.000000
8830 16330 1 0.16500 119244.000000
8831 14637 1 0.16500 119244.000000
8831 16483 1 0.16500 119244.000000
8832 14637 1 0.16500 119244.000000
8832 16169 1 0.16500 119244.000000
8833 14637 1 0.16500 119244.000000
8833 15491 1 0.16500 119244.000000
8834 14637 1 0.16500 119244.000000
8834 15166 1 0.16500 119244.000000
8835 14638 1 0.16500 119244.000000
8835 14899 1 0.16500 119244.000000
8836 14639 1 0.16500 119244.000000
8836 16013 1 0.16500 119244.000000
8837 14640 1 0.16500 119244.000000
8837 15382 1 0.16500 119244.000000
8838 14641 1 0.16500 119244.000000
8838 15512 1 0.16500 119244.000000
8839 14641 1 0.16500 119244.000000
8839 15856 1 0.16500 119244.000000
8840 14641 1 0.16500 119244.000000
8840 16447 1 0.16500 119244.000000
8841 14642 1 0.16500 119244.000000
8841 18134 1 0.16500 119244.000000
8842 14642 1 0.16500 119244.000000
8842 15024 1 0.16500 119244.000000
8843 14643 1 0.16500 119244.000000
8843 16661 1 0.16500 119244.000000
8844 14643 1 0.16500 119244.000000
8844 15733 1 0.16500 119244.000000
8845 14644 1 0.16500 119244.000000
8845 16863 1 0.16500 119244.000000
8846 14644 1 0.16500 119244.000000
8846 16842 1 0.16500 119244.000000
8847 14645 1 0.16500 119244.000000
8847 15861 1 0.16500 119244.000000
8848 13456 1 0.16500 119244.000000
8848 15284 1 0.16500 119244.000000
8849 14646 1 0.16500 119244.000000
8849 15824 1 0.16500 119244.000000
8850 14647 1 0.16500 119244.000000
8850 17112 1 0.16500 119244.000000
8851 17659 1 0.16500 119244.000000
8851 17875 1 0.16500 119244.000000
8852 14649 1 0.16500 119244.000000
8852 15391 1 0.16500 119244.000000
8853 14649 1 0.16500 119244.000000
8853 15641 1 0.16500 119244.000000
8854 14649 1 0.16500 119244.000000
8854 16849 1 0.16500 119244.000000
8855 13264 1 0.16500 119244.000000
8855 17074 1 0.16500 119244.000000
8856 14651 1 0.16500 119244.000000
8856 15117 1 0.16500 119244.000000
8857 14651 1 0.16500 119244.000000
8857 14916 1 0.16500 119244.000000
8858 14652 1 0.16500 119244.000000
8858 16369 1 0.16500 119244.000000
8859 14652 1 0.16500 119244.000000
8859 15946 1 0.16500 119244.000000
8860 14652 1 0.16500 119244.000000
8860 16856 1 0.16500 119244.000000
8861 14653 1 0.16500 119244.000000
8861 16736 1 0.16500 119244.000000
8862 14653 1 0.16500 119244.000000
8862 15098 1 0.16500 119244.000000
8863 14653 1 0.16500 119244.000000
8863 15626 1 0.16500 119244.000000
8864 14654 1 0.16500 119244.000000
8864 16813 1 0.16500 119244.000000
8865 14654 1 0.16500 119244.000000
8865 18129 1 0.16500 119244.000000
8866 14655 1 0.16500 119244.000000
8866 15360 1 0.16500 119244.000000
8867 14655 1 0.16500 119244.000000
8867 16917 1 0.16500 119244.000000
8868 14656 1 0.16500 119244.000000
8868 14915 1 0.16500 119244.000000
8869 11819 1 0.16500 119244.000000
8869 16373 1 0.16500 119244.000000
8870 14657 1 0.16500 119244.000000
8870 16803 1 0.16500 119244.000000
8871 14657 1 0.16500 119244.000000
8871 14814 1 0.16500 119244.000000
8872 14659 1 0.16500 119244.000000
8872 15622 1 0.16500 119244.000000
8873 14660 1 0.16500 119244.000000
8873 15405 1 0.16500 119244.000000
8874 14660 1 0.16500 119244.000000
8874 16027 1 0.16500 119244.000000
8875 14660 1 0.16500 119244.000000
8875 15296 1 0.16500 119244.000000
8876 14661 1 0.16500 119244.000000
8876 15361 1 0.16500 119244.000000
8877 14662 1 0.16500 119244.000000
8877 15599 1 0.16500 119244.000000
8878 14663 1 0.16500 119244.000000
8878 15079 1 0.16500 119244.000000
8879 14663 1 0.16500 119244.000000
8879 16277 1 0.16500 119244.000000
8880 14664 1 0.16500 119244.000000
8880 15664 1 0.16500 119244.000000
8881 14665 1 0.16500 119244.000000
8881 15590 1 0.16500 119244.000000
8882 14665 1 0.16500 119244.000000
8882 16745 1 0.16500 119244.000000
8883 14666 1 0.16500 119244.000000
8883 15867 1 0.16500 119244.000000
8884 14667 1 0.16500 119244.000000
8884 16275 1 0.16500 119244.000000
8885 14667 1 0.16500 119244.000000
8885 16127 1 0.16500 119244.000000
8886 14668 1 0.16500 119244.000000
8886 14995 1 0.16500 119244.000000
8887 14668 1 0.16500 119244.000000
8887 16343 1 0.16500 119244.000000
8888 14670 1 0.16500 119244.000000
8888 16604 1 0.16500 119244.000000
8889 14670 1 0.16500 119244.000000
8889 16583 1 0.16500 119244.000000
8890 14670 1 0.16500 119244.000000
8890 14907 1 0.16500 119244.000000
8891 14671 1 0.16500 119244.000000
8891 14920 1 0.16500 119244.000000
8892 14671 1 0.16500 119244.000000
8892 16013 1 0.16500 119244.000000
8893 13764 1 0.16500 119244.000000
8893 14672 1 0.16500 119244.000000
8894 12421 1 0.16500 119244.000000
8894 16561 1 0.16500 119244.000000
8895 14673 1 0.16500 119244.000000
8895 16913 1 0.16500 119244.000000
8896 14674 1 0.16500 119244.000000
8896 15325 1 0.16500 119244.000000
8897 14674 1 0.16500 119244.000000
8897 15339 1 0.16500 119244.000000
8898 14674 1 0.16500 119244.000000
8898 15586 1 0.16500 119244.000000
8899 14675 1 0.16500 119244.000000
8899 15075 1 0.16500 119244.000000
8900 14676 1 0.16500 119244.000000
8900 16912 1 0.16500 119244.000000
8901 14676 1 0.16500 119244.000000
8901 16324 1 0.16500 119244.000000
8902 14677 1 0.16500 119244.000000
8902 16599 1 0.16500 119244.000000
8903 14677 1 0.16500 119244.000000
8903 16708 1 0.16500 119244.000000
8904 14678 1 0.16500 119244.000000
8904 16988 1 0.16500 119244.000000
8905 14678 1 0.16500 119244.000000
8905 17138 1 0.16500 119244.000000
8906 14678 1 0.16500 119244.000000
8906 15594 1 0.16500 119244.000000
8907 14679 1 0.16500 119244.000000
8907 16559 1 0.16500 119244.000000
8908 14680 1 0.16500 119244.000000
8908 15515 1 0.16500 119244.000000
8909 14682 1 0.16500 119244.000000
8909 15412 1 0.16500 119244.000000
8910 14682 1 0.16500 119244.000000
8910 15117 1 0.16500 119244.000000
8911 14683 1 0.16500 119244.000000
8911 16380 1 0.16500 119244.000000
8912 14683 1 0.16500 119244.000000
8912 15227 1 0.16500 119244.000000
8913 14684 1 0.16500 119244.000000
8913 14763 1 0.16500 119244.000000
8914 14685 1 0.16500 119244.000000
8914 15112 1 0.16500 119244.000000
8915 14685 1 0.16500 119244.000000
8915 15161 1 0.16500 119244.000000
8916 13587 1 0.16500 119244.000000
8916 18099 1 0.16500 119244.000000
8917 14686 1 0.16500 119244.000000
8917 16024 1 0.16500 119244.000000
8918 14687 1 0.16500 119244.000000
8918 15392 1 0.16500 119244.000000
8919 14687 1 0.16500 119244.000000
8919 15226 1 0.16500 119244.000000
8920 14687 1 0.16500 119244.000000
8920 15775 1 0.16500 119244.000000
8921 14688 1 0.16500 119244.000000
8921 16669 1 0.16500 119244.000000
8922 14688 1 0.16500 119244.000000
8922 16709 1 0.16500 119244.000000
8923 14689 1 0.16500 119244.000000
8923 17182 1 0.16500 119244.000000
8924 14691 1 0.16500 119244.000000
8924 15676 1 0.16500 119244.000000
8925 14691 1 0.16500 119244.000000
8925 17097 1 0.16500 119244.000000
8926 14691 1 0.16500 119244.000000
8926 15579 1 0.16500 119244.000000
8927 14692 1 0.16500 119244.000000
8927 16980 1 0.16500 119244.000000
8928 15473 1 0.16500 119244.000000
8928 17665 1 0.16500 119244.000000
8929 14693 1 0.16500 119244.000000
8929 16904 1 0.16500 119244.000000
8930 14694 1 0.16500 119244.000000
8930 17118 1 0.16500 119244.000000
8931 14694 1 0.16500 119244.000000
8931 16952 1 0.16500 119244.000000
8932 14694 1 0.16500 119244.000000
8932 16313 1 0.16500 119244.000000
8933 14694 1 0.16500 119244.000000
8933 16593 1 0.16500 119244.000000
8934 14695 1 0.16500 119244.000000
8934 16765 1 0.16500 119244.000000
8935 14695 1 0.16500 119244.000000
8935 15979 1 0.16500 119244.000000
8936 14696 1 0.16500 119244.000000
8936 15469 1 0.16500 119244.000000
8937 14697 1 0.16500 119244.000000
8937 15464 1 0.16500 119244.000000
8938 14697 1 0.16500 119244.000000
8938 16041 1 0.16500 119244.000000
8939 14236 1 0.16500 119244.000000
8939 14698 1 0.16500 119244.000000
8940 14699 1 0.16500 119244.000000
8940 16896 1 0.16500 119244.000000
8941 14700 1 0.16500 119244.000000
8941 14745 1 0.16500 119244.000000
8942 15604 1 0.16500 119244.000000
8942 17668 1 0.16500 119244.000000
8943 14701 1 0.16500 119244.000000
8943 16625 1 0.16500 119244.000000
8944 14701 1 0.16500 119244.000000
8944 15304 1 0.16500 119244.000000
8945 14701 1 0.16500 119244.000000
8945 16845 1 0.16500 119244.000000
8946 14701 1 0.16500 119244.000000
8946 17092 1 0.16500 119244.000000
8947 14702 1 0.16500 119244.000000
8947 16722 1 0.16500 119244.000000
8948 14702 1 0.16500 119244.000000
8948 14944 1 0.16500 119244.000000
8949 14703 1 0.16500 119244.000000
8949 17080 1 0.16500 119244.000000
8950 14703 1 0.16500 119244.000000
8950 15753 1 0.16500 119244.000000
8951 14703 1 0.16500 119244.000000
8951 15950 1 0.16500 119244.000000
8952 14703 1 0.16500 119244.000000
8952 17140 1 0.16500 119244.000000
8953 14704 1 0.16500 119244.000000
8953 15956 1 0.16500 119244.000000
8954 14705 1 0.16500 119244.000000
8954 16822 1 0.16500 119244.000000
8955 14705 1 0.16500 119244.000000
8955 15529 1 0.16500 119244.000000
8956 14705 1 0.16500 119244.000000
8956 15235 1 0.16500 119244.000000
8957 14706 1 0.16500 119244.000000
8957 15021 1 0.16500 119244.000000
8958 14706 1 0.16500 119244.000000
8958 17190 1 0.16500 119244.000000
8959 14706 1 0.16500 119244.000000
8959 15936 1 0.16500 119244.000000
8960 14708 1 0.16500 119244.000000
8960 14713 1 0.16500 119244.000000
8961 14709 1 0.16500 119244.000000
8961 17914 1 0.16500 119244.000000
8962 14710 1 0.16500 119244.000000
8962 15801 1 0.16500 119244.000000
8963 14711 1 0.16500 119244.000000
8963 17179 1 0.16500 119244.000000
8964 14712 1 0.16500 119244.000000
8964 15944 1 0.16500 119244.000000
8965 14712 1 0.16500 119244.000000
8965 17103 1 0.16500 119244.000000
8966 14712 1 0.16500 119244.000000
8966 16876 1 0.16500 119244.000000
8967 14713 1 0.16500 119244.000000
8967 16377 1 0.16500 119244.000000
8968 14714 1 0.16500 119244.000000
8968 16176 1 0.16500 119244.000000
8969 14714 1 0.16500 119244.000000
8969 16135 1 0.16500 119244.000000
8970 12438 1 0.16500 119244.000000
8970 16736 1 0.16500 119244.000000
8971 14716 1 0.16500 119244.000000
8971 17174 1 0.16500 119244.000000
8972 14716 1 0.16500 119244.000000
8972 15873 1 0.16500 119244.000000
8973 14716 1 0.16500 119244.000000
8973 15095 1 0.16500 119244.000000
8974 14717 1 0.16500 119244.000000
8974 15190 1 0.16500 119244.000000
8975 16785 1 0.16500 119244.000000
8975 17671 1 0.16500 119244.000000
8976 12358 1 0.16500 119244.000000
8976 14937 1 0.16500 119244.000000
8977 14718 1 0.16500 119244.000000
8977 16491 1 0.16500 119244.000000
8978 14718 1 0.16500 119244.000000
8978 15449 1 0.16500 119244.000000
8979 14719 1 0.16500 119244.000000
8979 16953 1 0.16500 119244.000000
8980 14719 1 0.16500 119244.000000
8980 15366 1 0.16500 119244.000000
8981 14719 1 0.16500 119244.000000
8981 15805 1 0.16500 119244.000000
8982 14720 1 0.16500 119244.000000
8982 16199 1 0.16500 119244.000000
8983 14720 1 0.16500 119244.000000
8983 15506 1 0.16500 119244.000000
8984 14721 1 0.16500 119244.000000
8984 16908 1 0.16500 119244.000000
8985 14721 1 0.16500 119244.000000
8985 15573 1 0.16500 119244.000000
8986 11945 1 0.16500 119244.000000
8986 15707 1 0.16500 119244.000000
8987 14723 1 0.16500 119244.000000
8987 17177 1 0.16500 119244.000000
8988 14723 1 0.16500 119244.000000
8988 16638 1 0.16500 119244.000000
8989 14723 1 0.16500 119244.000000
8989 14928 1 0.16500 119244.000000
8990 16679 1 0.16500 119244.000000
8990 17674 1 0.16500 119244.000000
8991 14725 1 0.16500 119244.000000
8991 16091 1 0.16500 119244.000000
8992 14725 1 0.16500 119244.000000
8992 16684 1 0.16500 119244.000000
8993 14726 1 0.16500 119244.000000
8993 16503 1 0.16500 119244.000000
8994 14726 1 0.16500 119244.000000
8994 17014 1 0.16500 119244.000000
8995 14727 1 0.16500 119244.000000
8995 15696 1 0.16500 119244.000000
8996 14729 1 0.16500 119244.000000
8996 17053 1 0.16500 119244.000000
8997 14729 1 0.16500 119244.000000
8997 15123 1 0.16500 119244.000000
8998 14355 1 0.16500 119244.000000
8998 16269 1 0.16500 119244.000000
8999 14731 1 0.16500 119244.000000
8999 15560 1 0.16500 119244.000000
9000 14731 1 0.16500 119244.000000
9000 15092 1 0.16500 119244.000000
9001 12180 1 0.16500 119244.000000
9001 17075 1 0.16500 119244.000000
9002 14732 1 0.16500 119244.000000
9002 16860 1 0.16500 119244.000000
9003 14732 1 0.16500 119244.000000
9003 16141 1 0.16500 119244.000000
9004 14732 1 0.16500 119244.000000
9004 16302 1 0.16500 119244.000000
9005 14733 1 0.16500 119244.000000
9005 16063 1 0.16500 119244.000000
9006 14734 1 0.16500 119244.000000
9006 15093 1 0.16500 119244.000000
9007 14734 1 0.16500 119244.000000
9007 17139 1 0.16500 119244.000000
9008 14734 1 0.16500 119244.000000
9008 16951 1 0.16500 119244.000000
9009 14735 1 0.16500 119244.000000
9009 16828 1 0.16500 119244.000000
9010 12114 1 0.16500 119244.000000
9010 17677 1 0.16500 119244.000000
9011 14736 1 0.16500 119244.000000
9011 17803 1 0.16500 119244.000000
9012 14736 1 0.16500 119244.000000
9012 14884 1 0.16500 119244.000000
9013 14737 1 0.16500 119244.000000
9013 16458 1 0.16500 119244.000000
9014 14737 1 0.16500 119244.000000
9014 15925 1 0.16500 119244.000000
9015 14738 1 0.16500 119244.000000
9015 15066 1 0.16500 119244.000000
9016 15066 1 0.16500 119244.000000
9016 15705 1 0.16500 119244.000000
9017 14738 1 0.16500 119244.000000
9017 16976 1 0.16500 119244.000000
9018 14739 1 0.16500 119244.000000
9018 16258 1 0.16500 119244.000000
9019 14740 1 0.16500 119244.000000
9019 14802 1 0.16500 119244.000000
9020 12303 1 0.16500 119244.000000
9020 14741 1 0.16500 119244.000000
9021 14741 1 0.16500 119244.000000
9021 16621 1 0.16500 119244.000000
9022 14742 1 0.16500 119244.000000
9022 15755 1 0.16500 119244.000000
9023 14742 1 0.16500 119244.000000
9023 16513 1 0.16500 119244.000000
9024 14743 1 0.16500 119244.000000
9024 15591 1 0.16500 119244.000000
9025 14743 1 0.16500 119244.000000
9025 16563 1 0.16500 119244.000000
9026 14744 1 0.16500 119244.000000
9026 16509 1 0.16500 119244.000000
9027 14744 1 0.16500 119244.000000
9027 16180 1 0.16500 119244.000000
9028 14744 1 0.16500 119244.000000
9028 15997 1 0.16500 119244.000000
9029 14745 1 0.16500 119244.000000
9029 17761 1 0.16500 119244.000000
9030 14745 1 0.16500 119244.000000
9030 15161 1 0.16500 119244.000000
9031 14746 1 0.16500 119244.000000
9031 15899 1 0.16500 119244.000000
9032 14746 1 0.16500 119244.000000
9032 17734 1 0.16500 119244.000000
9033 13894 1 0.16500 119244.000000
9033 14746 1 0.16500 119244.000000
9034 14747 1 0.16500 119244.000000
9034 15100 1 0.16500 119244.000000
9035 14748 1 0.16500 119244.000000
9035 15620 1 0.16500 119244.000000
9036 14750 1 0.16500 119244.000000
9036 16659 1 0.16500 119244.000000
9037 14750 1 0.16500 119244.000000
9037 15178 1 0.16500 119244.000000
9038 14751 1 0.16500 119244.000000
9038 16115 1 0.16500 119244.000000
9039 14751 1 0.16500 119244.000000
9039 15521 1 0.16500 119244.000000
9040 14752 1 0.16500 119244.000000
9040 15858 1 0.16500 119244.000000
9041 15681 1 0.16500 119244.000000
9041 16392 1 0.16500 119244.000000
9042 14752 1 0.16500 119244.000000
9042 16392 1 0.16500 119244.000000
9043 14752 1 0.16500 119244.000000
9043 16013 1 0.16500 119244.000000
9044 14753 1 0.16500 119244.000000
9044 15220 1 0.16500 119244.000000
9045 14754 1 0.16500 119244.000000
9045 16238 1 0.16500 119244.000000
9046 14755 1 0.16500 119244.000000
9046 15547 1 0.16500 119244.000000
9047 14755 1 0.16500 119244.000000
9047 16387 1 0.16500 119244.000000
9048 14756 1 0.16500 119244.000000
9048 17881 1 0.16500 119244.000000
9049 14757 1 0.16500 119244.000000
9049 15729 1 0.16500 119244.000000
9050 14757 1 0.16500 119244.000000
9050 16738 1 0.16500 119244.000000
9051 14758 1 0.16500 119244.000000
9051 15348 1 0.16500 119244.000000
9052 14758 1 0.16500 119244.000000
9052 17106 1 0.16500 119244.000000
9053 14759 1 0.16500 119244.000000
9053 15751 1 0.16500 119244.000000
9054 14935 1 0.16500 119244.000000
9054 17680 1 0.16500 119244.000000
9055 16666 1 0.16500 119244.000000
9055 17680 1 0.16500 119244.000000
9056 12897 1 0.16500 119244.000000
9056 14761 1 0.16500 119244.000000
9057 14762 1 0.16500 119244.000000
9057 15025 1 0.16500 119244.000000
9058 14762 1 0.16500 119244.000000
9058 16865 1 0.16500 119244.000000
9059 14762 1 0.16500 119244.000000
9059 15180 1 0.16500 119244.000000
9060 14763 1 0.16500 119244.000000
9060 14786 1 0.16500 119244.000000
9061 13807 1 0.16500 119244.000000
9061 15519 1 0.16500 119244.000000
9062 12732 1 0.16500 119244.000000
9062 14764 1 0.16500 119244.000000
9063 14764 1 0.16500 119244.000000
9063 14879 1 0.16500 119244.000000
9064 14764 1 0.16500 119244.000000
9064 16770 1 0.16500 119244.000000
9065 14765 1 0.16500 119244.000000
9065 15249 1 0.16500 119244.000000
9066 14766 1 0.16500 119244.000000
9066 16471 1 0.16500 119244.000000
9067 14767 1 0.16500 119244.000000
9067 15480 1 0.16500 119244.000000
9068 14768 1 0.16500 119244.000000
9068 15784 1 0.16500 119244.000000
9069 15301 1 0.16500 119244.000000
9069 15784 1 0.16500 119244.000000
9070 14769 1 0.16500 119244.000000
9070 17091 1 0.16500 119244.000000
9071 14769 1 0.16500 119244.000000
9071 15476 1 0.16500 119244.000000
9072 14770 1 0.16500 119244.000000
9072 15913 1 0.16500 119244.000000
9073 12963 1 0.16500 119244.000000
9073 15714 1 0.16500 119244.000000
9074 14771 1 0.16500 119244.000000
9074 16416 1 0.16500 119244.000000
9075 14771 1 0.16500 119244.000000
9075 15367 1 0.16500 119244.000000
9076 14772 1 0.16500 119244.000000
9076 15860 1 0.16500 119244.000000
9077 14772 1 0.16500 119244.000000
9077 15983 1 0.16500 119244.000000
9078 14772 1 0.16500 119244.000000
9078 17148 1 0.16500 119244.000000
9079 14772 1 0.16500 119244.000000
9079 16724 1 0.16500 119244.000000
9080 14773 1 0.16500 119244.000000
9080 17197 1 0.16500 119244.000000
9081 14773 1 0.16500 119244.000000
9081 14780 1 0.16500 119244.000000
9082 15336 1 0.16500 119244.000000
9082 16350 1 0.16500 119244.000000
9083 14773 1 0.16500 119244.000000
9083 16350 1 0.16500 119244.000000
9084 14774 1 0.16500 119244.000000
9084 14818 1 0.16500 119244.000000
9085 13519 1 0.16500 119244.000000
9085 14915 1 0.16500 119244.000000
9086 14776 1 0.16500 119244.000000
9086 15638 1 0.16500 119244.000000
9087 14777 1 0.16500 119244.000000
9087 16154 1 0.16500 119244.000000
9088 17041 1 0.16500 119244.000000
9088 17683 1 0.16500 119244.000000
9089 15800 1 0.16500 119244.000000
9089 17683 1 0.16500 119244.000000
9090 17683 1 0.16500 119244.000000
9090 17698 1 0.16500 119244.000000
9091 14778 1 0.16500 119244.000000
9091 15296 1 0.16500 119244.000000
9092 14778 1 0.16500 119244.000000
9092 15505 1 0.16500 119244.000000
9093 14778 1 0.16500 119244.000000
9093 14779 1 0.16500 119244.000000
9094 14779 1 0.16500 119244.000000
9094 14994 1 0.16500 119244.000000
9095 14779 1 0.16500 119244.000000
9095 17198 1 0.16500 119244.000000
9096 14780 1 0.16500 119244.000000
9096 16849 1 0.16500 119244.000000
9097 14780 1 0.16500 119244.000000
9097 15478 1 0.16500 119244.000000
9098 12234 1 0.16500 119244.000000
9098 18104 1 0.16500 119244.000000
9099 14781 1 0.16500 119244.000000
9099 16740 1 0.16500 119244.000000
9100 14781 1 0.16500 119244.000000
9100 16928 1 0.16500 119244.000000
9101 14782 1 0.16500 119244.000000
9101 16654 1 0.16500 119244.000000
9102 14782 1 0.16500 119244.000000
9102 15002 1 0.16500 119244.000000
9103 14783 1 0.16500 119244.000000
9103 16395 1 0.16500 119244.000000
9104 14783 1 0.16500 119244.000000
9104 16370 1 0.16500 119244.000000
9105 14784 1 0.16500 119244.000000
9105 15661 1 0.16500 119244.000000
9106 14784 1 0.16500 119244.000000
9106 16777 1 0.16500 119244.000000
9107 14784 1 0.16500 119244.000000
9107 14793 1 0.16500 119244.000000
9108 14785 1 0.16500 119244.000000
9108 16642 1 0.16500 119244.000000
9109 14786 1 0.16500 119244.000000
9109 16496 1 0.16500 119244.000000
9110 14787 1 0.16500 119244.000000
9110 14816 1 0.16500 119244.000000
9111 14088 1 0.16500 119244.000000
9111 16637 1 0.16500 119244.000000
9112 14787 1 0.16500 119244.000000
9112 16160 1 0.16500 119244.000000
9113 14788 1 0.16500 119244.000000
9113 16464 1 0.16500 119244.000000
9114 14789 1 0.16500 119244.000000
9114 15560 1 0.16500 119244.000000
9115 14789 1 0.16500 119244.000000
9115 15417 1 0.16500 119244.000000
9116 14789 1 0.16500 119244.000000
9116 15888 1 0.16500 119244.000000
9117 14790 1 0.16500 119244.000000
9117 16776 1 0.16500 119244.000000
9118 14790 1 0.16500 119244.000000
9118 15823 1 0.16500 119244.000000
9119 15316 1 0.16500 119244.000000
9119 15823 1 0.16500 119244.000000
9120 14790 1 0.16500 119244.000000
9120 16612 1 0.16500 119244.000000
9121 14791 1 0.16500 119244.000000
9121 16483 1 0.16500 119244.000000
9122 14791 1 0.16500 119244.000000
9122 16409 1 0.16500 119244.000000
9123 14792 1 0.16500 119244.000000
9123 17022 1 0.16500 119244.000000
9124 14792 1 0.16500 119244.000000
9124 15878 1 0.16500 119244.000000
9125 14792 1 0.16500 119244.000000
9125 16767 1 0.16500 119244.000000
9126 16362 1 0.16500 119244.000000
9126 16767 1 0.16500 119244.000000
9127 14793 1 0.16500 119244.000000
9127 17091 1 0.16500 119244.000000
9128 13126 1 0.16500 119244.000000
9128 14793 1 0.16500 119244.000000
9129 14795 1 0.16500 119244.000000
9129 15258 1 0.16500 119244.000000
9130 13817 1 0.16500 119244.000000
9130 14796 1 0.16500 119244.000000
9131 14796 1 0.16500 119244.000000
9131 15152 1 0.16500 119244.000000
9132 14796 1 0.16500 119244.000000
9132 15744 1 0.16500 119244.000000
9133 14796 1 0.16500 119244.000000
9133 17141 1 0.16500 119244.000000
9134 12518 1 0.16500 119244.000000
9134 16639 1 0.16500 119244.000000
9135 14799 1 0.16500 119244.000000
9135 16873 1 0.16500 119244.000000
9136 14799 1 0.16500 119244.000000
9136 15884 1 0.16500 119244.000000
9137 14800 1 0.16500 119244.000000
9137 15117 1 0.16500 119244.000000
9138 14800 1 0.16500 119244.000000
9138 14921 1 0.16500 119244.000000
9139 16773 1 0.16500 119244.000000
9139 17686 1 0.16500 119244.000000
9140 15126 1 0.16500 119244.000000
9140 17686 1 0.16500 119244.000000
9141 14801 1 0.16500 119244.000000
9141 16751 1 0.16500 119244.000000
9142 14802 1 0.16500 119244.000000
9142 15331 1 0.16500 119244.000000
9143 14803 1 0.16500 119244.000000
9143 17779 1 0.16500 119244.000000
9144 14803 1 0.16500 119244.000000
9144 15072 1 0.16500 119244.000000
9145 14804 1 0.16500 119244.000000
9145 15668 1 0.16500 119244.000000
9146 16195 1 0.16500 119244.000000
9146 16928 1 0.16500 119244.000000
9147 15351 1 0.16500 119244.000000
9147 16195 1 0.16500 119244.000000
9148 14806 1 0.16500 119244.000000
9148 16195 1 0.16500 119244.000000
9149 14807 1 0.16500 119244.000000
9149 17038 1 0.16500 119244.000000
9150 14807 1 0.16500 119244.000000
9150 16271 1 0.16500 119244.000000
9151 14807 1 0.16500 119244.000000
9151 14936 1 0.16500 119244.000000
9152 14808 1 0.16500 119244.000000
9152 15434 1 0.16500 119244.000000
9153 14808 1 0.16500 119244.000000
9153 16179 1 0.16500 119244.000000
9154 14808 1 0.16500 119244.000000
9154 16228 1 0.16500 119244.000000
9155 14809 1 0.16500 119244.000000
9155 16653 1 0.16500 119244.000000
9156 14810 1 0.16500 119244.000000
9156 16205 1 0.16500 119244.000000
9157 14810 1 0.16500 119244.000000
9157 16523 1 0.16500 119244.000000
9158 14811 1 0.16500 119244.000000
9158 16254 1 0.16500 119244.000000
9159 13196 1 0.16500 119244.000000
9159 15191 1 0.16500 119244.000000
9160 14812 1 0.16500 119244.000000
9160 16540 1 0.16500 119244.000000
9161 14812 1 0.16500 119244.000000
9161 16337 1 0.16500 119244.000000
9162 14812 1 0.16500 119244.000000
9162 16009 1 0.16500 119244.000000
9163 14813 1 0.16500 119244.000000
9163 15169 1 0.16500 119244.000000
9164 14813 1 0.16500 119244.000000
9164 18129 1 0.16500 119244.000000
9165 14813 1 0.16500 119244.000000
9165 17194 1 0.16500 119244.000000
9166 14814 1 0.16500 119244.000000
9166 17084 1 0.16500 119244.000000
9167 14814 1 0.16500 119244.000000
9167 15781 1 0.16500 119244.000000
9168 14815 1 0.16500 119244.000000
9168 16268 1 0.16500 119244.000000
9169 14817 1 0.16500 119244.000000
9169 15870 1 0.16500 119244.000000
9170 14819 1 0.16500 119244.000000
9170 15724 1 0.16500 119244.000000
9171 14819 1 0.16500 119244.000000
9171 16970 1 0.16500 119244.000000
9172 12846 1 0.16500 119244.000000
9172 16386 1 0.16500 119244.000000
9173 14820 1 0.16500 119244.000000
9173 16114 1 0.16500 119244.000000
9174 12184 1 0.16500 119244.000000
9174 17071 1 0.16500 119244.000000
9175 15713 1 0.16500 119244.000000
9175 16114 1 0.16500 119244.000000
9176 14821 1 0.16500 119244.000000
9176 15545 1 0.16500 119244.000000
9177 14821 1 0.16500 119244.000000
9177 16640 1 0.16500 119244.000000
9178 14822 1 0.16500 119244.000000
9178 15290 1 0.16500 119244.000000
9179 14823 1 0.16500 119244.000000
9179 15851 1 0.16500 119244.000000
9180 14270 1 0.16500 119244.000000
9180 15754 1 0.16500 119244.000000
9181 14823 1 0.16500 119244.000000
9181 16860 1 0.16500 119244.000000
9182 14824 1 0.16500 119244.000000
9182 16569 1 0.16500 119244.000000
9183 14826 1 0.16500 119244.000000
9183 17845 1 0.16500 119244.000000
9184 14826 1 0.16500 119244.000000
9184 15075 1 0.16500 119244.000000
9185 14827 1 0.16500 119244.000000
9185 16606 1 0.16500 119244.000000
9186 14829 1 0.16500 119244.000000
9186 17000 1 0.16500 119244.000000
9187 14830 1 0.16500 119244.000000
9187 15010 1 0.16500 119244.000000
9188 14831 1 0.16500 119244.000000
9188 15725 1 0.16500 119244.000000
9189 14832 1 0.16500 119244.000000
9189 16147 1 0.16500 119244.000000
9190 14832 1 0.16500 119244.000000
9190 15603 1 0.16500 119244.000000
9191 14832 1 0.16500 119244.000000
9191 16528 1 0.16500 119244.000000
9192 14833 1 0.16500 119244.000000
9192 15318 1 0.16500 119244.000000
9193 14834 1 0.16500 119244.000000
9193 15877 1 0.16500 119244.000000
9194 12888 1 0.16500 119244.000000
9194 14835 1 0.16500 119244.000000
9195 14837 1 0.16500 119244.000000
9195 17110 1 0.16500 119244.000000
9196 14838 1 0.16500 119244.000000
9196 16561 1 0.16500 119244.000000
9197 14838 1 0.16500 119244.000000
9197 16127 1 0.16500 119244.000000
9198 14839 1 0.16500 119244.000000
9198 15966 1 0.16500 119244.000000
9199 14839 1 0.16500 119244.000000
9199 16547 1 0.16500 119244.000000
9200 14839 1 0.16500 119244.000000
9200 16548 1 0.16500 119244.000000
9201 14840 1 0.16500 119244.000000
9201 15644 1 0.16500 119244.000000
9202 14840 1 0.16500 119244.000000
9202 17950 1 0.16500 119244.000000
9203 14841 1 0.16500 119244.000000
9203 16525 1 0.16500 119244.000000
9204 14841 1 0.16500 119244.000000
9204 15780 1 0.16500 119244.000000
9205 14842 1 0.16500 119244.000000
9205 17013 1 0.16500 119244.000000
9206 14842 1 0.16500 119244.000000
9206 15152 1 0.16500 119244.000000
9207 14844 1 0.16500 119244.000000
9207 17018 1 0.16500 119244.000000
9208 14844 1 0.16500 119244.000000
9208 16657 1 0.16500 119244.000000
9209 14844 1 0.16500 119244.000000
9209 15768 1 0.16500 119244.000000
9210 14845 1 0.16500 119244.000000
9210 17860 1 0.16500 119244.000000
9211 14845 1 0.16500 119244.000000
9211 17119 1 0.16500 119244.000000
9212 14845 1 0.16500 119244.000000
9212 16008 1 0.16500 119244.000000
9213 14846 1 0.16500 119244.000000
9213 14898 1 0.16500 119244.000000
9214 14847 1 0.16500 119244.000000
9214 15574 1 0.16500 119244.000000
9215 14848 1 0.16500 119244.000000
9215 16203 1 0.16500 119244.000000
9216 14944 1 0.16500 119244.000000
9216 16393 1 0.16500 119244.000000
9217 15297 1 0.16500 119244.000000
9217 16794 1 0.16500 119244.000000
9218 14849 1 0.16500 119244.000000
9218 15297 1 0.16500 119244.000000
9219 14850 1 0.16500 119244.000000
9219 14862 1 0.16500 119244.000000
9220 14851 1 0.16500 119244.000000
9220 15621 1 0.16500 119244.000000
9221 14851 1 0.16500 119244.000000
9221 16583 1 0.16500 119244.000000
9222 14852 1 0.16500 119244.000000
9222 15772 1 0.16500 119244.000000
9223 14853 1 0.16500 119244.000000
9223 15147 1 0.16500 119244.000000
9224 14853 1 0.16500 119244.000000
9224 15244 1 0.16500 119244.000000
9225 14854 1 0.16500 119244.000000
9225 15725 1 0.16500 119244.000000
9226 14855 1 0.16500 119244.000000
9226 15872 1 0.16500 119244.000000
9227 14855 1 0.16500 119244.000000
9227 14997 1 0.16500 119244.000000
9228 12661 1 0.16500 119244.000000
9228 14856 1 0.16500 119244.000000
9229 14858 1 0.16500 119244.000000
9229 15463 1 0.16500 119244.000000
9230 14858 1 0.16500 119244.000000
9230 15031 1 0.16500 119244.000000
9231 14858 1 0.16500 119244.000000
9231 16875 1 0.16500 119244.000000
9232 14861 1 0.16500 119244.000000
9232 16345 1 0.16500 119244.000000
9233 14861 1 0.16500 119244.000000
9233 16343 1 0.16500 119244.000000
9234 14863 1 0.16500 119244.000000
9234 15933 1 0.16500 119244.000000
9235 14863 1 0.16500 119244.000000
9235 15123 1 0.16500 119244.000000
9236 14864 1 0.16500 119244.000000
9236 16355 1 0.16500 119244.000000
9237 14864 1 0.16500 119244.000000
9237 15226 1 0.16500 119244.000000
9238 14865 1 0.16500 119244.000000
9238 16901 1 0.16500 119244.000000
9239 14865 1 0.16500 119244.000000
9239 15335 1 0.16500 119244.000000
9240 14866 1 0.16500 119244.000000
9240 15698 1 0.16500 119244.000000
9241 14866 1 0.16500 119244.000000
9241 15207 1 0.16500 119244.000000
9242 14866 1 0.16500 119244.000000
9242 16708 1 0.16500 119244.000000
9243 14867 1 0.16500 119244.000000
9243 16944 1 0.16500 119244.000000
9244 14867 1 0.16500 119244.000000
9244 14925 1 0.16500 119244.000000
9245 14868 1 0.16500 119244.000000
9245 16073 1 0.16500 119244.000000
9246 14868 1 0.16500 119244.000000
9246 15196 1 0.16500 119244.000000
9247 14868 1 0.16500 119244.000000
9247 16468 1 0.16500 119244.000000
9248 14869 1 0.16500 119244.000000
9248 16214 1 0.16500 119244.000000
9249 14869 1 0.16500 119244.000000
9249 14878 1 0.16500 119244.000000
9250 14869 1 0.16500 119244.000000
9250 14994 1 0.16500 119244.000000
9251 14870 1 0.16500 119244.000000
9251 15198 1 0.16500 119244.000000
9252 14870 1 0.16500 119244.000000
9252 16031 1 0.16500 119244.000000
9253 14871 1 0.16500 119244.000000
9253 17155 1 0.16500 119244.000000
9254 14872 1 0.16500 119244.000000
9254 16839 1 0.16500 119244.000000
9255 14873 1 0.16500 119244.000000
9255 15455 1 0.16500 119244.000000
9256 14873 1 0.16500 119244.000000
9256 15032 1 0.16500 119244.000000
9257 14874 1 0.16500 119244.000000
9257 16586 1 0.16500 119244.000000
9258 14874 1 0.16500 119244.000000
9258 16255 1 0.16500 119244.000000
9259 14875 1 0.16500 119244.000000
9259 16400 1 0.16500 119244.000000
9260 14875 1 0.16500 119244.000000
9260 15182 1 0.16500 119244.000000
9261 14876 1 0.16500 119244.000000
9261 15259 1 0.16500 119244.000000
9262 14876 1 0.16500 119244.000000
9262 15667 1 0.16500 119244.000000
9263 14877 1 0.16500 119244.000000
9263 16484 1 0.16500 119244.000000
9264 14877 1 0.16500 119244.000000
9264 15449 1 0.16500 119244.000000
9265 14878 1 0.16500 119244.000000
9265 16454 1 0.16500 119244.000000
9266 14882 1 0.16500 119244.000000
9266 16270 1 0.16500 119244.000000
9267 14882 1 0.16500 119244.000000
9267 15485 1 0.16500 119244.000000
9268 14882 1 0.16500 119244.000000
9268 16825 1 0.16500 119244.000000
9269 14883 1 0.16500 119244.000000
9269 17782 1 0.16500 119244.000000
9270 14884 1 0.16500 119244.000000
9270 17722 1 0.16500 119244.000000
9271 15541 1 0.16500 119244.000000
9271 17722 1 0.16500 119244.000000
9272 14885 1 0.16500 119244.000000
9272 16264 1 0.16500 119244.000000
9273 14885 1 0.16500 119244.000000
9273 15475 1 0.16500 119244.000000
9274 14885 1 0.16500 119244.000000
9274 17018 1 0.16500 119244.000000
9275 14886 1 0.16500 119244.000000
9275 16003 1 0.16500 119244.000000
9276 14887 1 0.16500 119244.000000
9276 16308 1 0.16500 119244.000000
9277 14888 1 0.16500 119244.000000
9277 16256 1 0.16500 119244.000000
9278 14889 1 0.16500 119244.000000
9278 17163 1 0.16500 119244.000000
9279 14890 1 0.16500 119244.000000
9279 16593 1 0.16500 119244.000000
9280 14890 1 0.16500 119244.000000
9280 14905 1 0.16500 119244.000000
9281 14890 1 0.16500 119244.000000
9281 17118 1 0.16500 119244.000000
9282 14891 1 0.16500 119244.000000
9282 15002 1 0.16500 119244.000000
9283 12452 1 0.16500 119244.000000
9283 16250 1 0.16500 119244.000000
9284 14893 1 0.16500 119244.000000
9284 15453 1 0.16500 119244.000000
9285 14894 1 0.16500 119244.000000
9285 16776 1 0.16500 119244.000000
9286 14895 1 0.16500 119244.000000
9286 16359 1 0.16500 119244.000000
9287 14896 1 0.16500 119244.000000
9287 15610 1 0.16500 119244.000000
9288 14896 1 0.16500 119244.000000
9288 15126 1 0.16500 119244.000000
9289 14897 1 0.16500 119244.000000
9289 15614 1 0.16500 119244.000000
9290 14897 1 0.16500 119244.000000
9290 16223 1 0.16500 119244.000000
9291 14897 1 0.16500 119244.000000
9291 16835 1 0.16500 119244.000000
9292 14898 1 0.16500 119244.000000
9292 15716 1 0.16500 119244.000000
9293 14898 1 0.16500 119244.000000
9293 17116 1 0.16500 119244.000000
9294 14900 1 0.16500 119244.000000
9294 16590 1 0.16500 119244.000000
9295 14901 1 0.16500 119244.000000
9295 16709 1 0.16500 119244.000000
9296 14901 1 0.16500 119244.000000
9296 16362 1 0.16500 119244.000000
9297 14902 1 0.16500 119244.000000
9297 17081 1 0.16500 119244.000000
9298 14902 1 0.16500 119244.000000
9298 15174 1 0.16500 119244.000000
9299 14902 1 0.16500 119244.000000
9299 15158 1 0.16500 119244.000000
9300 14903 1 0.16500 119244.000000
9300 16414 1 0.16500 119244.000000
9301 14903 1 0.16500 119244.000000
9301 16109 1 0.16500 119244.000000
9302 14904 1 0.16500 119244.000000
9302 16476 1 0.16500 119244.000000
9303 14904 1 0.16500 119244.000000
9303 15904 1 0.16500 119244.000000
9304 12571 1 0.16500 119244.000000
9304 14905 1 0.16500 119244.000000
9305 14906 1 0.16500 119244.000000
9305 15993 1 0.16500 119244.000000
9306 14906 1 0.16500 119244.000000
9306 16234 1 0.16500 119244.000000
9307 14906 1 0.16500 119244.000000
9307 15316 1 0.16500 119244.000000
9308 14907 1 0.16500 119244.000000
9308 15910 1 0.16500 119244.000000
9309 14909 1 0.16500 119244.000000
9309 16937 1 0.16500 119244.000000
9310 14910 1 0.16500 119244.000000
9310 15197 1 0.16500 119244.000000
9311 14910 1 0.16500 119244.000000
9311 16115 1 0.16500 119244.000000
9312 14911 1 0.16500 119244.000000
9312 15853 1 0.16500 119244.000000
9313 14911 1 0.16500 119244.000000
9313 16850 1 0.16500 119244.000000
9314 14911 1 0.16500 119244.000000
9314 15474 1 0.16500 119244.000000
9315 14913 1 0.16500 119244.000000
9315 16080 1 0.16500 119244.000000
9316 14913 1 0.16500 119244.000000
9316 15710 1 0.16500 119244.000000
9317 14914 1 0.16500 119244.000000
9317 16790 1 0.16500 119244.000000
9318 14917 1 0.16500 119244.000000
9318 15088 1 0.16500 119244.000000
9319 14917 1 0.16500 119244.000000
9319 17087 1 0.16500 119244.000000
9320 14917 1 0.16500 119244.000000
9320 15352 1 0.16500 119244.000000
9321 14918 1 0.16500 119244.000000
9321 15362 1 0.16500 119244.000000
9322 14918 1 0.16500 119244.000000
9322 17121 1 0.16500 119244.000000
9323 14919 1 0.16500 119244.000000
9323 16112 1 0.16500 119244.000000
9324 14920 1 0.16500 119244.000000
9324 16095 1 0.16500 119244.000000
9325 14920 1 0.16500 119244.000000
9325 15858 1 0.16500 119244.000000
9326 14922 1 0.16500 119244.000000
9326 16205 1 0.16500 119244.000000
9327 14922 1 0.16500 119244.000000
9327 16254 1 0.16500 119244.000000
9328 14923 1 0.16500 119244.000000
9328 16175 1 0.16500 119244.000000
9329 12302 1 0.16500 119244.000000
9329 13133 1 0.16500 119244.000000
9330 14924 1 0.16500 119244.000000
9330 15862 1 0.16500 119244.000000
9331 14925 1 0.16500 119244.000000
9331 15497 1 0.16500 119244.000000
9332 14925 1 0.16500 119244.000000
9332 16769 1 0.16500 119244.000000
9333 14925 1 0.16500 119244.000000
9333 16444 1 0.16500 119244.000000
9334 14926 1 0.16500 119244.000000
9334 15906 1 0.16500 119244.000000
9335 13813 1 0.16500 119244.000000
9335 14926 1 0.16500 119244.000000
9336 14927 1 0.16500 119244.000000
9336 15633 1 0.16500 119244.000000
9337 14928 1 0.16500 119244.000000
9337 16269 1 0.16500 119244.000000
9338 14928 1 0.16500 119244.000000
9338 15678 1 0.16500 119244.000000
9339 14929 1 0.16500 119244.000000
9339 17039 1 0.16500 119244.000000
9340 14930 1 0.16500 119244.000000
9340 16099 1 0.16500 119244.000000
9341 14930 1 0.16500 119244.000000
9341 16465 1 0.16500 119244.000000
9342 14931 1 0.16500 119244.000000
9342 16814 1 0.16500 119244.000000
9343 14931 1 0.16500 119244.000000
9343 15487 1 0.16500 119244.000000
9344 14932 1 0.16500 119244.000000
9344 17872 1 0.16500 119244.000000
9345 14932 1 0.16500 119244.000000
9345 16565 1 0.16500 119244.000000
9346 14933 1 0.16500 119244.000000
9346 15792 1 0.16500 119244.000000
9347 14934 1 0.16500 119244.000000
9347 15495 1 0.16500 119244.000000
9348 14935 1 0.16500 119244.000000
9348 17884 1 0.16500 119244.000000
9349 14936 1 0.16500 119244.000000
9349 16414 1 0.16500 119244.000000
9350 14937 1 0.16500 119244.000000
9350 15283 1 0.16500 119244.000000
9351 14938 1 0.16500 119244.000000
9351 15185 1 0.16500 119244.000000
9352 12778 1 0.16500 119244.000000
9352 14938 1 0.16500 119244.000000
9353 16731 1 0.16500 119244.000000
9353 17701 1 0.16500 119244.000000
9354 14939 1 0.16500 119244.000000
9354 16921 1 0.16500 119244.000000
9355 14940 1 0.16500 119244.000000
9355 15460 1 0.16500 119244.000000
9356 14940 1 0.16500 119244.000000
9356 16246 1 0.16500 119244.000000
9357 14941 1 0.16500 119244.000000
9357 15375 1 0.16500 119244.000000
9358 14942 1 0.16500 119244.000000
9358 16431 1 0.16500 119244.000000
9359 15326 1 0.16500 119244.000000
9359 16418 1 0.16500 119244.000000
9360 14942 1 0.16500 119244.000000
9360 15326 1 0.16500 119244.000000
9361 14943 1 0.16500 119244.000000
9361 16230 1 0.16500 119244.000000
9362 14848 1 0.16500 119244.000000
9362 16393 1 0.16500 119244.000000
9363 14945 1 0.16500 119244.000000
9363 16536 1 0.16500 119244.000000
9364 14945 1 0.16500 119244.000000
9364 15012 1 0.16500 119244.000000
9365 14946 1 0.16500 119244.000000
9365 16282 1 0.16500 119244.000000
9366 14946 1 0.16500 119244.000000
9366 15561 1 0.16500 119244.000000
9367 14946 1 0.16500 119244.000000
9367 16660 1 0.16500 119244.000000
9368 14947 1 0.16500 119244.000000
9368 16998 1 0.16500 119244.000000
9369 14947 1 0.16500 119244.000000
9369 16458 1 0.16500 119244.000000
9370 14948 1 0.16500 119244.000000
9370 15232 1 0.16500 119244.000000
9371 14949 1 0.16500 119244.000000
9371 15443 1 0.16500 119244.000000
9372 14949 1 0.16500 119244.000000
9372 16584 1 0.16500 119244.000000
9373 14950 1 0.16500 119244.000000
9373 16674 1 0.16500 119244.000000
9374 14951 1 0.16500 119244.000000
9374 15450 1 0.16500 119244.000000
9375 16749 1 0.16500 119244.000000
9375 17707 1 0.16500 119244.000000
9376 14952 1 0.16500 119244.000000
9376 16805 1 0.16500 119244.000000
9377 14952 1 0.16500 119244.000000
9377 16077 1 0.16500 119244.000000
9378 14953 1 0.16500 119244.000000
9378 16058 1 0.16500 119244.000000
9379 14953 1 0.16500 119244.000000
9379 15215 1 0.16500 119244.000000
9380 14954 1 0.16500 119244.000000
9380 15749 1 0.16500 119244.000000
9381 14954 1 0.16500 119244.000000
9381 17037 1 0.16500 119244.000000
9382 14955 1 0.16500 119244.000000
9382 16801 1 0.16500 119244.000000
9383 14955 1 0.16500 119244.000000
9383 15019 1 0.16500 119244.000000
9384 14548 1 0.16500 119244.000000
9384 14957 1 0.16500 119244.000000
9385 14958 1 0.16500 119244.000000
9385 17118 1 0.16500 119244.000000
9386 14958 1 0.16500 119244.000000
9386 15255 1 0.16500 119244.000000
9387 14958 1 0.16500 119244.000000
9387 16952 1 0.16500 119244.000000
9388 16685 1 0.16500 119244.000000
9388 17710 1 0.16500 119244.000000
9389 14959 1 0.16500 119244.000000
9389 16140 1 0.16500 119244.000000
9390 14959 1 0.16500 119244.000000
9390 15051 1 0.16500 119244.000000
9391 14960 1 0.16500 119244.000000
9391 16228 1 0.16500 119244.000000
9392 14961 1 0.16500 119244.000000
9392 15263 1 0.16500 119244.000000
9393 14962 1 0.16500 119244.000000
9393 15285 1 0.16500 119244.000000
9394 14962 1 0.16500 119244.000000
9394 17233 1 0.16500 119244.000000
9395 14962 1 0.16500 119244.000000
9395 16791 1 0.16500 119244.000000
9396 14963 1 0.16500 119244.000000
9396 16786 1 0.16500 119244.000000
9397 14965 1 0.16500 119244.000000
9397 16313 1 0.16500 119244.000000
9398 14965 1 0.16500 119244.000000
9398 15437 1 0.16500 119244.000000
9399 14965 1 0.16500 119244.000000
9399 16853 1 0.16500 119244.000000
9400 14966 1 0.16500 119244.000000
9400 15051 1 0.16500 119244.000000
9401 14967 1 0.16500 119244.000000
9401 15147 1 0.16500 119244.000000
9402 14968 1 0.16500 119244.000000
9402 16882 1 0.16500 119244.000000
9403 14968 1 0.16500 119244.000000
9403 15176 1 0.16500 119244.000000
9404 14969 1 0.16500 119244.000000
9404 15774 1 0.16500 119244.000000
9405 15380 1 0.16500 119244.000000
9405 18109 1 0.16500 119244.000000
9406 14972 1 0.16500 119244.000000
9406 15821 1 0.16500 119244.000000
9407 14973 1 0.16500 119244.000000
9407 16286 1 0.16500 119244.000000
9408 14973 1 0.16500 119244.000000
9408 16825 1 0.16500 119244.000000
9409 14974 1 0.16500 119244.000000
9409 16555 1 0.16500 119244.000000
9410 14975 1 0.16500 119244.000000
9410 16191 1 0.16500 119244.000000
9411 14975 1 0.16500 119244.000000
9411 16826 1 0.16500 119244.000000
9412 14976 1 0.16500 119244.000000
9412 15002 1 0.16500 119244.000000
9413 14976 1 0.16500 119244.000000
9413 16032 1 0.16500 119244.000000
9414 14977 1 0.16500 119244.000000
9414 16042 1 0.16500 119244.000000
9415 14978 1 0.16500 119244.000000
9415 15405 1 0.16500 119244.000000
9416 14978 1 0.16500 119244.000000
9416 16214 1 0.16500 119244.000000
9417 14978 1 0.16500 119244.000000
9417 15756 1 0.16500 119244.000000
9418 14978 1 0.16500 119244.000000
9418 17198 1 0.16500 119244.000000
9419 14979 1 0.16500 119244.000000
9419 15317 1 0.16500 119244.000000
9420 14980 1 0.16500 119244.000000
9420 16851 1 0.16500 119244.000000
9421 13337 1 0.16500 119244.000000
9421 14980 1 0.16500 119244.000000
9422 14980 1 0.16500 119244.000000
9422 15799 1 0.16500 119244.000000
9423 14981 1 0.16500 119244.000000
9423 17752 1 0.16500 119244.000000
9424 14981 1 0.16500 119244.000000
9424 15473 1 0.16500 119244.000000
9425 14981 1 0.16500 119244.000000
9425 16380 1 0.16500 119244.000000
9426 14982 1 0.16500 119244.000000
9426 15055 1 0.16500 119244.000000
9427 14983 1 0.16500 119244.000000
9427 15702 1 0.16500 119244.000000
9428 14984 1 0.16500 119244.000000
9428 15232 1 0.16500 119244.000000
9429 14984 1 0.16500 119244.000000
9429 17167 1 0.16500 119244.000000
9430 14985 1 0.16500 119244.000000
9430 15421 1 0.16500 119244.000000
9431 14986 1 0.16500 119244.000000
9431 16537 1 0.16500 119244.000000
9432 14987 1 0.16500 119244.000000
9432 15073 1 0.16500 119244.000000
9433 14987 1 0.16500 119244.000000
9433 15752 1 0.16500 119244.000000
9434 14988 1 0.16500 119244.000000
9434 17153 1 0.16500 119244.000000
9435 14989 1 0.16500 119244.000000
9435 16586 1 0.16500 119244.000000
9436 14989 1 0.16500 119244.000000
9436 17122 1 0.16500 119244.000000
9437 14990 1 0.16500 119244.000000
9437 15178 1 0.16500 119244.000000
9438 14992 1 0.16500 119244.000000
9438 15564 1 0.16500 119244.000000
9439 14992 1 0.16500 119244.000000
9439 17184 1 0.16500 119244.000000
9440 14993 1 0.16500 119244.000000
9440 15781 1 0.16500 119244.000000
9441 14994 1 0.16500 119244.000000
9441 16027 1 0.16500 119244.000000
9442 14995 1 0.16500 119244.000000
9442 15958 1 0.16500 119244.000000
9443 14995 1 0.16500 119244.000000
9443 16733 1 0.16500 119244.000000
9444 14996 1 0.16500 119244.000000
9444 16664 1 0.16500 119244.000000
9445 14997 1 0.16500 119244.000000
9445 15381 1 0.16500 119244.000000
9446 14997 1 0.16500 119244.000000
9446 16031 1 0.16500 119244.000000
9447 14997 1 0.16500 119244.000000
9447 15373 1 0.16500 119244.000000
9448 14998 1 0.16500 119244.000000
9448 16351 1 0.16500 119244.000000
9449 14998 1 0.16500 119244.000000
9449 15449 1 0.16500 119244.000000
9450 14998 1 0.16500 119244.000000
9450 16730 1 0.16500 119244.000000
9451 14999 1 0.16500 119244.000000
9451 17050 1 0.16500 119244.000000
9452 14412 1 0.16500 119244.000000
9452 15025 1 0.16500 119244.000000
9453 15000 1 0.16500 119244.000000
9453 16072 1 0.16500 119244.000000
9454 15000 1 0.16500 119244.000000
9454 15122 1 0.16500 119244.000000
9455 15001 1 0.16500 119244.000000
9455 15761 1 0.16500 119244.000000
9456 17069 1 0.16500 119244.000000
9456 17812 1 0.16500 119244.000000
9457 15002 1 0.16500 119244.000000
9457 15654 1 0.16500 119244.000000
9458 15003 1 0.16500 119244.000000
9458 15151 1 0.16500 119244.000000
9459 15004 1 0.16500 119244.000000
9459 16122 1 0.16500 119244.000000
9460 15004 1 0.16500 119244.000000
9460 15511 1 0.16500 119244.000000
9461 15005 1 0.16500 119244.000000
9461 16864 1 0.16500 119244.000000
9462 15005 1 0.16500 119244.000000
9462 16636 1 0.16500 119244.000000
9463 15005 1 0.16500 119244.000000
9463 15588 1 0.16500 119244.000000
9464 15006 1 0.16500 119244.000000
9464 15458 1 0.16500 119244.000000
9465 13200 1 0.16500 119244.000000
9465 15297 1 0.16500 119244.000000
9466 15007 1 0.16500 119244.000000
9466 15529 1 0.16500 119244.000000
9467 15008 1 0.16500 119244.000000
9467 16321 1 0.16500 119244.000000
9468 15008 1 0.16500 119244.000000
9468 15385 1 0.16500 119244.000000
9469 12910 1 0.16500 119244.000000
9469 15009 1 0.16500 119244.000000
9470 15009 1 0.16500 119244.000000
9470 16695 1 0.16500 119244.000000
9471 15009 1 0.16500 119244.000000
9471 16370 1 0.16500 119244.000000
9472 15011 1 0.16500 119244.000000
9472 16313 1 0.16500 119244.000000
9473 15012 1 0.16500 119244.000000
9473 15141 1 0.16500 119244.000000
9474 15012 1 0.16500 119244.000000
9474 16874 1 0.16500 119244.000000
9475 15013 1 0.16500 119244.000000
9475 17181 1 0.16500 119244.000000
9476 15013 1 0.16500 119244.000000
9476 15652 1 0.16500 119244.000000
9477 15013 1 0.16500 119244.000000
9477 15592 1 0.16500 119244.000000
9478 15014 1 0.16500 119244.000000
9478 16662 1 0.16500 119244.000000
9479 15015 1 0.16500 119244.000000
9479 15050 1 0.16500 119244.000000
9480 15015 1 0.16500 119244.000000
9480 16529 1 0.16500 119244.000000
9481 15016 1 0.16500 119244.000000
9481 15386 1 0.16500 119244.000000
9482 15017 1 0.16500 119244.000000
9482 16025 1 0.16500 119244.000000
9483 15018 1 0.16500 119244.000000
9483 15989 1 0.16500 119244.000000
9484 15019 1 0.16500 119244.000000
9484 17116 1 0.16500 119244.000000
9485 14955 1 0.16500 119244.000000
9485 15310 1 0.16500 119244.000000
9486 12713 1 0.16500 119244.000000
9486 15807 1 0.16500 119244.000000
9487 15020 1 0.16500 119244.000000
9487 15077 1 0.16500 119244.000000
9488 15021 1 0.16500 119244.000000
9488 17029 1 0.16500 119244.000000
9489 15021 1 0.16500 119244.000000
9489 15719 1 0.16500 119244.000000
9490 15022 1 0.16500 119244.000000
9490 15525 1 0.16500 119244.000000
9491 15022 1 0.16500 119244.000000
9491 15309 1 0.16500 119244.000000
9492 15023 1 0.16500 119244.000000
9492 17782 1 0.16500 119244.000000
9493 15024 1 0.16500 119244.000000
9493 16249 1 0.16500 119244.000000
9494 15025 1 0.16500 119244.000000
9494 15167 1 0.16500 119244.000000
9495 15026 1 0.16500 119244.000000
9495 15907 1 0.16500 119244.000000
9496 15027 1 0.16500 119244.000000
9496 15459 1 0.16500 119244.000000
9497 15028 1 0.16500 119244.000000
9497 16174 1 0.16500 119244.000000
9498 15028 1 0.16500 119244.000000
9498 15589 1 0.16500 119244.000000
9499 15029 1 0.16500 119244.000000
9499 16126 1 0.16500 119244.000000
9500 15030 1 0.16500 119244.000000
9500 16598 1 0.16500 119244.000000
9501 15032 1 0.16500 119244.000000
9501 15051 1 0.16500 119244.000000
9502 15032 1 0.16500 119244.000000
9502 15549 1 0.16500 119244.000000
9503 15034 1 0.16500 119244.000000
9503 17054 1 0.16500 119244.000000
9504 15035 1 0.16500 119244.000000
9504 16123 1 0.16500 119244.000000
9505 16338 1 0.16500 119244.000000
9505 16852 1 0.16500 119244.000000
9506 15036 1 0.16500 119244.000000
9506 16338 1 0.16500 119244.000000
9507 15037 1 0.16500 119244.000000
9507 16226 1 0.16500 119244.000000
9508 13934 1 0.16500 119244.000000
9508 15037 1 0.16500 119244.000000
9509 15038 1 0.16500 119244.000000
9509 15682 1 0.16500 119244.000000
9510 12878 1 0.16500 119244.000000
9510 16263 1 0.16500 119244.000000
9511 15039 1 0.16500 119244.000000
9511 15107 1 0.16500 119244.000000
9512 15039 1 0.16500 119244.000000
9512 16140 1 0.16500 119244.000000
9513 15041 1 0.16500 119244.000000
9513 15078 1 0.16500 119244.000000
9514 15041 1 0.16500 119244.000000
9514 15625 1 0.16500 119244.000000
9515 15041 1 0.16500 119244.000000
9515 15534 1 0.16500 119244.000000
9516 15041 1 0.16500 119244.000000
9516 17116 1 0.16500 119244.000000
9517 12387 1 0.16500 119244.000000
9517 16249 1 0.16500 119244.000000
9518 15043 1 0.16500 119244.000000
9518 16409 1 0.16500 119244.000000
9519 15044 1 0.16500 119244.000000
9519 15208 1 0.16500 119244.000000
9520 15045 1 0.16500 119244.000000
9520 15686 1 0.16500 119244.000000
9521 15046 1 0.16500 119244.000000
9521 15139 1 0.16500 119244.000000
9522 15047 1 0.16500 119244.000000
9522 17195 1 0.16500 119244.000000
9523 15048 1 0.16500 119244.000000
9523 17042 1 0.16500 119244.000000
9524 15048 1 0.16500 119244.000000
9524 16982 1 0.16500 119244.000000
9525 15049 1 0.16500 119244.000000
9525 16415 1 0.16500 119244.000000
9526 15050 1 0.16500 119244.000000
9526 15826 1 0.16500 119244.000000
9527 15052 1 0.16500 119244.000000
9527 16168 1 0.16500 119244.000000
9528 15052 1 0.16500 119244.000000
9528 16421 1 0.16500 119244.000000
9529 15053 1 0.16500 119244.000000
9529 15134 1 0.16500 119244.000000
9530 15053 1 0.16500 119244.000000
9530 15215 1 0.16500 119244.000000
9531 15053 1 0.16500 119244.000000
9531 16211 1 0.16500 119244.000000
9532 15792 1 0.16500 119244.000000
9532 16339 1 0.16500 119244.000000
9533 15054 1 0.16500 119244.000000
9533 15792 1 0.16500 119244.000000
9534 15054 1 0.16500 119244.000000
9534 17141 1 0.16500 119244.000000
9535 15055 1 0.16500 119244.000000
9535 15570 1 0.16500 119244.000000
9536 15056 1 0.16500 119244.000000
9536 16634 1 0.16500 119244.000000
9537 15056 1 0.16500 119244.000000
9537 16047 1 0.16500 119244.000000
9538 15057 1 0.16500 119244.000000
9538 15258 1 0.16500 119244.000000
9539 15057 1 0.16500 119244.000000
9539 17021 1 0.16500 119244.000000
9540 15058 1 0.16500 119244.000000
9540 15197 1 0.16500 119244.000000
9541 15059 1 0.16500 119244.000000
9541 17965 1 0.16500 119244.000000
9542 15059 1 0.16500 119244.000000
9542 15377 1 0.16500 119244.000000
9543 15059 1 0.16500 119244.000000
9543 16607 1 0.16500 119244.000000
9544 15059 1 0.16500 119244.000000
9544 15509 1 0.16500 119244.000000
9545 15060 1 0.16500 119244.000000
9545 15822 1 0.16500 119244.000000
9546 15061 1 0.16500 119244.000000
9546 17017 1 0.16500 119244.000000
9547 15062 1 0.16500 119244.000000
9547 15542 1 0.16500 119244.000000
9548 15062 1 0.16500 119244.000000
9548 15193 1 0.16500 119244.000000
9549 14216 1 0.16500 119244.000000
9549 16233 1 0.16500 119244.000000
9550 15064 1 0.16500 119244.000000
9550 15839 1 0.16500 119244.000000
9551 15064 1 0.16500 119244.000000
9551 15915 1 0.16500 119244.000000
9552 15065 1 0.16500 119244.000000
9552 16715 1 0.16500 119244.000000
9553 15065 1 0.16500 119244.000000
9553 16633 1 0.16500 119244.000000
9554 15065 1 0.16500 119244.000000
9554 15638 1 0.16500 119244.000000
9555 15066 1 0.16500 119244.000000
9555 16185 1 0.16500 119244.000000
9556 15067 1 0.16500 119244.000000
9556 15156 1 0.16500 119244.000000
9557 15067 1 0.16500 119244.000000
9557 15221 1 0.16500 119244.000000
9558 17473 1 0.16500 119244.000000
9558 17824 1 0.16500 119244.000000
9559 15068 1 0.16500 119244.000000
9559 15580 1 0.16500 119244.000000
9560 15068 1 0.16500 119244.000000
9560 16290 1 0.16500 119244.000000
9561 15069 1 0.16500 119244.000000
9561 16549 1 0.16500 119244.000000
9562 15069 1 0.16500 119244.000000
9562 17815 1 0.16500 119244.000000
9563 15070 1 0.16500 119244.000000
9563 15463 1 0.16500 119244.000000
9564 15071 1 0.16500 119244.000000
9564 15478 1 0.16500 119244.000000
9565 15072 1 0.16500 119244.000000
9565 16991 1 0.16500 119244.000000
9566 15072 1 0.16500 119244.000000
9566 16787 1 0.16500 119244.000000
9567 14987 1 0.16500 119244.000000
9567 16039 1 0.16500 119244.000000
9568 14357 1 0.16500 119244.000000
9568 15074 1 0.16500 119244.000000
9569 15075 1 0.16500 119244.000000
9569 16112 1 0.16500 119244.000000
9570 15075 1 0.16500 119244.000000
9570 15611 1 0.16500 119244.000000
9571 15076 1 0.16500 119244.000000
9571 15570 1 0.16500 119244.000000
9572 15078 1 0.16500 119244.000000
9572 15717 1 0.16500 119244.000000
9573 15079 1 0.16500 119244.000000
9573 16520 1 0.16500 119244.000000
9574 15080 1 0.16500 119244.000000
9574 15986 1 0.16500 119244.000000
9575 15080 1 0.16500 119244.000000
9575 17836 1 0.16500 119244.000000
9576 15081 1 0.16500 119244.000000
9576 17974 1 0.16500 119244.000000
9577 15081 1 0.16500 119244.000000
9577 17092 1 0.16500 119244.000000
9578 15082 1 0.16500 119244.000000
9578 16905 1 0.16500 119244.000000
9579 15083 1 0.16500 119244.000000
9579 15632 1 0.16500 119244.000000
9580 15085 1 0.16500 119244.000000
9580 17139 1 0.16500 119244.000000
9581 15086 1 0.16500 119244.000000
9581 16106 1 0.16500 119244.000000
9582 15086 1 0.16500 119244.000000
9582 16381 1 0.16500 119244.000000
9583 15086 1 0.16500 119244.000000
9583 16651 1 0.16500 119244.000000
9584 15089 1 0.16500 119244.000000
9584 16910 1 0.16500 119244.000000
9585 15089 1 0.16500 119244.000000
9585 16368 1 0.16500 119244.000000
9586 15090 1 0.16500 119244.000000
9586 16958 1 0.16500 119244.000000
9587 15091 1 0.16500 119244.000000
9587 16666 1 0.16500 119244.000000
9588 15092 1 0.16500 119244.000000
9588 16868 1 0.16500 119244.000000
9589 15092 1 0.16500 119244.000000
9589 16867 1 0.16500 119244.000000
9590 15092 1 0.16500 119244.000000
9590 16012 1 0.16500 119244.000000
9591 15094 1 0.16500 119244.000000
9591 15447 1 0.16500 119244.000000
9592 15094 1 0.16500 119244.000000
9592 15509 1 0.16500 119244.000000
9593 15095 1 0.16500 119244.000000
9593 16381 1 0.16500 119244.000000
9594 15095 1 0.16500 119244.000000
9594 16234 1 0.16500 119244.000000
9595 15096 1 0.16500 119244.000000
9595 16547 1 0.16500 119244.000000
9596 15096 1 0.16500 119244.000000
9596 15181 1 0.16500 119244.000000
9597 15777 1 0.16500 119244.000000
9597 16547 1 0.16500 119244.000000
9598 15097 1 0.16500 119244.000000
9598 15203 1 0.16500 119244.000000
9599 15097 1 0.16500 119244.000000
9599 16668 1 0.16500 119244.000000
9600 15098 1 0.16500 119244.000000
9600 16385 1 0.16500 119244.000000
9601 15099 1 0.16500 119244.000000
9601 15355 1 0.16500 119244.000000
9602 15099 1 0.16500 119244.000000
9602 17827 1 0.16500 119244.000000
9603 15100 1 0.16500 119244.000000
9603 15502 1 0.16500 119244.000000
9604 15101 1 0.16500 119244.000000
9604 16617 1 0.16500 119244.000000
9605 15101 1 0.16500 119244.000000
9605 15258 1 0.16500 119244.000000
9606 15102 1 0.16500 119244.000000
9606 16359 1 0.16500 119244.000000
9607 15103 1 0.16500 119244.000000
9607 16150 1 0.16500 119244.000000
9608 15103 1 0.16500 119244.000000
9608 16443 1 0.16500 119244.000000
9609 15104 1 0.16500 119244.000000
9609 16723 1 0.16500 119244.000000
9610 16723 1 0.16500 119244.000000
9610 16747 1 0.16500 119244.000000
9611 16624 1 0.16500 119244.000000
9611 16723 1 0.16500 119244.000000
9612 15105 1 0.16500 119244.000000
9612 16812 1 0.16500 119244.000000
9613 15105 1 0.16500 119244.000000
9613 16180 1 0.16500 119244.000000
9614 15106 1 0.16500 119244.000000
9614 15844 1 0.16500 119244.000000
9615 15106 1 0.16500 119244.000000
9615 16210 1 0.16500 119244.000000
9616 15108 1 0.16500 119244.000000
9616 16194 1 0.16500 119244.000000
9617 15108 1 0.16500 119244.000000
9617 17051 1 0.16500 119244.000000
9618 15110 1 0.16500 119244.000000
9618 16389 1 0.16500 119244.000000
9619 15111 1 0.16500 119244.000000
9619 15866 1 0.16500 119244.000000
9620 15112 1 0.16500 119244.000000
9620 17085 1 0.16500 119244.000000
9621 13090 1 0.16500 119244.000000
9621 15542 1 0.16500 119244.000000
9622 17719 1 0.16500 119244.000000
9622 17830 1 0.16500 119244.000000
9623 15116 1 0.16500 119244.000000
9623 16781 1 0.16500 119244.000000
9624 15116 1 0.16500 119244.000000
9624 16762 1 0.16500 119244.000000
9625 15116 1 0.16500 119244.000000
9625 16570 1 0.16500 119244.000000
9626 15118 1 0.16500 119244.000000
9626 16816 1 0.16500 119244.000000
9627 15118 1 0.16500 119244.000000
9627 15941 1 0.16500 119244.000000
9628 15118 1 0.16500 119244.000000
9628 15974 1 0.16500 119244.000000
9629 15118 1 0.16500 119244.000000
9629 15209 1 0.16500 119244.000000
9630 15119 1 0.16500 119244.000000
9630 16722 1 0.16500 119244.000000
9631 15119 1 0.16500 119244.000000
9631 15454 1 0.16500 119244.000000
9632 15120 1 0.16500 119244.000000
9632 16255 1 0.16500 119244.000000
9633 16061 1 0.16500 119244.000000
9633 16255 1 0.16500 119244.000000
9634 15120 1 0.16500 119244.000000
9634 17122 1 0.16500 119244.000000
9635 15121 1 0.16500 119244.000000
9635 15536 1 0.16500 119244.000000
9636 15121 1 0.16500 119244.000000
9636 15613 1 0.16500 119244.000000
9637 15122 1 0.16500 119244.000000
9637 16239 1 0.16500 119244.000000
9638 15123 1 0.16500 119244.000000
9638 17036 1 0.16500 119244.000000
9639 15123 1 0.16500 119244.000000
9639 17124 1 0.16500 119244.000000
9640 15124 1 0.16500 119244.000000
9640 15720 1 0.16500 119244.000000
9641 15125 1 0.16500 119244.000000
9641 15451 1 0.16500 119244.000000
9642 15126 1 0.16500 119244.000000
9642 17836 1 0.16500 119244.000000
9643 15126 1 0.16500 119244.000000
9643 15510 1 0.16500 119244.000000
9644 15127 1 0.16500 119244.000000
9644 16929 1 0.16500 119244.000000
9645 15127 1 0.16500 119244.000000
9645 17938 1 0.16500 119244.000000
9646 15128 1 0.16500 119244.000000
9646 16595 1 0.16500 119244.000000
9647 15128 1 0.16500 119244.000000
9647 16419 1 0.16500 119244.000000
9648 15129 1 0.16500 119244.000000
9648 17791 1 0.16500 119244.000000
9649 15131 1 0.16500 119244.000000
9649 16324 1 0.16500 119244.000000
9650 15131 1 0.16500 119244.000000
9650 16598 1 0.16500 119244.000000
9651 15131 1 0.16500 119244.000000
9651 16798 1 0.16500 119244.000000
9652 15132 1 0.16500 119244.000000
9652 16177 1 0.16500 119244.000000
9653 15133 1 0.16500 119244.000000
9653 15803 1 0.16500 119244.000000
9654 15136 1 0.16500 119244.000000
9654 16473 1 0.16500 119244.000000
9655 16096 1 0.16500 119244.000000
9655 16306 1 0.16500 119244.000000
9656 15137 1 0.16500 119244.000000
9656 16306 1 0.16500 119244.000000
9657 15138 1 0.16500 119244.000000
9657 15854 1 0.16500 119244.000000
9658 15139 1 0.16500 119244.000000
9658 16126 1 0.16500 119244.000000
9659 15139 1 0.16500 119244.000000
9659 15785 1 0.16500 119244.000000
9660 15139 1 0.16500 119244.000000
9660 16807 1 0.16500 119244.000000
9661 15140 1 0.16500 119244.000000
9661 16430 1 0.16500 119244.000000
9662 15140 1 0.16500 119244.000000
9662 15591 1 0.16500 119244.000000
9663 15140 1 0.16500 119244.000000
9663 15230 1 0.16500 119244.000000
9664 15141 1 0.16500 119244.000000
9664 16643 1 0.16500 119244.000000
9665 15142 1 0.16500 119244.000000
9665 15240 1 0.16500 119244.000000
9666 15142 1 0.16500 119244.000000
9666 15548 1 0.16500 119244.000000
9667 15143 1 0.16500 119244.000000
9667 16560 1 0.16500 119244.000000
9668 15143 1 0.16500 119244.000000
9668 16737 1 0.16500 119244.000000
9669 15143 1 0.16500 119244.000000
9669 15308 1 0.16500 119244.000000
9670 15143 1 0.16500 119244.000000
9670 16207 1 0.16500 119244.000000
9671 15144 1 0.16500 119244.000000
9671 15357 1 0.16500 119244.000000
9672 14710 1 0.16500 119244.000000
9672 15145 1 0.16500 119244.000000
9673 16990 1 0.16500 119244.000000
9673 17725 1 0.16500 119244.000000
9674 15146 1 0.16500 119244.000000
9674 15458 1 0.16500 119244.000000
9675 15147 1 0.16500 119244.000000
9675 16580 1 0.16500 119244.000000
9676 15148 1 0.16500 119244.000000
9676 15299 1 0.16500 119244.000000
9677 15149 1 0.16500 119244.000000
9677 16002 1 0.16500 119244.000000
9678 15149 1 0.16500 119244.000000
9678 15679 1 0.16500 119244.000000
9679 15149 1 0.16500 119244.000000
9679 15939 1 0.16500 119244.000000
9680 15150 1 0.16500 119244.000000
9680 17023 1 0.16500 119244.000000
9681 15150 1 0.16500 119244.000000
9681 15564 1 0.16500 119244.000000
9682 15150 1 0.16500 119244.000000
9682 15706 1 0.16500 119244.000000
9683 15151 1 0.16500 119244.000000
9683 17083 1 0.16500 119244.000000
9684 15152 1 0.16500 119244.000000
9684 15569 1 0.16500 119244.000000
9685 15153 1 0.16500 119244.000000
9685 16290 1 0.16500 119244.000000
9686 15153 1 0.16500 119244.000000
9686 16016 1 0.16500 119244.000000
9687 16299 1 0.16500 119244.000000
9687 17117 1 0.16500 119244.000000
9688 15154 1 0.16500 119244.000000
9688 17117 1 0.16500 119244.000000
9689 15155 1 0.16500 119244.000000
9689 16788 1 0.16500 119244.000000
9690 16346 1 0.16500 119244.000000
9690 17728 1 0.16500 119244.000000
9691 15156 1 0.16500 119244.000000
9691 18124 1 0.16500 119244.000000
9692 15157 1 0.16500 119244.000000
9692 16735 1 0.16500 119244.000000
9693 15158 1 0.16500 119244.000000
9693 17103 1 0.16500 119244.000000
9694 15159 1 0.16500 119244.000000
9694 15389 1 0.16500 119244.000000
9695 15159 1 0.16500 119244.000000
9695 16020 1 0.16500 119244.000000
9696 15160 1 0.16500 119244.000000
9696 17081 1 0.16500 119244.000000
9697 15160 1 0.16500 119244.000000
9697 16189 1 0.16500 119244.000000
9698 15161 1 0.16500 119244.000000
9698 15591 1 0.16500 119244.000000
9699 15162 1 0.16500 119244.000000
9699 16117 1 0.16500 119244.000000
9700 15162 1 0.16500 119244.000000
9700 16798 1 0.16500 119244.000000
9701 15162 1 0.16500 119244.000000
9701 16678 1 0.16500 119244.000000
9702 15163 1 0.16500 119244.000000
9702 15182 1 0.16500 119244.000000
9703 15163 1 0.16500 119244.000000
9703 15898 1 0.16500 119244.000000
9704 15163 1 0.16500 119244.000000
9704 16531 1 0.16500 119244.000000
9705 15164 1 0.16500 119244.000000
9705 16571 1 0.16500 119244.000000
9706 15164 1 0.16500 119244.000000
9706 16439 1 0.16500 119244.000000
9707 15340 1 0.16500 119244.000000
9707 16571 1 0.16500 119244.000000
9708 15165 1 0.16500 119244.000000
9708 16462 1 0.16500 119244.000000
9709 11959 1 0.16500 119244.000000
9709 15166 1 0.16500 119244.000000
9710 15167 1 0.16500 119244.000000
9710 16251 1 0.16500 119244.000000
9711 15167 1 0.16500 119244.000000
9711 16191 1 0.16500 119244.000000
9712 15168 1 0.16500 119244.000000
9712 15590 1 0.16500 119244.000000
9713 15168 1 0.16500 119244.000000
9713 15762 1 0.16500 119244.000000
9714 15169 1 0.16500 119244.000000
9714 16495 1 0.16500 119244.000000
9715 15169 1 0.16500 119244.000000
9715 16213 1 0.16500 119244.000000
9716 15170 1 0.16500 119244.000000
9716 17167 1 0.16500 119244.000000
9717 15170 1 0.16500 119244.000000
9717 15432 1 0.16500 119244.000000
9718 15171 1 0.16500 119244.000000
9718 15178 1 0.16500 119244.000000
9719 15172 1 0.16500 119244.000000
9719 16347 1 0.16500 119244.000000
9720 15172 1 0.16500 119244.000000
9720 15758 1 0.16500 119244.000000
9721 15172 1 0.16500 119244.000000
9721 15370 1 0.16500 119244.000000
9722 15175 1 0.16500 119244.000000
9722 15713 1 0.16500 119244.000000
9723 15175 1 0.16500 119244.000000
9723 16502 1 0.16500 119244.000000
9724 15177 1 0.16500 119244.000000
9724 16359 1 0.16500 119244.000000
9725 15178 1 0.16500 119244.000000
9725 15447 1 0.16500 119244.000000
9726 15179 1 0.16500 119244.000000
9726 16586 1 0.16500 119244.000000
9727 12127 1 0.16500 119244.000000
9727 17731 1 0.16500 119244.000000
9728 15180 1 0.16500 119244.000000
9728 16251 1 0.16500 119244.000000
9729 15834 1 0.16500 119244.000000
9729 16144 1 0.16500 119244.000000
9730 15181 1 0.16500 119244.000000
9730 16144 1 0.16500 119244.000000
9731 15183 1 0.16500 119244.000000
9731 16217 1 0.16500 119244.000000
9732 15184 1 0.16500 119244.000000
9732 16028 1 0.16500 119244.000000
9733 15184 1 0.16500 119244.000000
9733 16627 1 0.16500 119244.000000
9734 15184 1 0.16500 119244.000000
9734 16295 1 0.16500 119244.000000
9735 15184 1 0.16500 119244.000000
9735 17008 1 0.16500 119244.000000
9736 15185 1 0.16500 119244.000000
9736 15486 1 0.16500 119244.000000
9737 15185 1 0.16500 119244.000000
9737 15965 1 0.16500 119244.000000
9738 15185 1 0.16500 119244.000000
9738 16013 1 0.16500 119244.000000
9739 15186 1 0.16500 119244.000000
9739 16148 1 0.16500 119244.000000
9740 13309 1 0.16500 119244.000000
9740 16399 1 0.16500 119244.000000
9741 15188 1 0.16500 119244.000000
9741 16075 1 0.16500 119244.000000
9742 15189 1 0.16500 119244.000000
9742 15871 1 0.16500 119244.000000
9743 15189 1 0.16500 119244.000000
9743 16405 1 0.16500 119244.000000
9744 15190 1 0.16500 119244.000000
9744 16468 1 0.16500 119244.000000
9745 15190 1 0.16500 119244.000000
9745 16720 1 0.16500 119244.000000
9746 15191 1 0.16500 119244.000000
9746 16125 1 0.16500 119244.000000
9747 15191 1 0.16500 119244.000000
9747 16318 1 0.16500 119244.000000
9748 15192 1 0.16500 119244.000000
9748 17096 1 0.16500 119244.000000
9749 15193 1 0.16500 119244.000000
9749 17104 1 0.16500 119244.000000
9750 15193 1 0.16500 119244.000000
9750 15312 1 0.16500 119244.000000
9751 15194 1 0.16500 119244.000000
9751 15939 1 0.16500 119244.000000
9752 15194 1 0.16500 119244.000000
9752 16161 1 0.16500 119244.000000
9753 15194 1 0.16500 119244.000000
9753 15903 1 0.16500 119244.000000
9754 15195 1 0.16500 119244.000000
9754 15601 1 0.16500 119244.000000
9755 15196 1 0.16500 119244.000000
9755 15213 1 0.16500 119244.000000
9756 15196 1 0.16500 119244.000000
9756 16671 1 0.16500 119244.000000
9757 15200 1 0.16500 119244.000000
9757 15650 1 0.16500 119244.000000
9758 15200 1 0.16500 119244.000000
9758 15514 1 0.16500 119244.000000
9759 15329 1 0.16500 119244.000000
9759 15982 1 0.16500 119244.000000
9760 15202 1 0.16500 119244.000000
9760 15329 1 0.16500 119244.000000
9761 15203 1 0.16500 119244.000000
9761 15227 1 0.16500 119244.000000
9762 15204 1 0.16500 119244.000000
9762 16985 1 0.16500 119244.000000
9763 15204 1 0.16500 119244.000000
9763 15824 1 0.16500 119244.000000
9764 15206 1 0.16500 119244.000000
9764 15234 1 0.16500 119244.000000
9765 15206 1 0.16500 119244.000000
9765 15940 1 0.16500 119244.000000
9766 15207 1 0.16500 119244.000000
9766 16071 1 0.16500 119244.000000
9767 15208 1 0.16500 119244.000000
9767 15708 1 0.16500 119244.000000
9768 15208 1 0.16500 119244.000000
9768 15848 1 0.16500 119244.000000
9769 15209 1 0.16500 119244.000000
9769 15293 1 0.16500 119244.000000
9770 15209 1 0.16500 119244.000000
9770 16073 1 0.16500 119244.000000
9771 15210 1 0.16500 119244.000000
9771 17136 1 0.16500 119244.000000
9772 15210 1 0.16500 119244.000000
9772 16383 1 0.16500 119244.000000
9773 15212 1 0.16500 119244.000000
9773 16001 1 0.16500 119244.000000
9774 15213 1 0.16500 119244.000000
9774 16500 1 0.16500 119244.000000
9775 15214 1 0.16500 119244.000000
9775 16369 1 0.16500 119244.000000
9776 15215 1 0.16500 119244.000000
9776 17087 1 0.16500 119244.000000
9777 14953 1 0.16500 119244.000000
9777 15745 1 0.16500 119244.000000
9778 15216 1 0.16500 119244.000000
9778 16553 1 0.16500 119244.000000
9779 15216 1 0.16500 119244.000000
9779 16042 1 0.16500 119244.000000
9780 15217 1 0.16500 119244.000000
9780 16809 1 0.16500 119244.000000
9781 15218 1 0.16500 119244.000000
9781 16620 1 0.16500 119244.000000
9782 15218 1 0.16500 119244.000000
9782 16967 1 0.16500 119244.000000
9783 15219 1 0.16500 119244.000000
9783 16974 1 0.16500 119244.000000
9784 15219 1 0.16500 119244.000000
9784 15372 1 0.16500 119244.000000
9785 15219 1 0.16500 119244.000000
9785 16097 1 0.16500 119244.000000
9786 15220 1 0.16500 119244.000000
9786 16583 1 0.16500 119244.000000
9787 15222 1 0.16500 119244.000000
9787 15292 1 0.16500 119244.000000
9788 13589 1 0.16500 119244.000000
9788 15222 1 0.16500 119244.000000
9789 15223 1 0.16500 119244.000000
9789 16376 1 0.16500 119244.000000
9790 15224 1 0.16500 119244.000000
9790 16818 1 0.16500 119244.000000
9791 15224 1 0.16500 119244.000000
9791 15978 1 0.16500 119244.000000
9792 15224 1 0.16500 119244.000000
9792 17764 1 0.16500 119244.000000
9793 15227 1 0.16500 119244.000000
9793 17191 1 0.16500 119244.000000
9794 15228 1 0.16500 119244.000000
9794 16610 1 0.16500 119244.000000
9795 15228 1 0.16500 119244.000000
9795 16250 1 0.16500 119244.000000
9796 15229 1 0.16500 119244.000000
9796 15593 1 0.16500 119244.000000
9797 11669 1 0.16500 119244.000000
9797 15229 1 0.16500 119244.000000
9798 15231 1 0.16500 119244.000000
9798 15811 1 0.16500 119244.000000
9799 15231 1 0.16500 119244.000000
9799 16076 1 0.16500 119244.000000
9800 15233 1 0.16500 119244.000000
9800 15538 1 0.16500 119244.000000
9801 15233 1 0.16500 119244.000000
9801 16055 1 0.16500 119244.000000
9802 15234 1 0.16500 119244.000000
9802 15647 1 0.16500 119244.000000
9803 15234 1 0.16500 119244.000000
9803 15817 1 0.16500 119244.000000
9804 15236 1 0.16500 119244.000000
9804 16196 1 0.16500 119244.000000
9805 15238 1 0.16500 119244.000000
9805 15393 1 0.16500 119244.000000
9806 15240 1 0.16500 119244.000000
9806 17165 1 0.16500 119244.000000
9807 15241 1 0.16500 119244.000000
9807 17123 1 0.16500 119244.000000
9808 15242 1 0.16500 119244.000000
9808 16887 1 0.16500 119244.000000
9809 15243 1 0.16500 119244.000000
9809 15328 1 0.16500 119244.000000
9810 15243 1 0.16500 119244.000000
9810 16004 1 0.16500 119244.000000
9811 15244 1 0.16500 119244.000000
9811 15287 1 0.16500 119244.000000
9812 15244 1 0.16500 119244.000000
9812 17098 1 0.16500 119244.000000
9813 15245 1 0.16500 119244.000000
9813 15254 1 0.16500 119244.000000
9814 15245 1 0.16500 119244.000000
9814 17017 1 0.16500 119244.000000
9815 15245 1 0.16500 119244.000000
9815 16259 1 0.16500 119244.000000
9816 15246 1 0.16500 119244.000000
9816 15383 1 0.16500 119244.000000
9817 13911 1 0.16500 119244.000000
9817 15247 1 0.16500 119244.000000
9818 15247 1 0.16500 119244.000000
9818 16768 1 0.16500 119244.000000
9819 15248 1 0.16500 119244.000000
9819 16376 1 0.16500 119244.000000
9820 15248 1 0.16500 119244.000000
9820 16552 1 0.16500 119244.000000
9821 15250 1 0.16500 119244.000000
9821 15664 1 0.16500 119244.000000
9822 15251 1 0.16500 119244.000000
9822 15406 1 0.16500 119244.000000
9823 15251 1 0.16500 119244.000000
9823 15473 1 0.16500 119244.000000
9824 15252 1 0.16500 119244.000000
9824 15568 1 0.16500 119244.000000
9825 16832 1 0.16500 119244.000000
9825 17740 1 0.16500 119244.000000
9826 15254 1 0.16500 119244.000000
9826 16797 1 0.16500 119244.000000
9827 15255 1 0.16500 119244.000000
9827 16455 1 0.16500 119244.000000
9828 15255 1 0.16500 119244.000000
9828 17827 1 0.16500 119244.000000
9829 15256 1 0.16500 119244.000000
9829 16423 1 0.16500 119244.000000
9830 15256 1 0.16500 119244.000000
9830 15648 1 0.16500 119244.000000
9831 15257 1 0.16500 119244.000000
9831 16869 1 0.16500 119244.000000
9832 15257 1 0.16500 119244.000000
9832 16450 1 0.16500 119244.000000
9833 15257 1 0.16500 119244.000000
9833 17001 1 0.16500 119244.000000
9834 15258 1 0.16500 119244.000000
9834 16212 1 0.16500 119244.000000
9835 15259 1 0.16500 119244.000000
9835 16846 1 0.16500 119244.000000
9836 15260 1 0.16500 119244.000000
9836 15437 1 0.16500 119244.000000
9837 14208 1 0.16500 119244.000000
9837 15260 1 0.16500 119244.000000
9838 15260 1 0.16500 119244.000000
9838 15822 1 0.16500 119244.000000
9839 13333 1 0.16500 119244.000000
9839 15262 1 0.16500 119244.000000
9840 15262 1 0.16500 119244.000000
9840 15924 1 0.16500 119244.000000
9841 15263 1 0.16500 119244.000000
9841 15655 1 0.16500 119244.000000
9842 15263 1 0.16500 119244.000000
9842 15350 1 0.16500 119244.000000
9843 15265 1 0.16500 119244.000000
9843 15449 1 0.16500 119244.000000
9844 15265 1 0.16500 119244.000000
9844 17998 1 0.16500 119244.000000
9845 15267 1 0.16500 119244.000000
9845 16982 1 0.16500 119244.000000
9846 11864 1 0.16500 119244.000000
9846 15267 1 0.16500 119244.000000
9847 11681 1 0.16500 119244.000000
9847 15267 1 0.16500 119244.000000
9848 15268 1 0.16500 119244.000000
9848 15583 1 0.16500 119244.000000
9849 15269 1 0.16500 119244.000000
9849 16115 1 0.16500 119244.000000
9850 15269 1 0.16500 119244.000000
9850 17065 1 0.16500 119244.000000
9851 15270 1 0.16500 119244.000000
9851 16438 1 0.16500 119244.000000
9852 15271 1 0.16500 119244.000000
9852 16344 1 0.16500 119244.000000
9853 15271 1 0.16500 119244.000000
9853 17089 1 0.16500 119244.000000
9854 15272 1 0.16500 119244.000000
9854 17153 1 0.16500 119244.000000
9855 15274 1 0.16500 119244.000000
9855 16520 1 0.16500 119244.000000
9856 15274 1 0.16500 119244.000000
9856 15391 1 0.16500 119244.000000
9857 15275 1 0.16500 119244.000000
9857 16831 1 0.16500 119244.000000
9858 15276 1 0.16500 119244.000000
9858 15327 1 0.16500 119244.000000
9859 15276 1 0.16500 119244.000000
9859 16518 1 0.16500 119244.000000
9860 15278 1 0.16500 119244.000000
9860 16215 1 0.16500 119244.000000
9861 15278 1 0.16500 119244.000000
9861 16012 1 0.16500 119244.000000
9862 15279 1 0.16500 119244.000000
9862 16765 1 0.16500 119244.000000
9863 15279 1 0.16500 119244.000000
9863 16769 1 0.16500 119244.000000
9864 15280 1 0.16500 119244.000000
9864 15462 1 0.16500 119244.000000
9865 15281 1 0.16500 119244.000000
9865 15529 1 0.16500 119244.000000
9866 15281 1 0.16500 119244.000000
9866 16278 1 0.16500 119244.000000
9867 15282 1 0.16500 119244.000000
9867 15997 1 0.16500 119244.000000
9868 15282 1 0.16500 119244.000000
9868 17041 1 0.16500 119244.000000
9869 15282 1 0.16500 119244.000000
9869 16126 1 0.16500 119244.000000
9870 15283 1 0.16500 119244.000000
9870 15493 1 0.16500 119244.000000
9871 15284 1 0.16500 119244.000000
9871 16548 1 0.16500 119244.000000
9872 15284 1 0.16500 119244.000000
9872 16725 1 0.16500 119244.000000
9873 15285 1 0.16500 119244.000000
9873 15914 1 0.16500 119244.000000
9874 15285 1 0.16500 119244.000000
9874 15460 1 0.16500 119244.000000
9875 15286 1 0.16500 119244.000000
9875 17044 1 0.16500 119244.000000
9876 15286 1 0.16500 119244.000000
9876 16312 1 0.16500 119244.000000
9877 15287 1 0.16500 119244.000000
9877 16950 1 0.16500 119244.000000
9878 15287 1 0.16500 119244.000000
9878 16026 1 0.16500 119244.000000
9879 15288 1 0.16500 119244.000000
9879 16056 1 0.16500 119244.000000
9880 15290 1 0.16500 119244.000000
9880 17072 1 0.16500 119244.000000
9881 15290 1 0.16500 119244.000000
9881 16074 1 0.16500 119244.000000
9882 15291 1 0.16500 119244.000000
9882 16103 1 0.16500 119244.000000
9883 15291 1 0.16500 119244.000000
9883 15999 1 0.16500 119244.000000
9884 15292 1 0.16500 119244.000000
9884 15457 1 0.16500 119244.000000
9885 15295 1 0.16500 119244.000000
9885 17154 1 0.16500 119244.000000
9886 15299 1 0.16500 119244.000000
9886 17150 1 0.16500 119244.000000
9887 13376 1 0.16500 119244.000000
9887 15891 1 0.16500 119244.000000
9888 15301 1 0.16500 119244.000000
9888 16690 1 0.16500 119244.000000
9889 13376 1 0.16500 119244.000000
9889 15301 1 0.16500 119244.000000
9890 15302 1 0.16500 119244.000000
9890 16788 1 0.16500 119244.000000
9891 15302 1 0.16500 119244.000000
9891 16949 1 0.16500 119244.000000
9892 13157 1 0.16500 119244.000000
9892 15302 1 0.16500 119244.000000
9893 15303 1 0.16500 119244.000000
9893 15582 1 0.16500 119244.000000
9894 15303 1 0.16500 119244.000000
9894 16548 1 0.16500 119244.000000
9895 15304 1 0.16500 119244.000000
9895 16888 1 0.16500 119244.000000
9896 15305 1 0.16500 119244.000000
9896 15719 1 0.16500 119244.000000
9897 15306 1 0.16500 119244.000000
9897 17152 1 0.16500 119244.000000
9898 15306 1 0.16500 119244.000000
9898 15834 1 0.16500 119244.000000
9899 15307 1 0.16500 119244.000000
9899 16364 1 0.16500 119244.000000
9900 15309 1 0.16500 119244.000000
9900 15932 1 0.16500 119244.000000
9901 15309 1 0.16500 119244.000000
9901 16431 1 0.16500 119244.000000
9902 15309 1 0.16500 119244.000000
9902 15335 1 0.16500 119244.000000
9903 16924 1 0.16500 119244.000000
9903 17746 1 0.16500 119244.000000
9904 15627 1 0.16500 119244.000000
9904 17746 1 0.16500 119244.000000
9905 16341 1 0.16500 119244.000000
9905 17746 1 0.16500 119244.000000
9906 15310 1 0.16500 119244.000000
9906 15758 1 0.16500 119244.000000
9907 15310 1 0.16500 119244.000000
9907 16757 1 0.16500 119244.000000
9908 15311 1 0.16500 119244.000000
9908 15818 1 0.16500 119244.000000
9909 15311 1 0.16500 119244.000000
9909 15948 1 0.16500 119244.000000
9910 15312 1 0.16500 119244.000000
9910 15634 1 0.16500 119244.000000
9911 15314 1 0.16500 119244.000000
9911 16350 1 0.16500 119244.000000
9912 15315 1 0.16500 119244.000000
9912 16960 1 0.16500 119244.000000
9913 15316 1 0.16500 119244.000000
9913 16600 1 0.16500 119244.000000
9914 15319 1 0.16500 119244.000000
9914 16235 1 0.16500 119244.000000
9915 15319 1 0.16500 119244.000000
9915 15532 1 0.16500 119244.000000
9916 15320 1 0.16500 119244.000000
9916 15522 1 0.16500 119244.000000
9917 15321 1 0.16500 119244.000000
9917 16794 1 0.16500 119244.000000
9918 15321 1 0.16500 119244.000000
9918 15561 1 0.16500 119244.000000
9919 15322 1 0.16500 119244.000000
9919 15896 1 0.16500 119244.000000
9920 15322 1 0.16500 119244.000000
9920 16560 1 0.16500 119244.000000
9921 15323 1 0.16500 119244.000000
9921 16562 1 0.16500 119244.000000
9922 14626 1 0.16500 119244.000000
9922 15324 1 0.16500 119244.000000
9923 13193 1 0.16500 119244.000000
9923 17155 1 0.16500 119244.000000
9924 15325 1 0.16500 119244.000000
9924 17054 1 0.16500 119244.000000
9925 15325 1 0.16500 119244.000000
9925 15579 1 0.16500 119244.000000
9926 15326 1 0.16500 119244.000000
9926 16026 1 0.16500 119244.000000
9927 15327 1 0.16500 119244.000000
9927 17905 1 0.16500 119244.000000
9928 15328 1 0.16500 119244.000000
9928 16703 1 0.16500 119244.000000
9929 15331 1 0.16500 119244.000000
9929 15998 1 0.16500 119244.000000
9930 15332 1 0.16500 119244.000000
9930 16620 1 0.16500 119244.000000
9931 15333 1 0.16500 119244.000000
9931 16820 1 0.16500 119244.000000
9932 15333 1 0.16500 119244.000000
9932 16046 1 0.16500 119244.000000
9933 15334 1 0.16500 119244.000000
9933 16689 1 0.16500 119244.000000
9934 15335 1 0.16500 119244.000000
9934 15673 1 0.16500 119244.000000
9935 15336 1 0.16500 119244.000000
9935 15391 1 0.16500 119244.000000
9936 15337 1 0.16500 119244.000000
9936 16173 1 0.16500 119244.000000
9937 15337 1 0.16500 119244.000000
9937 16066 1 0.16500 119244.000000
9938 13908 1 0.16500 119244.000000
9938 15338 1 0.16500 119244.000000
9939 12667 1 0.16500 119244.000000
9939 15339 1 0.16500 119244.000000
9940 14553 1 0.16500 119244.000000
9940 15676 1 0.16500 119244.000000
9941 15340 1 0.16500 119244.000000
9941 16741 1 0.16500 119244.000000
9942 15340 1 0.16500 119244.000000
9942 15434 1 0.16500 119244.000000
9943 15342 1 0.16500 119244.000000
9943 15667 1 0.16500 119244.000000
9944 15343 1 0.16500 119244.000000
9944 16185 1 0.16500 119244.000000
9945 15344 1 0.16500 119244.000000
9945 16566 1 0.16500 119244.000000
9946 15344 1 0.16500 119244.000000
9946 15812 1 0.16500 119244.000000
9947 15345 1 0.16500 119244.000000
9947 16415 1 0.16500 119244.000000
9948 15345 1 0.16500 119244.000000
9948 15838 1 0.16500 119244.000000
9949 15346 1 0.16500 119244.000000
9949 16168 1 0.16500 119244.000000
9950 15346 1 0.16500 119244.000000
9950 16451 1 0.16500 119244.000000
9951 15347 1 0.16500 119244.000000
9951 16285 1 0.16500 119244.000000
9952 15347 1 0.16500 119244.000000
9952 16183 1 0.16500 119244.000000
9953 15347 1 0.16500 119244.000000
9953 16167 1 0.16500 119244.000000
9954 15347 1 0.16500 119244.000000
9954 16275 1 0.16500 119244.000000
9955 11834 1 0.16500 119244.000000
9955 16003 1 0.16500 119244.000000
9956 15350 1 0.16500 119244.000000
9956 15441 1 0.16500 119244.000000
9957 15351 1 0.16500 119244.000000
9957 16390 1 0.16500 119244.000000
9958 15352 1 0.16500 119244.000000
9958 16354 1 0.16500 119244.000000
9959 15353 1 0.16500 119244.000000
9959 16830 1 0.16500 119244.000000
9960 15353 1 0.16500 119244.000000
9960 16928 1 0.16500 119244.000000
9961 15354 1 0.16500 119244.000000
9961 16236 1 0.16500 119244.000000
9962 16811 1 0.16500 119244.000000
9962 17752 1 0.16500 119244.000000
9963 15406 1 0.16500 119244.000000
9963 17752 1 0.16500 119244.000000
9964 15355 1 0.16500 119244.000000
9964 16129 1 0.16500 119244.000000
9965 15356 1 0.16500 119244.000000
9965 15374 1 0.16500 119244.000000
9966 15356 1 0.16500 119244.000000
9966 16893 1 0.16500 119244.000000
9967 15357 1 0.16500 119244.000000
9967 15597 1 0.16500 119244.000000
9968 15358 1 0.16500 119244.000000
9968 15680 1 0.16500 119244.000000
9969 15104 1 0.16500 119244.000000
9969 15358 1 0.16500 119244.000000
9970 15359 1 0.16500 119244.000000
9970 15935 1 0.16500 119244.000000
9971 15361 1 0.16500 119244.000000
9971 17172 1 0.16500 119244.000000
9972 15361 1 0.16500 119244.000000
9972 15677 1 0.16500 119244.000000
9973 15362 1 0.16500 119244.000000
9973 16224 1 0.16500 119244.000000
9974 14152 1 0.16500 119244.000000
9974 15363 1 0.16500 119244.000000
9975 15363 1 0.16500 119244.000000
9975 15720 1 0.16500 119244.000000
9976 15364 1 0.16500 119244.000000
9976 16471 1 0.16500 119244.000000
9977 15365 1 0.16500 119244.000000
9977 16312 1 0.16500 119244.000000
9978 11940 1 0.16500 119244.000000
9978 16914 1 0.16500 119244.000000
9979 14070 1 0.16500 119244.000000
9979 15367 1 0.16500 119244.000000
9980 15367 1 0.16500 119244.000000
9980 15552 1 0.16500 119244.000000
9981 13630 1 0.16500 119244.000000
9981 15484 1 0.16500 119244.000000
9982 15369 1 0.16500 119244.000000
9982 16819 1 0.16500 119244.000000
9983 15370 1 0.16500 119244.000000
9983 15853 1 0.16500 119244.000000
9984 15371 1 0.16500 119244.000000
9984 16226 1 0.16500 119244.000000
9985 15371 1 0.16500 119244.000000
9985 16442 1 0.16500 119244.000000
9986 15372 1 0.16500 119244.000000
9986 17126 1 0.16500 119244.000000
9987 15375 1 0.16500 119244.000000
9987 16166 1 0.16500 119244.000000
9988 15376 1 0.16500 119244.000000
9988 15866 1 0.16500 119244.000000
9989 15376 1 0.16500 119244.000000
9989 16403 1 0.16500 119244.000000
9990 15378 1 0.16500 119244.000000
9990 17887 1 0.16500 119244.000000
9991 15379 1 0.16500 119244.000000
9991 16041 1 0.16500 119244.000000
9992 15379 1 0.16500 119244.000000
9992 16308 1 0.16500 119244.000000
9993 15380 1 0.16500 119244.000000
9993 17869 1 0.16500 119244.000000
9994 15977 1 0.16500 119244.000000
9994 16356 1 0.16500 119244.000000
9995 15380 1 0.16500 119244.000000
9995 16356 1 0.16500 119244.000000
9996 15381 1 0.16500 119244.000000
9996 16575 1 0.16500 119244.000000
9997 15384 1 0.16500 119244.000000
9997 16084 1 0.16500 119244.000000
9998 15384 1 0.16500 119244.000000
9998 16478 1 0.16500 119244.000000
9999 13097 1 0.16500 119244.000000
9999 15385 1 0.16500 119244.000000
10000 15385 1 0.16500 119244.000000
10000 15481 1 0.16500 119244.000000
10001 15385 1 0.16500 119244.000000
10001 16398 1 0.16500 119244.000000
10002 15387 1 0.16500 119244.000000
10002 16015 1 0.16500 119244.000000
10003 15387 1 0.16500 119244.000000
10003 16137 1 0.16500 119244.000000
10004 15387 1 0.16500 119244.000000
10004 16905 1 0.16500 119244.000000
10005 15388 1 0.16500 119244.000000
10005 16797 1 0.16500 119244.000000
10006 15388 1 0.16500 119244.000000
10006 15843 1 0.16500 119244.000000
10007 15389 1 0.16500 119244.000000
10007 17060 1 0.16500 119244.000000
10008 15390 1 0.16500 119244.000000
10008 15959 1 0.16500 119244.000000
10009 15391 1 0.16500 119244.000000
10009 15900 1 0.16500 119244.000000
10010 15392 1 0.16500 119244.000000
10010 15490 1 0.16500 119244.000000
10011 15392 1 0.16500 119244.000000
10011 17080 1 0.16500 119244.000000
10012 15394 1 0.16500 119244.000000
10012 17773 1 0.16500 119244.000000
10013 15395 1 0.16500 119244.000000
10013 16472 1 0.16500 119244.000000
10014 15395 1 0.16500 119244.000000
10014 15995 1 0.16500 119244.000000
10015 15396 1 0.16500 119244.000000
10015 15732 1 0.16500 119244.000000
10016 15397 1 0.16500 119244.000000
10016 16584 1 0.16500 119244.000000
10017 15397 1 0.16500 119244.000000
10017 16804 1 0.16500 119244.000000
10018 15398 1 0.16500 119244.000000
10018 16566 1 0.16500 119244.000000
10019 15398 1 0.16500 119244.000000
10019 16024 1 0.16500 119244.000000
10020 15398 1 0.16500 119244.000000
10020 16508 1 0.16500 119244.000000
10021 15399 1 0.16500 119244.000000
10021 15503 1 0.16500 119244.000000
10022 13542 1 0.16500 119244.000000
10022 15400 1 0.16500 119244.000000
10023 15400 1 0.16500 119244.000000
10023 16914 1 0.16500 119244.000000
10024 13542 1 0.16500 119244.000000
10024 17079 1 0.16500 119244.000000
10025 15401 1 0.16500 119244.000000
10025 16420 1 0.16500 119244.000000
10026 15402 1 0.16500 119244.000000
10026 16824 1 0.16500 119244.000000
10027 15403 1 0.16500 119244.000000
10027 15722 1 0.16500 119244.000000
10028 14413 1 0.16500 119244.000000
10028 15403 1 0.16500 119244.000000
10029 15405 1 0.16500 119244.000000
10029 16029 1 0.16500 119244.000000
10030 15407 1 0.16500 119244.000000
10030 16755 1 0.16500 119244.000000
10031 15408 1 0.16500 119244.000000
10031 15634 1 0.16500 119244.000000
10032 13757 1 0.16500 119244.000000
10032 15878 1 0.16500 119244.000000
10033 15409 1 0.16500 119244.000000
10033 17848 1 0.16500 119244.000000
10034 15413 1 0.16500 119244.000000
10034 17818 1 0.16500 119244.000000
10035 15413 1 0.16500 119244.000000
10035 15993 1 0.16500 119244.000000
10036 15413 1 0.16500 119244.000000
10036 17172 1 0.16500 119244.000000
10037 15414 1 0.16500 119244.000000
10037 17171 1 0.16500 119244.000000
10038 12812 1 0.16500 119244.000000
10038 15414 1 0.16500 119244.000000
10039 15415 1 0.16500 119244.000000
10039 17027 1 0.16500 119244.000000
10040 15416 1 0.16500 119244.000000
10040 15616 1 0.16500 119244.000000
10041 15417 1 0.16500 119244.000000
10041 16753 1 0.16500 119244.000000
10042 15418 1 0.16500 119244.000000
10042 16417 1 0.16500 119244.000000
10043 15418 1 0.16500 119244.000000
10043 16917 1 0.16500 119244.000000
10044 15420 1 0.16500 119244.000000
10044 16967 1 0.16500 119244.000000
10045 15420 1 0.16500 119244.000000
10045 16444 1 0.16500 119244.000000
10046 16602 1 0.16500 119244.000000
10046 17761 1 0.16500 119244.000000
10047 16789 1 0.16500 119244.000000
10047 17761 1 0.16500 119244.000000
10048 15421 1 0.16500 119244.000000
10048 17788 1 0.16500 119244.000000
10049 15422 1 0.16500 119244.000000
10049 17929 1 0.16500 119244.000000
10050 15422 1 0.16500 119244.000000
10050 16120 1 0.16500 119244.000000
10051 15862 1 0.16500 119244.000000
10051 17764 1 0.16500 119244.000000
10052 13433 1 0.16500 119244.000000
10052 17098 1 0.16500 119244.000000
10053 15424 1 0.16500 119244.000000
10053 17055 1 0.16500 119244.000000
10054 15425 1 0.16500 119244.000000
10054 15606 1 0.16500 119244.000000
10055 13414 1 0.16500 119244.000000
10055 15542 1 0.16500 119244.000000
10056 15427 1 0.16500 119244.000000
10056 17110 1 0.16500 119244.000000
10057 15428 1 0.16500 119244.000000
10057 16821 1 0.16500 119244.000000
10058 15428 1 0.16500 119244.000000
10058 16460 1 0.16500 119244.000000
10059 15430 1 0.16500 119244.000000
10059 17178 1 0.16500 119244.000000
10060 15430 1 0.16500 119244.000000
10060 16329 1 0.16500 119244.000000
10061 15430 1 0.16500 119244.000000
10061 16655 1 0.16500 119244.000000
10062 16009 1 0.16500 119244.000000
10062 17012 1 0.16500 119244.000000
10063 14289 1 0.16500 119244.000000
10063 17920 1 0.16500 119244.000000
10064 15433 1 0.16500 119244.000000
10064 16672 1 0.16500 119244.000000
10065 15435 1 0.16500 119244.000000
10065 16954 1 0.16500 119244.000000
10066 15435 1 0.16500 119244.000000
10066 16289 1 0.16500 119244.000000
10067 15436 1 0.16500 119244.000000
10067 16567 1 0.16500 119244.000000
10068 15440 1 0.16500 119244.000000
10068 15934 1 0.16500 119244.000000
10069 12422 1 0.16500 119244.000000
10069 15440 1 0.16500 119244.000000
10070 15441 1 0.16500 119244.000000
10070 16699 1 0.16500 119244.000000
10071 15442 1 0.16500 119244.000000
10071 15534 1 0.16500 119244.000000
10072 15443 1 0.16500 119244.000000
10072 15805 1 0.16500 119244.000000
10073 15443 1 0.16500 119244.000000
10073 16750 1 0.16500 119244.000000
10074 15444 1 0.16500 119244.000000
10074 16482 1 0.16500 119244.000000
10075 13310 1 0.16500 119244.000000
10075 17977 1 0.16500 119244.000000
10076 15445 1 0.16500 119244.000000
10076 15964 1 0.16500 119244.000000
10077 15446 1 0.16500 119244.000000
10077 16913 1 0.16500 119244.000000
10078 15446 1 0.16500 119244.000000
10078 16972 1 0.16500 119244.000000
10079 15446 1 0.16500 119244.000000
10079 17007 1 0.16500 119244.000000
10080 13611 1 0.16500 119244.000000
10080 16314 1 0.16500 119244.000000
10081 15448 1 0.16500 119244.000000
10081 16001 1 0.16500 119244.000000
10082 14951 1 0.16500 119244.000000
10082 16138 1 0.16500 119244.000000
10083 15452 1 0.16500 119244.000000
10083 17123 1 0.16500 119244.000000
10084 13188 1 0.16500 119244.000000
10084 16459 1 0.16500 119244.000000
10085 15453 1 0.16500 119244.000000
10085 16698 1 0.16500 119244.000000
10086 15453 1 0.16500 119244.000000
10086 15685 1 0.16500 119244.000000
10087 15454 1 0.16500 119244.000000
10087 17016 1 0.16500 119244.000000
10088 15455 1 0.16500 119244.000000
10088 15601 1 0.16500 119244.000000
10089 15456 1 0.16500 119244.000000
10089 16343 1 0.16500 119244.000000
10090 15457 1 0.16500 119244.000000
10090 15714 1 0.16500 119244.000000
10091 15459 1 0.16500 119244.000000
10091 16635 1 0.16500 119244.000000
10092 11915 1 0.16500 119244.000000
10092 15459 1 0.16500 119244.000000
10093 15460 1 0.16500 119244.000000
10093 17076 1 0.16500 119244.000000
10094 15460 1 0.16500 119244.000000
10094 15504 1 0.16500 119244.000000
10095 15461 1 0.16500 119244.000000
10095 16761 1 0.16500 119244.000000
10096 15461 1 0.16500 119244.000000
10096 16790 1 0.16500 119244.000000
10097 15462 1 0.16500 119244.000000
10097 15694 1 0.16500 119244.000000
10098 15468 1 0.16500 119244.000000
10098 16900 1 0.16500 119244.000000
10099 15468 1 0.16500 119244.000000
10099 16179 1 0.16500 119244.000000
10100 15468 1 0.16500 119244.000000
10100 16228 1 0.16500 119244.000000
10101 15469 1 0.16500 119244.000000
10101 17082 1 0.16500 119244.000000
10102 15470 1 0.16500 119244.000000
10102 17037 1 0.16500 119244.000000
10103 15470 1 0.16500 119244.000000
10103 16995 1 0.16500 119244.000000
10104 15472 1 0.16500 119244.000000
10104 15692 1 0.16500 119244.000000
10105 13024 1 0.16500 119244.000000
10105 16216 1 0.16500 119244.000000
10106 15475 1 0.16500 119244.000000
10106 17063 1 0.16500 119244.000000
10107 15476 1 0.16500 119244.000000
10107 17034 1 0.16500 119244.000000
10108 15477 1 0.16500 119244.000000
10108 16149 1 0.16500 119244.000000
10109 15477 1 0.16500 119244.000000
10109 16566 1 0.16500 119244.000000
10110 15478 1 0.16500 119244.000000
10110 15498 1 0.16500 119244.000000
10111 15478 1 0.16500 119244.000000
10111 16124 1 0.16500 119244.000000
10112 15479 1 0.16500 119244.000000
10112 15587 1 0.16500 119244.000000
10113 15479 1 0.16500 119244.000000
10113 16495 1 0.16500 119244.000000
10114 15480 1 0.16500 119244.000000
10114 15500 1 0.16500 119244.000000
10115 15481 1 0.16500 119244.000000
10115 17071 1 0.16500 119244.000000
10116 15481 1 0.16500 119244.000000
10116 15537 1 0.16500 119244.000000
10117 15482 1 0.16500 119244.000000
10117 16911 1 0.16500 119244.000000
10118 15482 1 0.16500 119244.000000
10118 15499 1 0.16500 119244.000000
10119 14385 1 0.16500 119244.000000
10119 16719 1 0.16500 119244.000000
10120 15484 1 0.16500 119244.000000
10120 15530 1 0.16500 119244.000000
10121 15969 1 0.16500 119244.000000
10121 17770 1 0.16500 119244.000000
10122 15486 1 0.16500 119244.000000
10122 16095 1 0.16500 119244.000000
10123 15487 1 0.16500 119244.000000
10123 16033 1 0.16500 119244.000000
10124 15489 1 0.16500 119244.000000
10124 16739 1 0.16500 119244.000000
10125 15490 1 0.16500 119244.000000
10125 15753 1 0.16500 119244.000000
10126 15490 1 0.16500 119244.000000
10126 16099 1 0.16500 119244.000000
10127 15491 1 0.16500 119244.000000
10127 16988 1 0.16500 119244.000000
10128 15492 1 0.16500 119244.000000
10128 16504 1 0.16500 119244.000000
10129 15494 1 0.16500 119244.000000
10129 15537 1 0.16500 119244.000000
10130 15494 1 0.16500 119244.000000
10130 16502 1 0.16500 119244.000000
10131 15495 1 0.16500 119244.000000
10131 15972 1 0.16500 119244.000000
10132 15496 1 0.16500 119244.000000
10132 16100 1 0.16500 119244.000000
10133 15496 1 0.16500 119244.000000
10133 15643 1 0.16500 119244.000000
10134 14522 1 0.16500 119244.000000
10134 15496 1 0.16500 119244.000000
10135 15496 1 0.16500 119244.000000
10135 15661 1 0.16500 119244.000000
10136 15497 1 0.16500 119244.000000
10136 16609 1 0.16500 119244.000000
10137 15498 1 0.16500 119244.000000
10137 15631 1 0.16500 119244.000000
10138 15499 1 0.16500 119244.000000
10138 16382 1 0.16500 119244.000000
10139 15501 1 0.16500 119244.000000
10139 15964 1 0.16500 119244.000000
10140 15502 1 0.16500 119244.000000
10140 17866 1 0.16500 119244.000000
10141 15505 1 0.16500 119244.000000
10141 16478 1 0.16500 119244.000000
10142 15506 1 0.16500 119244.000000
10142 15968 1 0.16500 119244.000000
10143 16661 1 0.16500 119244.000000
10143 18114 1 0.16500 119244.000000
10144 15507 1 0.16500 119244.000000
10144 16649 1 0.16500 119244.000000
10145 15508 1 0.16500 119244.000000
10145 16298 1 0.16500 119244.000000
10146 15508 1 0.16500 119244.000000
10146 17914 1 0.16500 119244.000000
10147 15508 1 0.16500 119244.000000
10147 15961 1 0.16500 119244.000000
10148 15511 1 0.16500 119244.000000
10148 17186 1 0.16500 119244.000000
10149 15511 1 0.16500 119244.000000
10149 15817 1 0.16500 119244.000000
10150 15831 1 0.16500 119244.000000
10150 16390 1 0.16500 119244.000000
10151 15512 1 0.16500 119244.000000
10151 16390 1 0.16500 119244.000000
10152 15513 1 0.16500 119244.000000
10152 17143 1 0.16500 119244.000000
10153 15515 1 0.16500 119244.000000
10153 15738 1 0.16500 119244.000000
10154 15515 1 0.16500 119244.000000
10154 16126 1 0.16500 119244.000000
10155 15517 1 0.16500 119244.000000
10155 16023 1 0.16500 119244.000000
10156 13051 1 0.16500 119244.000000
10156 17049 1 0.16500 119244.000000
10157 15518 1 0.16500 119244.000000
10157 17167 1 0.16500 119244.000000
10158 15519 1 0.16500 119244.000000
10158 16924 1 0.16500 119244.000000
10159 15520 1 0.16500 119244.000000
10159 15685 1 0.16500 119244.000000
10160 15521 1 0.16500 119244.000000
10160 16757 1 0.16500 119244.000000
10161 15523 1 0.16500 119244.000000
10161 16226 1 0.16500 119244.000000
10162 15523 1 0.16500 119244.000000
10162 15670 1 0.16500 119244.000000
10163 15524 1 0.16500 119244.000000
10163 16617 1 0.16500 119244.000000
10164 15524 1 0.16500 119244.000000
10164 15701 1 0.16500 119244.000000
10165 16652 1 0.16500 119244.000000
10165 17773 1 0.16500 119244.000000
10166 15526 1 0.16500 119244.000000
10166 15839 1 0.16500 119244.000000
10167 15527 1 0.16500 119244.000000
10167 15749 1 0.16500 119244.000000
10168 15528 1 0.16500 119244.000000
10168 17158 1 0.16500 119244.000000
10169 15528 1 0.16500 119244.000000
10169 16614 1 0.16500 119244.000000
10170 15529 1 0.16500 119244.000000
10170 16827 1 0.16500 119244.000000
10171 15530 1 0.16500 119244.000000
10171 15862 1 0.16500 119244.000000
10172 15531 1 0.16500 119244.000000
10172 16932 1 0.16500 119244.000000
10173 15531 1 0.16500 119244.000000
10173 15910 1 0.16500 119244.000000
10174 15532 1 0.16500 119244.000000
10174 17163 1 0.16500 119244.000000
10175 15533 1 0.16500 119244.000000
10175 16040 1 0.16500 119244.000000
10176 15533 1 0.16500 119244.000000
10176 15636 1 0.16500 119244.000000
10177 15534 1 0.16500 119244.000000
10177 16646 1 0.16500 119244.000000
10178 15535 1 0.16500 119244.000000
10178 16285 1 0.16500 119244.000000
10179 15535 1 0.16500 119244.000000
10179 16040 1 0.16500 119244.000000
10180 15535 1 0.16500 119244.000000
10180 17159 1 0.16500 119244.000000
10181 15537 1 0.16500 119244.000000
10181 15713 1 0.16500 119244.000000
10182 15537 1 0.16500 119244.000000
10182 16656 1 0.16500 119244.000000
10183 15538 1 0.16500 119244.000000
10183 17158 1 0.16500 119244.000000
10184 15538 1 0.16500 119244.000000
10184 16328 1 0.16500 119244.000000
10185 16676 1 0.16500 119244.000000
10185 17779 1 0.16500 119244.000000
10186 15539 1 0.16500 119244.000000
10186 16033 1 0.16500 119244.000000
10187 15540 1 0.16500 119244.000000
10187 16603 1 0.16500 119244.000000
10188 15540 1 0.16500 119244.000000
10188 15960 1 0.16500 119244.000000
10189 15542 1 0.16500 119244.000000
10189 16212 1 0.16500 119244.000000
10190 15543 1 0.16500 119244.000000
10190 16731 1 0.16500 119244.000000
10191 15543 1 0.16500 119244.000000
10191 16837 1 0.16500 119244.000000
10192 15544 1 0.16500 119244.000000
10192 16279 1 0.16500 119244.000000
10193 13898 1 0.16500 119244.000000
10193 15544 1 0.16500 119244.000000
10194 15545 1 0.16500 119244.000000
10194 16785 1 0.16500 119244.000000
10195 12454 1 0.16500 119244.000000
10195 16785 1 0.16500 119244.000000
10196 15546 1 0.16500 119244.000000
10196 17175 1 0.16500 119244.000000
10197 15546 1 0.16500 119244.000000
10197 15567 1 0.16500 119244.000000
10198 15547 1 0.16500 119244.000000
10198 16848 1 0.16500 119244.000000
10199 16670 1 0.16500 119244.000000
10199 17782 1 0.16500 119244.000000
10200 15548 1 0.16500 119244.000000
10200 16217 1 0.16500 119244.000000
10201 15549 1 0.16500 119244.000000
10201 15703 1 0.16500 119244.000000
10202 15549 1 0.16500 119244.000000
10202 17192 1 0.16500 119244.000000
10203 15550 1 0.16500 119244.000000
10203 15718 1 0.16500 119244.000000
10204 15551 1 0.16500 119244.000000
10204 16580 1 0.16500 119244.000000
10205 15552 1 0.16500 119244.000000
10205 16510 1 0.16500 119244.000000
10206 12268 1 0.16500 119244.000000
10206 15554 1 0.16500 119244.000000
10207 15554 1 0.16500 119244.000000
10207 15831 1 0.16500 119244.000000
10208 15554 1 0.16500 119244.000000
10208 16632 1 0.16500 119244.000000
10209 15555 1 0.16500 119244.000000
10209 16307 1 0.16500 119244.000000
10210 15555 1 0.16500 119244.000000
10210 16699 1 0.16500 119244.000000
10211 15556 1 0.16500 119244.000000
10211 16380 1 0.16500 119244.000000
10212 15556 1 0.16500 119244.000000
10212 16315 1 0.16500 119244.000000
10213 15557 1 0.16500 119244.000000
10213 16314 1 0.16500 119244.000000
10214 15558 1 0.16500 119244.000000
10214 15728 1 0.16500 119244.000000
10215 15558 1 0.16500 119244.000000
10215 17051 1 0.16500 119244.000000
10216 15559 1 0.16500 119244.000000
10216 16803 1 0.16500 119244.000000
10217 15560 1 0.16500 119244.000000
10217 16460 1 0.16500 119244.000000
10218 15561 1 0.16500 119244.000000
10218 16089 1 0.16500 119244.000000
10219 15561 1 0.16500 119244.000000
10219 16470 1 0.16500 119244.000000
10220 15562 1 0.16500 119244.000000
10220 15806 1 0.16500 119244.000000
10221 15562 1 0.16500 119244.000000
10221 15721 1 0.16500 119244.000000
10222 15562 1 0.16500 119244.000000
10222 17980 1 0.16500 119244.000000
10223 15563 1 0.16500 119244.000000
10223 16492 1 0.16500 119244.000000
10224 15564 1 0.16500 119244.000000
10224 16173 1 0.16500 119244.000000
10225 15565 1 0.16500 119244.000000
10225 16959 1 0.16500 119244.000000
10226 15565 1 0.16500 119244.000000
10226 17170 1 0.16500 119244.000000
10227 15565 1 0.16500 119244.000000
10227 16730 1 0.16500 119244.000000
10228 15566 1 0.16500 119244.000000
10228 16808 1 0.16500 119244.000000
10229 15567 1 0.16500 119244.000000
10229 17194 1 0.16500 119244.000000
10230 16710 1 0.16500 119244.000000
10230 17785 1 0.16500 119244.000000
10231 15568 1 0.16500 119244.000000
10231 16229 1 0.16500 119244.000000
10232 15569 1 0.16500 119244.000000
10232 15739 1 0.16500 119244.000000
10233 15569 1 0.16500 119244.000000
10233 15894 1 0.16500 119244.000000
10234 15570 1 0.16500 119244.000000
10234 17073 1 0.16500 119244.000000
10235 15570 1 0.16500 119244.000000
10235 16876 1 0.16500 119244.000000
10236 15571 1 0.16500 119244.000000
10236 16667 1 0.16500 119244.000000
10237 15571 1 0.16500 119244.000000
10237 16185 1 0.16500 119244.000000
10238 13591 1 0.16500 119244.000000
10238 15573 1 0.16500 119244.000000
10239 11777 1 0.16500 119244.000000
10239 15573 1 0.16500 119244.000000
10240 15574 1 0.16500 119244.000000
10240 16342 1 0.16500 119244.000000
10241 15574 1 0.16500 119244.000000
10241 16322 1 0.16500 119244.000000
10242 15575 1 0.16500 119244.000000
10242 16480 1 0.16500 119244.000000
10243 15575 1 0.16500 119244.000000
10243 15883 1 0.16500 119244.000000
10244 15576 1 0.16500 119244.000000
10244 17195 1 0.16500 119244.000000
10245 15578 1 0.16500 119244.000000
10245 17074 1 0.16500 119244.000000
10246 15579 1 0.16500 119244.000000
10246 16047 1 0.16500 119244.000000
10247 15580 1 0.16500 119244.000000
10247 16104 1 0.16500 119244.000000
10248 14000 1 0.16500 119244.000000
10248 15581 1 0.16500 119244.000000
10249 15581 1 0.16500 119244.000000
10249 16851 1 0.16500 119244.000000
10250 15582 1 0.16500 119244.000000
10250 15734 1 0.16500 119244.000000
10251 15583 1 0.16500 119244.000000
10251 15946 1 0.16500 119244.000000
10252 15583 1 0.16500 119244.000000
10252 15883 1 0.16500 119244.000000
10253 15585 1 0.16500 119244.000000
10253 15656 1 0.16500 119244.000000
10254 15585 1 0.16500 119244.000000
10254 15717 1 0.16500 119244.000000
10255 15587 1 0.16500 119244.000000
10255 17144 1 0.16500 119244.000000
10256 15588 1 0.16500 119244.000000
10256 17173 1 0.16500 119244.000000
10257 15588 1 0.16500 119244.000000
10257 15947 1 0.16500 119244.000000
10258 15590 1 0.16500 119244.000000
10258 17157 1 0.16500 119244.000000
10259 15168 1 0.16500 119244.000000
10259 16222 1 0.16500 119244.000000
10260 15592 1 0.16500 119244.000000
10260 16624 1 0.16500 119244.000000
10261 15592 1 0.16500 119244.000000
10261 17000 1 0.16500 119244.000000
10262 15593 1 0.16500 119244.000000
10262 15912 1 0.16500 119244.000000
10263 15594 1 0.16500 119244.000000
10263 15724 1 0.16500 119244.000000
10264 15594 1 0.16500 119244.000000
10264 16927 1 0.16500 119244.000000
10265 15595 1 0.16500 119244.000000
10265 15674 1 0.16500 119244.000000
10266 15272 1 0.16500 119244.000000
10266 15596 1 0.16500 119244.000000
10267 15596 1 0.16500 119244.000000
10267 16278 1 0.16500 119244.000000
10268 15597 1 0.16500 119244.000000
10268 16246 1 0.16500 119244.000000
10269 15597 1 0.16500 119244.000000
10269 16403 1 0.16500 119244.000000
10270 15599 1 0.16500 119244.000000
10270 15692 1 0.16500 119244.000000
10271 15599 1 0.16500 119244.000000
10271 15741 1 0.16500 119244.000000
10272 14402 1 0.16500 119244.000000
10272 17079 1 0.16500 119244.000000
10273 15600 1 0.16500 119244.000000
10273 16709 1 0.16500 119244.000000
10274 15603 1 0.16500 119244.000000
10274 17156 1 0.16500 119244.000000
10275 11671 1 0.16500 119244.000000
10275 16592 1 0.16500 119244.000000
10276 15604 1 0.16500 119244.000000
10276 15984 1 0.16500 119244.000000
10277 15606 1 0.16500 119244.000000
10277 16426 1 0.16500 119244.000000
10278 15606 1 0.16500 119244.000000
10278 15753 1 0.16500 119244.000000
10279 15608 1 0.16500 119244.000000
10279 16777 1 0.16500 119244.000000
10280 15608 1 0.16500 119244.000000
10280 17168 1 0.16500 119244.000000
10281 15609 1 0.16500 119244.000000
10281 15652 1 0.16500 119244.000000
10282 15611 1 0.16500 119244.000000
10282 16384 1 0.16500 119244.000000
10283 15611 1 0.16500 119244.000000
10283 15657 1 0.16500 119244.000000
10284 15612 1 0.16500 119244.000000
10284 16945 1 0.16500 119244.000000
10285 12911 1 0.16500 119244.000000
10285 16827 1 0.16500 119244.000000
10286 15614 1 0.16500 119244.000000
10286 16280 1 0.16500 119244.000000
10287 15616 1 0.16500 119244.000000
10287 17068 1 0.16500 119244.000000
10288 15617 1 0.16500 119244.000000
10288 16866 1 0.16500 119244.000000
10289 15619 1 0.16500 119244.000000
10289 15832 1 0.16500 119244.000000
10290 12188 1 0.16500 119244.000000
10290 13347 1 0.16500 119244.000000
10291 15620 1 0.16500 119244.000000
10291 15754 1 0.16500 119244.000000
10292 15623 1 0.16500 119244.000000
10292 17190 1 0.16500 119244.000000
10293 15624 1 0.16500 119244.000000
10293 15706 1 0.16500 119244.000000
10294 15624 1 0.16500 119244.000000
10294 16820 1 0.16500 119244.000000
10295 15625 1 0.16500 119244.000000
10295 15887 1 0.16500 119244.000000
10296 14427 1 0.16500 119244.000000
10296 17788 1 0.16500 119244.000000
10297 15631 1 0.16500 119244.000000
10297 17197 1 0.16500 119244.000000
10298 15631 1 0.16500 119244.000000
10298 17168 1 0.16500 119244.000000
10299 15633 1 0.16500 119244.000000
10299 16978 1 0.16500 119244.000000
10300 15637 1 0.16500 119244.000000
10300 16297 1 0.16500 119244.000000
10301 15637 1 0.16500 119244.000000
10301 16622 1 0.16500 119244.000000
10302 16089 1 0.16500 119244.000000
10302 16297 1 0.16500 119244.000000
10303 15638 1 0.16500 119244.000000
10303 16698 1 0.16500 119244.000000
10304 15639 1 0.16500 119244.000000
10304 15874 1 0.16500 119244.000000
10305 15640 1 0.16500 119244.000000
10305 16639 1 0.16500 119244.000000
10306 16719 1 0.16500 119244.000000
10306 17821 1 0.16500 119244.000000
10307 17794 1 0.16500 119244.000000
10307 17821 1 0.16500 119244.000000
10308 15642 1 0.16500 119244.000000
10308 16674 1 0.16500 119244.000000
10309 15643 1 0.16500 119244.000000
10309 17168 1 0.16500 119244.000000
10310 15643 1 0.16500 119244.000000
10310 16777 1 0.16500 119244.000000
10311 15644 1 0.16500 119244.000000
10311 15748 1 0.16500 119244.000000
10312 15644 1 0.16500 119244.000000
10312 15930 1 0.16500 119244.000000
10313 15645 1 0.16500 119244.000000
10313 16692 1 0.16500 119244.000000
10314 15911 1 0.16500 119244.000000
10314 17797 1 0.16500 119244.000000
10315 14738 1 0.16500 119244.000000
10315 15646 1 0.16500 119244.000000
10316 15646 1 0.16500 119244.000000
10316 15913 1 0.16500 119244.000000
10317 15647 1 0.16500 119244.000000
10317 17130 1 0.16500 119244.000000
10318 15649 1 0.16500 119244.000000
10318 16640 1 0.16500 119244.000000
10319 15649 1 0.16500 119244.000000
10319 16626 1 0.16500 119244.000000
10320 15649 1 0.16500 119244.000000
10320 16449 1 0.16500 119244.000000
10321 15650 1 0.16500 119244.000000
10321 16349 1 0.16500 119244.000000
10322 15650 1 0.16500 119244.000000
10322 16090 1 0.16500 119244.000000
10323 15652 1 0.16500 119244.000000
10323 15952 1 0.16500 119244.000000
10324 15655 1 0.16500 119244.000000
10324 16215 1 0.16500 119244.000000
10325 15656 1 0.16500 119244.000000
10325 16082 1 0.16500 119244.000000
10326 15656 1 0.16500 119244.000000
10326 16137 1 0.16500 119244.000000
10327 15657 1 0.16500 119244.000000
10327 16165 1 0.16500 119244.000000
10328 15658 1 0.16500 119244.000000
10328 15998 1 0.16500 119244.000000
10329 15659 1 0.16500 119244.000000
10329 16802 1 0.16500 119244.000000
10330 16858 1 0.16500 119244.000000
10330 17800 1 0.16500 119244.000000
10331 15660 1 0.16500 119244.000000
10331 15840 1 0.16500 119244.000000
10332 12583 1 0.16500 119244.000000
10332 15660 1 0.16500 119244.000000
10333 15662 1 0.16500 119244.000000
10333 16541 1 0.16500 119244.000000
10334 15663 1 0.16500 119244.000000
10334 16421 1 0.16500 119244.000000
10335 15663 1 0.16500 119244.000000
10335 15719 1 0.16500 119244.000000
10336 15665 1 0.16500 119244.000000
10336 16012 1 0.16500 119244.000000
10337 15666 1 0.16500 119244.000000
10337 16441 1 0.16500 119244.000000
10338 15666 1 0.16500 119244.000000
10338 16619 1 0.16500 119244.000000
10339 16267 1 0.16500 119244.000000
10339 16740 1 0.16500 119244.000000
10340 15668 1 0.16500 119244.000000
10340 16267 1 0.16500 119244.000000
10341 15669 1 0.16500 119244.000000
10341 16095 1 0.16500 119244.000000
10342 15670 1 0.16500 119244.000000
10342 15970 1 0.16500 119244.000000
10343 15670 1 0.16500 119244.000000
10343 16697 1 0.16500 119244.000000
10344 15672 1 0.16500 119244.000000
10344 17198 1 0.16500 119244.000000
10345 15672 1 0.16500 119244.000000
10345 15756 1 0.16500 119244.000000
10346 15673 1 0.16500 119244.000000
10346 16630 1 0.16500 119244.000000
10347 15674 1 0.16500 119244.000000
10347 17113 1 0.16500 119244.000000
10348 15675 1 0.16500 119244.000000
10348 16471 1 0.16500 119244.000000
10349 15676 1 0.16500 119244.000000
10349 16312 1 0.16500 119244.000000
10350 15677 1 0.16500 119244.000000
10350 17174 1 0.16500 119244.000000
10351 15680 1 0.16500 119244.000000
10351 17000 1 0.16500 119244.000000
10352 15680 1 0.16500 119244.000000
10352 16056 1 0.16500 119244.000000
10353 15680 1 0.16500 119244.000000
10353 17078 1 0.16500 119244.000000
10354 15681 1 0.16500 119244.000000
10354 16743 1 0.16500 119244.000000
10355 15682 1 0.16500 119244.000000
10355 17953 1 0.16500 119244.000000
10356 13346 1 0.16500 119244.000000
10356 17075 1 0.16500 119244.000000
10357 15685 1 0.16500 119244.000000
10357 16726 1 0.16500 119244.000000
10358 15686 1 0.16500 119244.000000
10358 15746 1 0.16500 119244.000000
10359 15686 1 0.16500 119244.000000
10359 17015 1 0.16500 119244.000000
10360 15688 1 0.16500 119244.000000
10360 17188 1 0.16500 119244.000000
10361 15688 1 0.16500 119244.000000
10361 15979 1 0.16500 119244.000000
10362 15688 1 0.16500 119244.000000
10362 16139 1 0.16500 119244.000000
10363 15689 1 0.16500 119244.000000
10363 16976 1 0.16500 119244.000000
10364 15689 1 0.16500 119244.000000
10364 16627 1 0.16500 119244.000000
10365 15689 1 0.16500 119244.000000
10365 16501 1 0.16500 119244.000000
10366 15691 1 0.16500 119244.000000
10366 16844 1 0.16500 119244.000000
10367 15691 1 0.16500 119244.000000
10367 16517 1 0.16500 119244.000000
10368 15693 1 0.16500 119244.000000
10368 17090 1 0.16500 119244.000000
10369 15693 1 0.16500 119244.000000
10369 16049 1 0.16500 119244.000000
10370 14265 1 0.16500 119244.000000
10370 15694 1 0.16500 119244.000000
10371 15694 1 0.16500 119244.000000
10371 17062 1 0.16500 119244.000000
10372 15695 1 0.16500 119244.000000
10372 16623 1 0.16500 119244.000000
10373 15695 1 0.16500 119244.000000
10373 15860 1 0.16500 119244.000000
10374 15695 1 0.16500 119244.000000
10374 17114 1 0.16500 119244.000000
10375 15695 1 0.16500 119244.000000
10375 17087 1 0.16500 119244.000000
10376 15698 1 0.16500 119244.000000
10376 16407 1 0.16500 119244.000000
10377 15699 1 0.16500 119244.000000
10377 17010 1 0.16500 119244.000000
10378 15700 1 0.16500 119244.000000
10378 16716 1 0.16500 119244.000000
10379 15700 1 0.16500 119244.000000
10379 16753 1 0.16500 119244.000000
10380 15700 1 0.16500 119244.000000
10380 15888 1 0.16500 119244.000000
10381 15701 1 0.16500 119244.000000
10381 16316 1 0.16500 119244.000000
10382 15701 1 0.16500 119244.000000
10382 15948 1 0.16500 119244.000000
10383 15702 1 0.16500 119244.000000
10383 15793 1 0.16500 119244.000000
10384 15703 1 0.16500 119244.000000
10384 16035 1 0.16500 119244.000000
10385 15704 1 0.16500 119244.000000
10385 16802 1 0.16500 119244.000000
10386 15704 1 0.16500 119244.000000
10386 17013 1 0.16500 119244.000000
10387 15705 1 0.16500 119244.000000
10387 16683 1 0.16500 119244.000000
10388 15705 1 0.16500 119244.000000
10388 16501 1 0.16500 119244.000000
10389 15711 1 0.16500 119244.000000
10389 16718 1 0.16500 119244.000000
10390 15711 1 0.16500 119244.000000
10390 16336 1 0.16500 119244.000000
10391 15715 1 0.16500 119244.000000
10391 17159 1 0.16500 119244.000000
10392 15716 1 0.16500 119244.000000
10392 16259 1 0.16500 119244.000000
10393 15716 1 0.16500 119244.000000
10393 16837 1 0.16500 119244.000000
10394 15716 1 0.16500 119244.000000
10394 16931 1 0.16500 119244.000000
10395 15718 1 0.16500 119244.000000
10395 16527 1 0.16500 119244.000000
10396 15722 1 0.16500 119244.000000
10396 16101 1 0.16500 119244.000000
10397 17626 1 0.16500 119244.000000
10397 17812 1 0.16500 119244.000000
10398 15723 1 0.16500 119244.000000
10398 15855 1 0.16500 119244.000000
10399 15725 1 0.16500 119244.000000
10399 16187 1 0.16500 119244.000000
10400 15726 1 0.16500 119244.000000
10400 16207 1 0.16500 119244.000000
10401 13891 1 0.16500 119244.000000
10401 16734 1 0.16500 119244.000000
10402 15728 1 0.16500 119244.000000
10402 17194 1 0.16500 119244.000000
10403 15729 1 0.16500 119244.000000
10403 16366 1 0.16500 119244.000000
10404 15729 1 0.16500 119244.000000
10404 16220 1 0.16500 119244.000000
10405 15730 1 0.16500 119244.000000
10405 16272 1 0.16500 119244.000000
10406 14456 1 0.16500 119244.000000
10406 15730 1 0.16500 119244.000000
10407 14452 1 0.16500 119244.000000
10407 15811 1 0.16500 119244.000000
10408 15732 1 0.16500 119244.000000
10408 15743 1 0.16500 119244.000000
10409 15733 1 0.16500 119244.000000
10409 17854 1 0.16500 119244.000000
10410 15734 1 0.16500 119244.000000
10410 15738 1 0.16500 119244.000000
10411 15735 1 0.16500 119244.000000
10411 16773 1 0.16500 119244.000000
10412 15736 1 0.16500 119244.000000
10412 16091 1 0.16500 119244.000000
10413 15737 1 0.16500 119244.000000
10413 16924 1 0.16500 119244.000000
10414 14046 1 0.16500 119244.000000
10414 15737 1 0.16500 119244.000000
10415 15738 1 0.16500 119244.000000
10415 16836 1 0.16500 119244.000000
10416 15740 1 0.16500 119244.000000
10416 16353 1 0.16500 119244.000000
10417 15740 1 0.16500 119244.000000
10417 16018 1 0.16500 119244.000000
10418 15741 1 0.16500 119244.000000
10418 16050 1 0.16500 119244.000000
10419 15743 1 0.16500 119244.000000
10419 16996 1 0.16500 119244.000000
10420 15743 1 0.16500 119244.000000
10420 16978 1 0.16500 119244.000000
10421 15744 1 0.16500 119244.000000
10421 15766 1 0.16500 119244.000000
10422 11871 1 0.16500 119244.000000
10422 16717 1 0.16500 119244.000000
10423 15748 1 0.16500 119244.000000
10423 16062 1 0.16500 119244.000000
10424 15750 1 0.16500 119244.000000
10424 16828 1 0.16500 119244.000000
10425 15751 1 0.16500 119244.000000
10425 16240 1 0.16500 119244.000000
10426 15752 1 0.16500 119244.000000
10426 16416 1 0.16500 119244.000000
10427 15754 1 0.16500 119244.000000
10427 16570 1 0.16500 119244.000000
10428 15755 1 0.16500 119244.000000
10428 15828 1 0.16500 119244.000000
10429 15755 1 0.16500 119244.000000
10429 16765 1 0.16500 119244.000000
10430 15756 1 0.16500 119244.000000
10430 15954 1 0.16500 119244.000000
10431 15756 1 0.16500 119244.000000
10431 16036 1 0.16500 119244.000000
10432 15757 1 0.16500 119244.000000
10432 15967 1 0.16500 119244.000000
10433 15762 1 0.16500 119244.000000
10433 18119 1 0.16500 119244.000000
10434 15764 1 0.16500 119244.000000
10434 16561 1 0.16500 119244.000000
10435 15765 1 0.16500 119244.000000
10435 16603 1 0.16500 119244.000000
10436 15765 1 0.16500 119244.000000
10436 17030 1 0.16500 119244.000000
10437 15770 1 0.16500 119244.000000
10437 16320 1 0.16500 119244.000000
10438 15770 1 0.16500 119244.000000
10438 15791 1 0.16500 119244.000000
10439 15770 1 0.16500 119244.000000
10439 16372 1 0.16500 119244.000000
10440 15770 1 0.16500 119244.000000
10440 16147 1 0.16500 119244.000000
10441 15771 1 0.16500 119244.000000
10441 16218 1 0.16500 119244.000000
10442 15771 1 0.16500 119244.000000
10442 16637 1 0.16500 119244.000000
10443 15772 1 0.16500 119244.000000
10443 16434 1 0.16500 119244.000000
10444 15773 1 0.16500 119244.000000
10444 16541 1 0.16500 119244.000000
10445 15773 1 0.16500 119244.000000
10445 16845 1 0.16500 119244.000000
10446 15774 1 0.16500 119244.000000
10446 17046 1 0.16500 119244.000000
10447 15775 1 0.16500 119244.000000
10447 15857 1 0.16500 119244.000000
10448 15776 1 0.16500 119244.000000
10448 16213 1 0.16500 119244.000000
10449 15777 1 0.16500 119244.000000
10449 17146 1 0.16500 119244.000000
10450 15777 1 0.16500 119244.000000
10450 17869 1 0.16500 119244.000000
10451 15778 1 0.16500 119244.000000
10451 15836 1 0.16500 119244.000000
10452 15778 1 0.16500 119244.000000
10452 16663 1 0.16500 119244.000000
10453 15778 1 0.16500 119244.000000
10453 16411 1 0.16500 119244.000000
10454 15780 1 0.16500 119244.000000
10454 17059 1 0.16500 119244.000000
10455 15780 1 0.16500 119244.000000
10455 17070 1 0.16500 119244.000000
10456 15782 1 0.16500 119244.000000
10456 16460 1 0.16500 119244.000000
10457 15783 1 0.16500 119244.000000
10457 16456 1 0.16500 119244.000000
10458 15784 1 0.16500 119244.000000
10458 16636 1 0.16500 119244.000000
10459 14768 1 0.16500 119244.000000
10459 16323 1 0.16500 119244.000000
10460 15785 1 0.16500 119244.000000
10460 16551 1 0.16500 119244.000000
10461 16190 1 0.16500 119244.000000
10461 17815 1 0.16500 119244.000000
10462 16649 1 0.16500 119244.000000
10462 17815 1 0.16500 119244.000000
10463 16651 1 0.16500 119244.000000
10463 17818 1 0.16500 119244.000000
10464 15787 1 0.16500 119244.000000
10464 16337 1 0.16500 119244.000000
10465 15789 1 0.16500 119244.000000
10465 17131 1 0.16500 119244.000000
10466 15790 1 0.16500 119244.000000
10466 16605 1 0.16500 119244.000000
10467 15165 1 0.16500 119244.000000
10467 15790 1 0.16500 119244.000000
10468 12630 1 0.16500 119244.000000
10468 15791 1 0.16500 119244.000000
10469 15792 1 0.16500 119244.000000
10469 16568 1 0.16500 119244.000000
10470 15794 1 0.16500 119244.000000
10470 16284 1 0.16500 119244.000000
10471 13302 1 0.16500 119244.000000
10471 15795 1 0.16500 119244.000000
10472 15795 1 0.16500 119244.000000
10472 16221 1 0.16500 119244.000000
10473 15796 1 0.16500 119244.000000
10473 16680 1 0.16500 119244.000000
10474 15796 1 0.16500 119244.000000
10474 16170 1 0.16500 119244.000000
10475 15797 1 0.16500 119244.000000
10475 16469 1 0.16500 119244.000000
10476 15798 1 0.16500 119244.000000
10476 16017 1 0.16500 119244.000000
10477 15800 1 0.16500 119244.000000
10477 15997 1 0.16500 119244.000000
10478 15802 1 0.16500 119244.000000
10478 15927 1 0.16500 119244.000000
10479 15803 1 0.16500 119244.000000
10479 16235 1 0.16500 119244.000000
10480 13736 1 0.16500 119244.000000
10480 15807 1 0.16500 119244.000000
10481 15807 1 0.16500 119244.000000
10481 16799 1 0.16500 119244.000000
10482 15808 1 0.16500 119244.000000
10482 15863 1 0.16500 119244.000000
10483 15809 1 0.16500 119244.000000
10483 16642 1 0.16500 119244.000000
10484 15810 1 0.16500 119244.000000
10484 16596 1 0.16500 119244.000000
10485 15811 1 0.16500 119244.000000
10485 15973 1 0.16500 119244.000000
10486 15812 1 0.16500 119244.000000
10486 15887 1 0.16500 119244.000000
10487 15814 1 0.16500 119244.000000
10487 16419 1 0.16500 119244.000000
10488 15814 1 0.16500 119244.000000
10488 16412 1 0.16500 119244.000000
10489 14430 1 0.16500 119244.000000
10489 15815 1 0.16500 119244.000000
10490 15815 1 0.16500 119244.000000
10490 16638 1 0.16500 119244.000000
10491 15816 1 0.16500 119244.000000
10491 16258 1 0.16500 119244.000000
10492 12728 1 0.16500 119244.000000
10492 15817 1 0.16500 119244.000000
10493 15819 1 0.16500 119244.000000
10493 16435 1 0.16500 119244.000000
10494 15822 1 0.16500 119244.000000
10494 16515 1 0.16500 119244.000000
10495 15823 1 0.16500 119244.000000
10495 16673 1 0.16500 119244.000000
10496 12231 1 0.16500 119244.000000
10496 15824 1 0.16500 119244.000000
10497 15826 1 0.16500 119244.000000
10497 17096 1 0.16500 119244.000000
10498 15827 1 0.16500 119244.000000
10498 16642 1 0.16500 119244.000000
10499 15828 1 0.16500 119244.000000
10499 16239 1 0.16500 119244.000000
10500 15829 1 0.16500 119244.000000
10500 16280 1 0.16500 119244.000000
10501 15831 1 0.16500 119244.000000
10501 16735 1 0.16500 119244.000000
10502 15835 1 0.16500 119244.000000
10502 16841 1 0.16500 119244.000000
10503 15835 1 0.16500 119244.000000
10503 17064 1 0.16500 119244.000000
10504 15837 1 0.16500 119244.000000
10504 16428 1 0.16500 119244.000000
10505 15838 1 0.16500 119244.000000
10505 16744 1 0.16500 119244.000000
10506 15838 1 0.16500 119244.000000
10506 15903 1 0.16500 119244.000000
10507 15839 1 0.16500 119244.000000
10507 16090 1 0.16500 119244.000000
10508 15841 1 0.16500 119244.000000
10508 15926 1 0.16500 119244.000000
10509 15843 1 0.16500 119244.000000
10509 17024 1 0.16500 119244.000000
10510 15843 1 0.16500 119244.000000
10510 17017 1 0.16500 119244.000000
10511 15843 1 0.16500 119244.000000
10511 16044 1 0.16500 119244.000000
10512 15845 1 0.16500 119244.000000
10512 16918 1 0.16500 119244.000000
10513 14046 1 0.16500 119244.000000
10513 17833 1 0.16500 119244.000000
10514 14264 1 0.16500 119244.000000
10514 17833 1 0.16500 119244.000000
10515 15849 1 0.16500 119244.000000
10515 15921 1 0.16500 119244.000000
10516 15849 1 0.16500 119244.000000
10516 15876 1 0.16500 119244.000000
10517 15850 1 0.16500 119244.000000
10517 16143 1 0.16500 119244.000000
10518 12869 1 0.16500 119244.000000
10518 13679 1 0.16500 119244.000000
10519 15852 1 0.16500 119244.000000
10519 15948 1 0.16500 119244.000000
10520 15853 1 0.16500 119244.000000
10520 16646 1 0.16500 119244.000000
10521 15138 1 0.16500 119244.000000
10521 16208 1 0.16500 119244.000000
10522 15855 1 0.16500 119244.000000
10522 15999 1 0.16500 119244.000000
10523 15855 1 0.16500 119244.000000
10523 16605 1 0.16500 119244.000000
10524 15857 1 0.16500 119244.000000
10524 16751 1 0.16500 119244.000000
10525 15857 1 0.16500 119244.000000
10525 16944 1 0.16500 119244.000000
10526 15858 1 0.16500 119244.000000
10526 15957 1 0.16500 119244.000000
10527 15860 1 0.16500 119244.000000
10527 16467 1 0.16500 119244.000000
10528 15861 1 0.16500 119244.000000
10528 16775 1 0.16500 119244.000000
10529 15863 1 0.16500 119244.000000
10529 16707 1 0.16500 119244.000000
10530 15864 1 0.16500 119244.000000
10530 15925 1 0.16500 119244.000000
10531 12910 1 0.16500 119244.000000
10531 16548 1 0.16500 119244.000000
10532 12910 1 0.16500 119244.000000
10532 16395 1 0.16500 119244.000000
10533 15867 1 0.16500 119244.000000
10533 16861 1 0.16500 119244.000000
10534 15868 1 0.16500 119244.000000
10534 16319 1 0.16500 119244.000000
10535 15868 1 0.16500 119244.000000
10535 16587 1 0.16500 119244.000000
10536 15869 1 0.16500 119244.000000
10536 16535 1 0.16500 119244.000000
10537 15870 1 0.16500 119244.000000
10537 17015 1 0.16500 119244.000000
10538 15871 1 0.16500 119244.000000
10538 15991 1 0.16500 119244.000000
10539 15872 1 0.16500 119244.000000
10539 16316 1 0.16500 119244.000000
10540 15873 1 0.16500 119244.000000
10540 15993 1 0.16500 119244.000000
10541 15874 1 0.16500 119244.000000
10541 16219 1 0.16500 119244.000000
10542 15874 1 0.16500 119244.000000
10542 16942 1 0.16500 119244.000000
10543 15875 1 0.16500 119244.000000
10543 16604 1 0.16500 119244.000000
10544 15876 1 0.16500 119244.000000
10544 16755 1 0.16500 119244.000000
10545 15878 1 0.16500 119244.000000
10545 17055 1 0.16500 119244.000000
10546 15879 1 0.16500 119244.000000
10546 16237 1 0.16500 119244.000000
10547 15879 1 0.16500 119244.000000
10547 16197 1 0.16500 119244.000000
10548 15880 1 0.16500 119244.000000
10548 17064 1 0.16500 119244.000000
10549 15881 1 0.16500 119244.000000
10549 16190 1 0.16500 119244.000000
10550 15882 1 0.16500 119244.000000
10550 16947 1 0.16500 119244.000000
10551 15882 1 0.16500 119244.000000
10551 17893 1 0.16500 119244.000000
10552 15882 1 0.16500 119244.000000
10552 15980 1 0.16500 119244.000000
10553 15884 1 0.16500 119244.000000
10553 16713 1 0.16500 119244.000000
10554 15885 1 0.16500 119244.000000
10554 17128 1 0.16500 119244.000000
10555 15885 1 0.16500 119244.000000
10555 17151 1 0.16500 119244.000000
10556 15886 1 0.16500 119244.000000
10556 16953 1 0.16500 119244.000000
10557 15886 1 0.16500 119244.000000
10557 16901 1 0.16500 119244.000000
10558 15886 1 0.16500 119244.000000
10558 15899 1 0.16500 119244.000000
10559 15888 1 0.16500 119244.000000
10559 17126 1 0.16500 119244.000000
10560 15889 1 0.16500 119244.000000
10560 17851 1 0.16500 119244.000000
10561 15889 1 0.16500 119244.000000
10561 16749 1 0.16500 119244.000000
10562 15890 1 0.16500 119244.000000
10562 16859 1 0.16500 119244.000000
10563 15890 1 0.16500 119244.000000
10563 16595 1 0.16500 119244.000000
10564 15890 1 0.16500 119244.000000
10564 16275 1 0.16500 119244.000000
10565 15891 1 0.16500 119244.000000
10565 16488 1 0.16500 119244.000000
10566 15892 1 0.16500 119244.000000
10566 15931 1 0.16500 119244.000000
10567 15893 1 0.16500 119244.000000
10567 17923 1 0.16500 119244.000000
10568 15894 1 0.16500 119244.000000
10568 16808 1 0.16500 119244.000000
10569 15896 1 0.16500 119244.000000
10569 16737 1 0.16500 119244.000000
10570 15896 1 0.16500 119244.000000
10570 16410 1 0.16500 119244.000000
10571 15898 1 0.16500 119244.000000
10571 16066 1 0.16500 119244.000000
10572 15901 1 0.16500 119244.000000
10572 16861 1 0.16500 119244.000000
10573 15902 1 0.16500 119244.000000
10573 17175 1 0.16500 119244.000000
10574 15903 1 0.16500 119244.000000
10574 16841 1 0.16500 119244.000000
10575 15904 1 0.16500 119244.000000
10575 16335 1 0.16500 119244.000000
10576 13157 1 0.16500 119244.000000
10576 15904 1 0.16500 119244.000000
10577 15904 1 0.16500 119244.000000
10577 16895 1 0.16500 119244.000000
10578 15906 1 0.16500 119244.000000
10578 16173 1 0.16500 119244.000000
10579 15908 1 0.16500 119244.000000
10579 17043 1 0.16500 119244.000000
10580 15908 1 0.16500 119244.000000
10580 16868 1 0.16500 119244.000000
10581 15909 1 0.16500 119244.000000
10581 16387 1 0.16500 119244.000000
10582 15909 1 0.16500 119244.000000
10582 16956 1 0.16500 119244.000000
10583 15911 1 0.16500 119244.000000
10583 16841 1 0.16500 119244.000000
10584 15912 1 0.16500 119244.000000
10584 16166 1 0.16500 119244.000000
10585 15912 1 0.16500 119244.000000
10585 15945 1 0.16500 119244.000000
10586 15913 1 0.16500 119244.000000
10586 15996 1 0.16500 119244.000000
10587 16855 1 0.16500 119244.000000
10587 17839 1 0.16500 119244.000000
10588 15914 1 0.16500 119244.000000
10588 16246 1 0.16500 119244.000000
10589 15917 1 0.16500 119244.000000
10589 16865 1 0.16500 119244.000000
10590 15919 1 0.16500 119244.000000
10590 17119 1 0.16500 119244.000000
10591 15921 1 0.16500 119244.000000
10591 15943 1 0.16500 119244.000000
10592 15922 1 0.16500 119244.000000
10592 16511 1 0.16500 119244.000000
10593 15922 1 0.16500 119244.000000
10593 17089 1 0.16500 119244.000000
10594 15923 1 0.16500 119244.000000
10594 16718 1 0.16500 119244.000000
10595 15924 1 0.16500 119244.000000
10595 16800 1 0.16500 119244.000000
10596 15925 1 0.16500 119244.000000
10596 17063 1 0.16500 119244.000000
10597 15926 1 0.16500 119244.000000
10597 16385 1 0.16500 119244.000000
10598 15927 1 0.16500 119244.000000
10598 16105 1 0.16500 119244.000000
10599 15928 1 0.16500 119244.000000
10599 16573 1 0.16500 119244.000000
10600 15929 1 0.16500 119244.000000
10600 17117 1 0.16500 119244.000000
10601 15929 1 0.16500 119244.000000
10601 17019 1 0.16500 119244.000000
10602 15933 1 0.16500 119244.000000
10602 17102 1 0.16500 119244.000000
10603 15934 1 0.16500 119244.000000
10603 17974 1 0.16500 119244.000000
10604 15934 1 0.16500 119244.000000
10604 15989 1 0.16500 119244.000000
10605 15935 1 0.16500 119244.000000
10605 16204 1 0.16500 119244.000000
10606 15936 1 0.16500 119244.000000
10606 17088 1 0.16500 119244.000000
10607 15937 1 0.16500 119244.000000
10607 16637 1 0.16500 119244.000000
10608 15942 1 0.16500 119244.000000
10608 16760 1 0.16500 119244.000000
10609 15942 1 0.16500 119244.000000
10609 16930 1 0.16500 119244.000000
10610 15943 1 0.16500 119244.000000
10610 16939 1 0.16500 119244.000000
10611 15943 1 0.16500 119244.000000
10611 16597 1 0.16500 119244.000000
10612 15945 1 0.16500 119244.000000
10612 16565 1 0.16500 119244.000000
10613 15945 1 0.16500 119244.000000
10613 16697 1 0.16500 119244.000000
10614 15947 1 0.16500 119244.000000
10614 17115 1 0.16500 119244.000000
10615 15949 1 0.16500 119244.000000
10615 16881 1 0.16500 119244.000000
10616 15952 1 0.16500 119244.000000
10616 16119 1 0.16500 119244.000000
10617 15953 1 0.16500 119244.000000
10617 16374 1 0.16500 119244.000000
10618 15953 1 0.16500 119244.000000
10618 16122 1 0.16500 119244.000000
10619 15954 1 0.16500 119244.000000
10619 16701 1 0.16500 119244.000000
10620 15958 1 0.16500 119244.000000
10620 16829 1 0.16500 119244.000000
10621 15958 1 0.16500 119244.000000
10621 16136 1 0.16500 119244.000000
10622 15959 1 0.16500 119244.000000
10622 16550 1 0.16500 119244.000000
10623 15960 1 0.16500 119244.000000
10623 16910 1 0.16500 119244.000000
10624 15960 1 0.16500 119244.000000
10624 17005 1 0.16500 119244.000000
10625 13774 1 0.16500 119244.000000
10625 16206 1 0.16500 119244.000000
10626 17145 1 0.16500 119244.000000
10626 17842 1 0.16500 119244.000000
10627 15961 1 0.16500 119244.000000
10627 15970 1 0.16500 119244.000000
10628 13123 1 0.16500 119244.000000
10628 16911 1 0.16500 119244.000000
10629 15962 1 0.16500 119244.000000
10629 16406 1 0.16500 119244.000000
10630 15962 1 0.16500 119244.000000
10630 16732 1 0.16500 119244.000000
10631 15963 1 0.16500 119244.000000
10631 16486 1 0.16500 119244.000000
10632 15967 1 0.16500 119244.000000
10632 17182 1 0.16500 119244.000000
10633 15968 1 0.16500 119244.000000
10633 16107 1 0.16500 119244.000000
10634 15970 1 0.16500 119244.000000
10634 16116 1 0.16500 119244.000000
10635 15972 1 0.16500 119244.000000
10635 16562 1 0.16500 119244.000000
10636 15972 1 0.16500 119244.000000
10636 16433 1 0.16500 119244.000000
10637 15974 1 0.16500 119244.000000
10637 16873 1 0.16500 119244.000000
10638 14465 1 0.16500 119244.000000
10638 15975 1 0.16500 119244.000000
10639 15976 1 0.16500 119244.000000
10639 17010 1 0.16500 119244.000000
10640 15976 1 0.16500 119244.000000
10640 16476 1 0.16500 119244.000000
10641 15976 1 0.16500 119244.000000
10641 16545 1 0.16500 119244.000000
10642 15976 1 0.16500 119244.000000
10642 16747 1 0.16500 119244.000000
10643 15977 1 0.16500 119244.000000
10643 16547 1 0.16500 119244.000000
10644 15978 1 0.16500 119244.000000
10644 16341 1 0.16500 119244.000000
10645 15981 1 0.16500 119244.000000
10645 16709 1 0.16500 119244.000000
10646 15981 1 0.16500 119244.000000
10646 16862 1 0.16500 119244.000000
10647 15960 1 0.16500 119244.000000
10647 15982 1 0.16500 119244.000000
10648 15983 1 0.16500 119244.000000
10648 16002 1 0.16500 119244.000000
10649 12416 1 0.16500 119244.000000
10649 15984 1 0.16500 119244.000000
10650 15985 1 0.16500 119244.000000
10650 16891 1 0.16500 119244.000000
10651 15987 1 0.16500 119244.000000
10651 16973 1 0.16500 119244.000000
10652 15987 1 0.16500 119244.000000
10652 16079 1 0.16500 119244.000000
10653 15988 1 0.16500 119244.000000
10653 16811 1 0.16500 119244.000000
10654 15989 1 0.16500 119244.000000
10654 16093 1 0.16500 119244.000000
10655 15990 1 0.16500 119244.000000
10655 16643 1 0.16500 119244.000000
10656 15990 1 0.16500 119244.000000
10656 16564 1 0.16500 119244.000000
10657 15990 1 0.16500 119244.000000
10657 16419 1 0.16500 119244.000000
10658 15991 1 0.16500 119244.000000
10658 16287 1 0.16500 119244.000000
10659 15994 1 0.16500 119244.000000
10659 16053 1 0.16500 119244.000000
10660 15995 1 0.16500 119244.000000
10660 16711 1 0.16500 119244.000000
10661 15700 1 0.16500 119244.000000
10661 15995 1 0.16500 119244.000000
10662 15996 1 0.16500 119244.000000
10662 16550 1 0.16500 119244.000000
10663 15997 1 0.16500 119244.000000
10663 16551 1 0.16500 119244.000000
10664 15998 1 0.16500 119244.000000
10664 16075 1 0.16500 119244.000000
10665 15999 1 0.16500 119244.000000
10665 16135 1 0.16500 119244.000000
10666 16001 1 0.16500 119244.000000
10666 16121 1 0.16500 119244.000000
10667 16003 1 0.16500 119244.000000
10667 16220 1 0.16500 119244.000000
10668 16006 1 0.16500 119244.000000
10668 16020 1 0.16500 119244.000000
10669 16008 1 0.16500 119244.000000
10669 16533 1 0.16500 119244.000000
10670 16008 1 0.16500 119244.000000
10670 17016 1 0.16500 119244.000000
10671 16008 1 0.16500 119244.000000
10671 16528 1 0.16500 119244.000000
10672 15432 1 0.16500 119244.000000
10672 16009 1 0.16500 119244.000000
10673 16014 1 0.16500 119244.000000
10673 16362 1 0.16500 119244.000000
10674 16015 1 0.16500 119244.000000
10674 17875 1 0.16500 119244.000000
10675 16016 1 0.16500 119244.000000
10675 16104 1 0.16500 119244.000000
10676 12356 1 0.16500 119244.000000
10676 16521 1 0.16500 119244.000000
10677 14581 1 0.16500 119244.000000
10677 16018 1 0.16500 119244.000000
10678 16019 1 0.16500 119244.000000
10678 17935 1 0.16500 119244.000000
10679 16019 1 0.16500 119244.000000
10679 16666 1 0.16500 119244.000000
10680 15159 1 0.16500 119244.000000
10680 17007 1 0.16500 119244.000000
10681 13157 1 0.16500 119244.000000
10681 16436 1 0.16500 119244.000000
10682 16023 1 0.16500 119244.000000
10682 16754 1 0.16500 119244.000000
10683 16024 1 0.16500 119244.000000
10683 16446 1 0.16500 119244.000000
10684 16025 1 0.16500 119244.000000
10684 16920 1 0.16500 119244.000000
10685 16028 1 0.16500 119244.000000
10685 16670 1 0.16500 119244.000000
10686 16028 1 0.16500 119244.000000
10686 17932 1 0.16500 119244.000000
10687 16029 1 0.16500 119244.000000
10687 16394 1 0.16500 119244.000000
10688 16030 1 0.16500 119244.000000
10688 17149 1 0.16500 119244.000000
10689 16030 1 0.16500 119244.000000
10689 17135 1 0.16500 119244.000000
10690 16030 1 0.16500 119244.000000
10690 16153 1 0.16500 119244.000000
10691 16031 1 0.16500 119244.000000
10691 16809 1 0.16500 119244.000000
10692 16032 1 0.16500 119244.000000
10692 16537 1 0.16500 119244.000000
10693 16032 1 0.16500 119244.000000
10693 16653 1 0.16500 119244.000000
10694 16519 1 0.16500 119244.000000
10694 17854 1 0.16500 119244.000000
10695 16034 1 0.16500 119244.000000
10695 17107 1 0.16500 119244.000000
10696 16035 1 0.16500 119244.000000
10696 16812 1 0.16500 119244.000000
10697 16039 1 0.16500 119244.000000
10697 16618 1 0.16500 119244.000000
10698 15533 1 0.16500 119244.000000
10698 16323 1 0.16500 119244.000000
10699 16043 1 0.16500 119244.000000
10699 17020 1 0.16500 119244.000000
10700 16043 1 0.16500 119244.000000
10700 16743 1 0.16500 119244.000000
10701 16045 1 0.16500 119244.000000
10701 16268 1 0.16500 119244.000000
10702 16047 1 0.16500 119244.000000
10702 16703 1 0.16500 119244.000000
10703 16053 1 0.16500 119244.000000
10703 17090 1 0.16500 119244.000000
10704 13876 1 0.16500 119244.000000
10704 16055 1 0.16500 119244.000000
10705 16057 1 0.16500 119244.000000
10705 16397 1 0.16500 119244.000000
10706 16058 1 0.16500 119244.000000
10706 16942 1 0.16500 119244.000000
10707 16060 1 0.16500 119244.000000
10707 16936 1 0.16500 119244.000000
10708 16060 1 0.16500 119244.000000
10708 16281 1 0.16500 119244.000000
10709 16061 1 0.16500 119244.000000
10709 17028 1 0.16500 119244.000000
10710 16063 1 0.16500 119244.000000
10710 16273 1 0.16500 119244.000000
10711 16063 1 0.16500 119244.000000
10711 16987 1 0.16500 119244.000000
10712 16065 1 0.16500 119244.000000
10712 16408 1 0.16500 119244.000000
10713 16065 1 0.16500 119244.000000
10713 17120 1 0.16500 119244.000000
10714 16067 1 0.16500 119244.000000
10714 16383 1 0.16500 119244.000000
10715 16067 1 0.16500 119244.000000
10715 16445 1 0.16500 119244.000000
10716 16069 1 0.16500 119244.000000
10716 16891 1 0.16500 119244.000000
10717 16070 1 0.16500 119244.000000
10717 16766 1 0.16500 119244.000000
10718 16072 1 0.16500 119244.000000
10718 16334 1 0.16500 119244.000000
10719 16074 1 0.16500 119244.000000
10719 16831 1 0.16500 119244.000000
10720 16075 1 0.16500 119244.000000
10720 16238 1 0.16500 119244.000000
10721 16076 1 0.16500 119244.000000
10721 16692 1 0.16500 119244.000000
10722 16081 1 0.16500 119244.000000
10722 16733 1 0.16500 119244.000000
10723 16081 1 0.16500 119244.000000
10723 16136 1 0.16500 119244.000000
10724 16085 1 0.16500 119244.000000
10724 16541 1 0.16500 119244.000000
10725 16085 1 0.16500 119244.000000
10725 16219 1 0.16500 119244.000000
10726 16087 1 0.16500 119244.000000
10726 16823 1 0.16500 119244.000000
10727 14498 1 0.16500 119244.000000
10727 16556 1 0.16500 119244.000000
10728 16088 1 0.16500 119244.000000
10728 16675 1 0.16500 119244.000000
10729 16091 1 0.16500 119244.000000
10729 16496 1 0.16500 119244.000000
10730 16093 1 0.16500 119244.000000
10730 16625 1 0.16500 119244.000000
10731 16094 1 0.16500 119244.000000
10731 16274 1 0.16500 119244.000000
10732 16095 1 0.16500 119244.000000
10732 16423 1 0.16500 119244.000000
10733 16096 1 0.16500 119244.000000
10733 17046 1 0.16500 119244.000000
10734 16096 1 0.16500 119244.000000
10734 16993 1 0.16500 119244.000000
10735 16097 1 0.16500 119244.000000
10735 16574 1 0.16500 119244.000000
10736 16098 1 0.16500 119244.000000
10736 16512 1 0.16500 119244.000000
10737 14930 1 0.16500 119244.000000
10737 16426 1 0.16500 119244.000000
10738 16099 1 0.16500 119244.000000
10738 16554 1 0.16500 119244.000000
10739 16100 1 0.16500 119244.000000
10739 16616 1 0.16500 119244.000000
10740 16103 1 0.16500 119244.000000
10740 16176 1 0.16500 119244.000000
10741 15790 1 0.16500 119244.000000
10741 16104 1 0.16500 119244.000000
10742 17088 1 0.16500 119244.000000
10742 17860 1 0.16500 119244.000000
10743 17132 1 0.16500 119244.000000
10743 17860 1 0.16500 119244.000000
10744 16106 1 0.16500 119244.000000
10744 16498 1 0.16500 119244.000000
10745 16107 1 0.16500 119244.000000
10745 16703 1 0.16500 119244.000000
10746 16107 1 0.16500 119244.000000
10746 16692 1 0.16500 119244.000000
10747 16108 1 0.16500 119244.000000
10747 17968 1 0.16500 119244.000000
10748 16109 1 0.16500 119244.000000
10748 17168 1 0.16500 119244.000000
10749 16110 1 0.16500 119244.000000
10749 16323 1 0.16500 119244.000000
10750 16111 1 0.16500 119244.000000
10750 16133 1 0.16500 119244.000000
10751 16114 1 0.16500 119244.000000
10751 16648 1 0.16500 119244.000000
10752 16117 1 0.16500 119244.000000
10752 16171 1 0.16500 119244.000000
10753 16118 1 0.16500 119244.000000
10753 16315 1 0.16500 119244.000000
10754 16118 1 0.16500 119244.000000
10754 16883 1 0.16500 119244.000000
10755 14824 1 0.16500 119244.000000
10755 16125 1 0.16500 119244.000000
10756 16621 1 0.16500 119244.000000
10756 17863 1 0.16500 119244.000000
10757 17124 1 0.16500 119244.000000
10757 17863 1 0.16500 119244.000000
10758 16128 1 0.16500 119244.000000
10758 16598 1 0.16500 119244.000000
10759 16129 1 0.16500 119244.000000
10759 16402 1 0.16500 119244.000000
10760 16132 1 0.16500 119244.000000
10760 16717 1 0.16500 119244.000000
10761 16133 1 0.16500 119244.000000
10761 16688 1 0.16500 119244.000000
10762 16134 1 0.16500 119244.000000
10762 16853 1 0.16500 119244.000000
10763 16136 1 0.16500 119244.000000
10763 16510 1 0.16500 119244.000000
10764 16141 1 0.16500 119244.000000
10764 16795 1 0.16500 119244.000000
10765 16141 1 0.16500 119244.000000
10765 16157 1 0.16500 119244.000000
10766 16141 1 0.16500 119244.000000
10766 16846 1 0.16500 119244.000000
10767 16142 1 0.16500 119244.000000
10767 16144 1 0.16500 119244.000000
10768 16143 1 0.16500 119244.000000
10768 16318 1 0.16500 119244.000000
10769 16144 1 0.16500 119244.000000
10769 16513 1 0.16500 119244.000000
10770 16146 1 0.16500 119244.000000
10770 16643 1 0.16500 119244.000000
10771 16148 1 0.16500 119244.000000
10771 16317 1 0.16500 119244.000000
10772 16149 1 0.16500 119244.000000
10772 16348 1 0.16500 119244.000000
10773 16150 1 0.16500 119244.000000
10773 16272 1 0.16500 119244.000000
10774 16151 1 0.16500 119244.000000
10774 16321 1 0.16500 119244.000000
10775 16152 1 0.16500 119244.000000
10775 16540 1 0.16500 119244.000000
10776 16153 1 0.16500 119244.000000
10776 16980 1 0.16500 119244.000000
10777 16153 1 0.16500 119244.000000
10777 16687 1 0.16500 119244.000000
10778 16155 1 0.16500 119244.000000
10778 16707 1 0.16500 119244.000000
10779 16156 1 0.16500 119244.000000
10779 16366 1 0.16500 119244.000000
10780 16156 1 0.16500 119244.000000
10780 16527 1 0.16500 119244.000000
10781 16161 1 0.16500 119244.000000
10781 17105 1 0.16500 119244.000000
10782 16165 1 0.16500 119244.000000
10782 16174 1 0.16500 119244.000000
10783 16165 1 0.16500 119244.000000
10783 16181 1 0.16500 119244.000000
10784 16168 1 0.16500 119244.000000
10784 16938 1 0.16500 119244.000000
10785 16171 1 0.16500 119244.000000
10785 16256 1 0.16500 119244.000000
10786 16171 1 0.16500 119244.000000
10786 18001 1 0.16500 119244.000000
10787 16174 1 0.16500 119244.000000
10787 16261 1 0.16500 119244.000000
10788 16179 1 0.16500 119244.000000
10788 16958 1 0.16500 119244.000000
10789 16181 1 0.16500 119244.000000
10789 17068 1 0.16500 119244.000000
10790 16182 1 0.16500 119244.000000
10790 17956 1 0.16500 119244.000000
10791 16183 1 0.16500 119244.000000
10791 16866 1 0.16500 119244.000000
10792 16184 1 0.16500 119244.000000
10792 17060 1 0.16500 119244.000000
10793 14292 1 0.16500 119244.000000
10793 16184 1 0.16500 119244.000000
10794 16185 1 0.16500 119244.000000
10794 16702 1 0.16500 119244.000000
10795 16186 1 0.16500 119244.000000
10795 16852 1 0.16500 119244.000000
10796 16187 1 0.16500 119244.000000
10796 17024 1 0.16500 119244.000000
10797 16189 1 0.16500 119244.000000
10797 16388 1 0.16500 119244.000000
10798 16189 1 0.16500 119244.000000
10798 16761 1 0.16500 119244.000000
10799 16191 1 0.16500 119244.000000
10799 16706 1 0.16500 119244.000000
10800 16194 1 0.16500 119244.000000
10800 17194 1 0.16500 119244.000000
10801 16194 1 0.16500 119244.000000
10801 16429 1 0.16500 119244.000000
10802 16196 1 0.16500 119244.000000
10802 16242 1 0.16500 119244.000000
10803 16200 1 0.16500 119244.000000
10803 16742 1 0.16500 119244.000000
10804 17154 1 0.16500 119244.000000
10804 17872 1 0.16500 119244.000000
10805 16201 1 0.16500 119244.000000
10805 17112 1 0.16500 119244.000000
10806 16203 1 0.16500 119244.000000
10806 16497 1 0.16500 119244.000000
10807 16206 1 0.16500 119244.000000
10807 16784 1 0.16500 119244.000000
10808 16207 1 0.16500 119244.000000
10808 17004 1 0.16500 119244.000000
10809 16208 1 0.16500 119244.000000
10809 17022 1 0.16500 119244.000000
10810 16208 1 0.16500 119244.000000
10810 16680 1 0.16500 119244.000000
10811 16211 1 0.16500 119244.000000
10811 16463 1 0.16500 119244.000000
10812 16213 1 0.16500 119244.000000
10812 17051 1 0.16500 119244.000000
10813 16216 1 0.16500 119244.000000
10813 16241 1 0.16500 119244.000000
10814 16218 1 0.16500 119244.000000
10814 16399 1 0.16500 119244.000000
10815 16222 1 0.16500 119244.000000
10815 18119 1 0.16500 119244.000000
10816 16223 1 0.16500 119244.000000
10816 16557 1 0.16500 119244.000000
10817 16225 1 0.16500 119244.000000
10817 17118 1 0.16500 119244.000000
10818 16225 1 0.16500 119244.000000
10818 16853 1 0.16500 119244.000000
10819 15120 1 0.16500 119244.000000
10819 16227 1 0.16500 119244.000000
10820 16229 1 0.16500 119244.000000
10820 16570 1 0.16500 119244.000000
10821 16233 1 0.16500 119244.000000
10821 16915 1 0.16500 119244.000000
10822 15750 1 0.16500 119244.000000
10822 16233 1 0.16500 119244.000000
10823 16234 1 0.16500 119244.000000
10823 16833 1 0.16500 119244.000000
10824 16234 1 0.16500 119244.000000
10824 16498 1 0.16500 119244.000000
10825 16235 1 0.16500 119244.000000
10825 16482 1 0.16500 119244.000000
10826 16236 1 0.16500 119244.000000
10826 16695 1 0.16500 119244.000000
10827 16241 1 0.16500 119244.000000
10827 17056 1 0.16500 119244.000000
10828 16242 1 0.16500 119244.000000
10828 16325 1 0.16500 119244.000000
10829 16249 1 0.16500 119244.000000
10829 16481 1 0.16500 119244.000000
10830 16252 1 0.16500 119244.000000
10830 17138 1 0.16500 119244.000000
10831 16255 1 0.16500 119244.000000
10831 16649 1 0.16500 119244.000000
10832 16256 1 0.16500 119244.000000
10832 16381 1 0.16500 119244.000000
10833 16258 1 0.16500 119244.000000
10833 16926 1 0.16500 119244.000000
10834 16260 1 0.16500 119244.000000
10834 16424 1 0.16500 119244.000000
10835 12064 1 0.16500 119244.000000
10835 16260 1 0.16500 119244.000000
10836 15765 1 0.16500 119244.000000
10836 16262 1 0.16500 119244.000000
10837 16262 1 0.16500 119244.000000
10837 17127 1 0.16500 119244.000000
10838 16263 1 0.16500 119244.000000
10838 16553 1 0.16500 119244.000000
10839 13898 1 0.16500 119244.000000
10839 16279 1 0.16500 119244.000000
10840 16265 1 0.16500 119244.000000
10840 16783 1 0.16500 119244.000000
10841 16265 1 0.16500 119244.000000
10841 16591 1 0.16500 119244.000000
10842 16266 1 0.16500 119244.000000
10842 16488 1 0.16500 119244.000000
10843 13302 1 0.16500 119244.000000
10843 16266 1 0.16500 119244.000000
10844 16269 1 0.16500 119244.000000
10844 16936 1 0.16500 119244.000000
10845 16270 1 0.16500 119244.000000
10845 16879 1 0.16500 119244.000000
10846 16270 1 0.16500 119244.000000
10846 16806 1 0.16500 119244.000000
10847 16271 1 0.16500 119244.000000
10847 17040 1 0.16500 119244.000000
10848 16273 1 0.16500 119244.000000
10848 17047 1 0.16500 119244.000000
10849 16276 1 0.16500 119244.000000
10849 17107 1 0.16500 119244.000000
10850 16283 1 0.16500 119244.000000
10850 17018 1 0.16500 119244.000000
10851 16283 1 0.16500 119244.000000
10851 16829 1 0.16500 119244.000000
10852 16287 1 0.16500 119244.000000
10852 18124 1 0.16500 119244.000000
10853 16289 1 0.16500 119244.000000
10853 17135 1 0.16500 119244.000000
10854 16290 1 0.16500 119244.000000
10854 16360 1 0.16500 119244.000000
10855 16291 1 0.16500 119244.000000
10855 16365 1 0.16500 119244.000000
10856 16293 1 0.16500 119244.000000
10856 16650 1 0.16500 119244.000000
10857 16293 1 0.16500 119244.000000
10857 16469 1 0.16500 119244.000000
10858 16294 1 0.16500 119244.000000
10858 16773 1 0.16500 119244.000000
10859 16296 1 0.16500 119244.000000
10859 16299 1 0.16500 119244.000000
10860 16297 1 0.16500 119244.000000
10860 16470 1 0.16500 119244.000000
10861 16297 1 0.16500 119244.000000
10861 16770 1 0.16500 119244.000000
10862 14536 1 0.16500 119244.000000
10862 16300 1 0.16500 119244.000000
10863 16303 1 0.16500 119244.000000
10863 16436 1 0.16500 119244.000000
10864 13949 1 0.16500 119244.000000
10864 16311 1 0.16500 119244.000000
10865 16307 1 0.16500 119244.000000
10865 16358 1 0.16500 119244.000000
10866 16308 1 0.16500 119244.000000
10866 16530 1 0.16500 119244.000000
10867 16311 1 0.16500 119244.000000
10867 16373 1 0.16500 119244.000000
10868 16356 1 0.16500 119244.000000
10868 17899 1 0.16500 119244.000000
10869 17164 1 0.16500 119244.000000
10869 17899 1 0.16500 119244.000000
10870 16312 1 0.16500 119244.000000
10870 16357 1 0.16500 119244.000000
10871 16319 1 0.16500 119244.000000
10871 16635 1 0.16500 119244.000000
10872 14058 1 0.16500 119244.000000
10872 16978 1 0.16500 119244.000000
10873 16320 1 0.16500 119244.000000
10873 17132 1 0.16500 119244.000000
10874 16320 1 0.16500 119244.000000
10874 16526 1 0.16500 119244.000000
10875 16321 1 0.16500 119244.000000
10875 16443 1 0.16500 119244.000000
10876 16322 1 0.16500 119244.000000
10876 16394 1 0.16500 119244.000000
10877 16110 1 0.16500 119244.000000
10877 16864 1 0.16500 119244.000000
10878 16327 1 0.16500 119244.000000
10878 16440 1 0.16500 119244.000000
10879 16327 1 0.16500 119244.000000
10879 16663 1 0.16500 119244.000000
10880 16328 1 0.16500 119244.000000
10880 17114 1 0.16500 119244.000000
10881 16329 1 0.16500 119244.000000
10881 17166 1 0.16500 119244.000000
10882 16332 1 0.16500 119244.000000
10882 16340 1 0.16500 119244.000000
10883 16333 1 0.16500 119244.000000
10883 16658 1 0.16500 119244.000000
10884 14545 1 0.16500 119244.000000
10884 16379 1 0.16500 119244.000000
10885 16333 1 0.16500 119244.000000
10885 16683 1 0.16500 119244.000000
10886 16334 1 0.16500 119244.000000
10886 17165 1 0.16500 119244.000000
10887 15036 1 0.16500 119244.000000
10887 17043 1 0.16500 119244.000000
10888 16341 1 0.16500 119244.000000
10888 17094 1 0.16500 119244.000000
10889 16342 1 0.16500 119244.000000
10889 16377 1 0.16500 119244.000000
10890 16343 1 0.16500 119244.000000
10890 16660 1 0.16500 119244.000000
10891 16346 1 0.16500 119244.000000
10891 16957 1 0.16500 119244.000000
10892 16347 1 0.16500 119244.000000
10892 16931 1 0.16500 119244.000000
10893 16347 1 0.16500 119244.000000
10893 16646 1 0.16500 119244.000000
10894 16347 1 0.16500 119244.000000
10894 17116 1 0.16500 119244.000000
10895 16348 1 0.16500 119244.000000
10895 16770 1 0.16500 119244.000000
10896 16351 1 0.16500 119244.000000
10896 17170 1 0.16500 119244.000000
10897 16355 1 0.16500 119244.000000
10897 17037 1 0.16500 119244.000000
10898 16357 1 0.16500 119244.000000
10898 16839 1 0.16500 119244.000000
10899 16357 1 0.16500 119244.000000
10899 17058 1 0.16500 119244.000000
10900 16358 1 0.16500 119244.000000
10900 16472 1 0.16500 119244.000000
10901 16290 1 0.16500 119244.000000
10901 16863 1 0.16500 119244.000000
10902 12050 1 0.16500 119244.000000
10902 16737 1 0.16500 119244.000000
10903 16365 1 0.16500 119244.000000
10903 16393 1 0.16500 119244.000000
10904 16367 1 0.16500 119244.000000
10904 16782 1 0.16500 119244.000000
10905 16367 1 0.16500 119244.000000
10905 16607 1 0.16500 119244.000000
10906 16368 1 0.16500 119244.000000
10906 17947 1 0.16500 119244.000000
10907 17013 1 0.16500 119244.000000
10907 17911 1 0.16500 119244.000000
10908 16369 1 0.16500 119244.000000
10908 16411 1 0.16500 119244.000000
10909 16371 1 0.16500 119244.000000
10909 17050 1 0.16500 119244.000000
10910 16371 1 0.16500 119244.000000
10910 16933 1 0.16500 119244.000000
10911 16372 1 0.16500 119244.000000
10911 16451 1 0.16500 119244.000000
10912 16373 1 0.16500 119244.000000
10912 17146 1 0.16500 119244.000000
10913 12431 1 0.16500 119244.000000
10913 16805 1 0.16500 119244.000000
10914 16377 1 0.16500 119244.000000
10914 16974 1 0.16500 119244.000000
10915 16380 1 0.16500 119244.000000
10915 16628 1 0.16500 119244.000000
10916 16381 1 0.16500 119244.000000
10916 16678 1 0.16500 119244.000000
10917 12210 1 0.16500 119244.000000
10917 16382 1 0.16500 119244.000000
10918 16385 1 0.16500 119244.000000
10918 16787 1 0.16500 119244.000000
10919 16392 1 0.16500 119244.000000
10919 16514 1 0.16500 119244.000000
10920 14848 1 0.16500 119244.000000
10920 16805 1 0.16500 119244.000000
10921 16396 1 0.16500 119244.000000
10921 17033 1 0.16500 119244.000000
10922 16396 1 0.16500 119244.000000
10922 16884 1 0.16500 119244.000000
10923 16397 1 0.16500 119244.000000
10923 17941 1 0.16500 119244.000000
10924 16403 1 0.16500 119244.000000
10924 16688 1 0.16500 119244.000000
10925 16407 1 0.16500 119244.000000
10925 16599 1 0.16500 119244.000000
10926 16410 1 0.16500 119244.000000
10926 16588 1 0.16500 119244.000000
10927 16411 1 0.16500 119244.000000
10927 16612 1 0.16500 119244.000000
10928 16413 1 0.16500 119244.000000
10928 16588 1 0.16500 119244.000000
10929 16413 1 0.16500 119244.000000
10929 16999 1 0.16500 119244.000000
10930 16414 1 0.16500 119244.000000
10930 16616 1 0.16500 119244.000000
10931 16421 1 0.16500 119244.000000
10931 17086 1 0.16500 119244.000000
10932 16425 1 0.16500 119244.000000
10932 16943 1 0.16500 119244.000000
10933 16428 1 0.16500 119244.000000
10933 16758 1 0.16500 119244.000000
10934 16431 1 0.16500 119244.000000
10934 17180 1 0.16500 119244.000000
10935 16436 1 0.16500 119244.000000
10935 16788 1 0.16500 119244.000000
10936 16445 1 0.16500 119244.000000
10936 16623 1 0.16500 119244.000000
10937 16447 1 0.16500 119244.000000
10937 16823 1 0.16500 119244.000000
10938 16448 1 0.16500 119244.000000
10938 17048 1 0.16500 119244.000000
10939 16453 1 0.16500 119244.000000
10939 17169 1 0.16500 119244.000000
10940 16499 1 0.16500 119244.000000
10940 17926 1 0.16500 119244.000000
10941 16454 1 0.16500 119244.000000
10941 16830 1 0.16500 119244.000000
10942 16456 1 0.16500 119244.000000
10942 16935 1 0.16500 119244.000000
10943 16461 1 0.16500 119244.000000
10943 16760 1 0.16500 119244.000000
10944 14357 1 0.16500 119244.000000
10944 16461 1 0.16500 119244.000000
10945 16463 1 0.16500 119244.000000
10945 17995 1 0.16500 119244.000000
10946 16464 1 0.16500 119244.000000
10946 16679 1 0.16500 119244.000000
10947 16465 1 0.16500 119244.000000
10947 17183 1 0.16500 119244.000000
10948 16466 1 0.16500 119244.000000
10948 16760 1 0.16500 119244.000000
10949 16489 1 0.16500 119244.000000
10949 17929 1 0.16500 119244.000000
10950 16601 1 0.16500 119244.000000
10950 17929 1 0.16500 119244.000000
10951 16470 1 0.16500 119244.000000
10951 16543 1 0.16500 119244.000000
10952 16470 1 0.16500 119244.000000
10952 16618 1 0.16500 119244.000000
10953 16471 1 0.16500 119244.000000
10953 17102 1 0.16500 119244.000000
10954 16474 1 0.16500 119244.000000
10954 16917 1 0.16500 119244.000000
10955 16475 1 0.16500 119244.000000
10955 16596 1 0.16500 119244.000000
10956 16477 1 0.16500 119244.000000
10956 16529 1 0.16500 119244.000000
10957 16481 1 0.16500 119244.000000
10957 18134 1 0.16500 119244.000000
10958 16487 1 0.16500 119244.000000
10958 16677 1 0.16500 119244.000000
10959 16490 1 0.16500 119244.000000
10959 17113 1 0.16500 119244.000000
10960 16490 1 0.16500 119244.000000
10960 16999 1 0.16500 119244.000000
10961 16490 1 0.16500 119244.000000
10961 17170 1 0.16500 119244.000000
10962 16491 1 0.16500 119244.000000
10962 16589 1 0.16500 119244.000000
10963 16493 1 0.16500 119244.000000
10963 16688 1 0.16500 119244.000000
10964 16516 1 0.16500 119244.000000
10964 17935 1 0.16500 119244.000000
10965 17002 1 0.16500 119244.000000
10965 17935 1 0.16500 119244.000000
10966 16494 1 0.16500 119244.000000
10966 16628 1 0.16500 119244.000000
10967 16496 1 0.16500 119244.000000
10967 16885 1 0.16500 119244.000000
10968 16497 1 0.16500 119244.000000
10968 16768 1 0.16500 119244.000000
10969 16498 1 0.16500 119244.000000
10969 16600 1 0.16500 119244.000000
10970 16500 1 0.16500 119244.000000
10970 16558 1 0.16500 119244.000000
10971 16501 1 0.16500 119244.000000
10971 16670 1 0.16500 119244.000000
10972 16502 1 0.16500 119244.000000
10972 16961 1 0.16500 119244.000000
10973 16505 1 0.16500 119244.000000
10973 17006 1 0.16500 119244.000000
10974 12131 1 0.16500 119244.000000
10974 17977 1 0.16500 119244.000000
10975 16508 1 0.16500 119244.000000
10975 16770 1 0.16500 119244.000000
10976 16511 1 0.16500 119244.000000
10976 16750 1 0.16500 119244.000000
10977 16514 1 0.16500 119244.000000
10977 16572 1 0.16500 119244.000000
10978 16514 1 0.16500 119244.000000
10978 17024 1 0.16500 119244.000000
10979 16515 1 0.16500 119244.000000
10979 16853 1 0.16500 119244.000000
10980 16613 1 0.16500 119244.000000
10980 16892 1 0.16500 119244.000000
10981 16516 1 0.16500 119244.000000
10981 16892 1 0.16500 119244.000000
10982 16517 1 0.16500 119244.000000
10982 16538 1 0.16500 119244.000000
10983 16522 1 0.16500 119244.000000
10983 16865 1 0.16500 119244.000000
10984 16522 1 0.16500 119244.000000
10984 16997 1 0.16500 119244.000000
10985 16522 1 0.16500 119244.000000
10985 17086 1 0.16500 119244.000000
10986 16523 1 0.16500 119244.000000
10986 16951 1 0.16500 119244.000000
10987 16527 1 0.16500 119244.000000
10987 16786 1 0.16500 119244.000000
10988 16528 1 0.16500 119244.000000
10988 17132 1 0.16500 119244.000000
10989 16529 1 0.16500 119244.000000
10989 17048 1 0.16500 119244.000000
10990 16536 1 0.16500 119244.000000
10990 16874 1 0.16500 119244.000000
10991 16539 1 0.16500 119244.000000
10991 17089 1 0.16500 119244.000000
10992 16551 1 0.16500 119244.000000
10992 16918 1 0.16500 119244.000000
10993 16554 1 0.16500 119244.000000
10993 17080 1 0.16500 119244.000000
10994 16556 1 0.16500 119244.000000
10994 16782 1 0.16500 119244.000000
10995 16563 1 0.16500 119244.000000
10995 16602 1 0.16500 119244.000000
10996 16567 1 0.16500 119244.000000
10996 17196 1 0.16500 119244.000000
10997 16568 1 0.16500 119244.000000
10997 16885 1 0.16500 119244.000000
10998 12022 1 0.16500 119244.000000
10998 16574 1 0.16500 119244.000000
10999 16576 1 0.16500 119244.000000
10999 16654 1 0.16500 119244.000000
11000 16576 1 0.16500 119244.000000
11000 16779 1 0.16500 119244.000000
11001 16577 1 0.16500 119244.000000
11001 16941 1 0.16500 119244.000000
11002 16577 1 0.16500 119244.000000
11002 16864 1 0.16500 119244.000000
11003 16579 1 0.16500 119244.000000
11003 16693 1 0.16500 119244.000000
11004 16579 1 0.16500 119244.000000
11004 16662 1 0.16500 119244.000000
11005 16587 1 0.16500 119244.000000
11005 16979 1 0.16500 119244.000000
11006 14629 1 0.16500 119244.000000
11006 16730 1 0.16500 119244.000000
11007 16594 1 0.16500 119244.000000
11007 17069 1 0.16500 119244.000000
11008 16594 1 0.16500 119244.000000
11008 16721 1 0.16500 119244.000000
11009 16597 1 0.16500 119244.000000
11009 16778 1 0.16500 119244.000000
11010 16605 1 0.16500 119244.000000
11010 16998 1 0.16500 119244.000000
11011 16608 1 0.16500 119244.000000
11011 16874 1 0.16500 119244.000000
11012 16611 1 0.16500 119244.000000
11012 16647 1 0.16500 119244.000000
11013 16612 1 0.16500 119244.000000
11013 16991 1 0.16500 119244.000000
11014 16613 1 0.16500 119244.000000
11014 17959 1 0.16500 119244.000000
11015 16614 1 0.16500 119244.000000
11015 17175 1 0.16500 119244.000000
11016 16615 1 0.16500 119244.000000
11016 17135 1 0.16500 119244.000000
11017 16414 1 0.16500 119244.000000
11017 17038 1 0.16500 119244.000000
11018 16617 1 0.16500 119244.000000
11018 17021 1 0.16500 119244.000000
11019 16617 1 0.16500 119244.000000
11019 17163 1 0.16500 119244.000000
11020 16625 1 0.16500 119244.000000
11020 16718 1 0.16500 119244.000000
11021 16718 1 0.16500 119244.000000
11021 16922 1 0.16500 119244.000000
11022 15545 1 0.16500 119244.000000
11022 16626 1 0.16500 119244.000000
11023 16627 1 0.16500 119244.000000
11023 16717 1 0.16500 119244.000000
11024 16633 1 0.16500 119244.000000
11024 17125 1 0.16500 119244.000000
11025 16633 1 0.16500 119244.000000
11025 16813 1 0.16500 119244.000000
11026 16634 1 0.16500 119244.000000
11026 16951 1 0.16500 119244.000000
11027 16638 1 0.16500 119244.000000
11027 16936 1 0.16500 119244.000000
11028 16640 1 0.16500 119244.000000
11028 16775 1 0.16500 119244.000000
11029 16641 1 0.16500 119244.000000
11029 16971 1 0.16500 119244.000000
11030 16641 1 0.16500 119244.000000
11030 16945 1 0.16500 119244.000000
11031 16642 1 0.16500 119244.000000
11031 17040 1 0.16500 119244.000000
11032 17938 1 0.16500 119244.000000
11032 17980 1 0.16500 119244.000000
11033 16647 1 0.16500 119244.000000
11033 17178 1 0.16500 119244.000000
11034 16657 1 0.16500 119244.000000
11034 16877 1 0.16500 119244.000000
11035 16663 1 0.16500 119244.000000
11035 16787 1 0.16500 119244.000000
11036 16665 1 0.16500 119244.000000
11036 17185 1 0.16500 119244.000000
11037 16667 1 0.16500 119244.000000
11037 16729 1 0.16500 119244.000000
11038 16669 1 0.16500 119244.000000
11038 16728 1 0.16500 119244.000000
11039 16677 1 0.16500 119244.000000
11039 17124 1 0.16500 119244.000000
11040 13483 1 0.16500 119244.000000
11040 16685 1 0.16500 119244.000000
11041 16689 1 0.16500 119244.000000
11041 16893 1 0.16500 119244.000000
11042 16689 1 0.16500 119244.000000
11042 16929 1 0.16500 119244.000000
11043 16694 1 0.16500 119244.000000
11043 17130 1 0.16500 119244.000000
11044 16696 1 0.16500 119244.000000
11044 16987 1 0.16500 119244.000000
11045 16698 1 0.16500 119244.000000
11045 16813 1 0.16500 119244.000000
11046 16701 1 0.16500 119244.000000
11046 16928 1 0.16500 119244.000000
11047 16701 1 0.16500 119244.000000
11047 17120 1 0.16500 119244.000000
11048 16703 1 0.16500 119244.000000
11048 17054 1 0.16500 119244.000000
11049 16704 1 0.16500 119244.000000
11049 16955 1 0.16500 119244.000000
11050 16706 1 0.16500 119244.000000
11050 16759 1 0.16500 119244.000000
11051 16713 1 0.16500 119244.000000
11051 16833 1 0.16500 119244.000000
11052 16719 1 0.16500 119244.000000
11052 16778 1 0.16500 119244.000000
11053 16720 1 0.16500 119244.000000
11053 17007 1 0.16500 119244.000000
11054 15104 1 0.16500 119244.000000
11054 17010 1 0.16500 119244.000000
11055 15104 1 0.16500 119244.000000
11055 16992 1 0.16500 119244.000000
11056 16724 1 0.16500 119244.000000
11056 17105 1 0.16500 119244.000000
11057 16732 1 0.16500 119244.000000
11057 16857 1 0.16500 119244.000000
11058 16734 1 0.16500 119244.000000
11058 17115 1 0.16500 119244.000000
11059 16736 1 0.16500 119244.000000
11059 17156 1 0.16500 119244.000000
11060 16738 1 0.16500 119244.000000
11060 16949 1 0.16500 119244.000000
11061 16738 1 0.16500 119244.000000
11061 16840 1 0.16500 119244.000000
11062 12406 1 0.16500 119244.000000
11062 16739 1 0.16500 119244.000000
11063 16741 1 0.16500 119244.000000
11063 16958 1 0.16500 119244.000000
11064 16746 1 0.16500 119244.000000
11064 17098 1 0.16500 119244.000000
11065 16748 1 0.16500 119244.000000
11065 17019 1 0.16500 119244.000000
11066 16750 1 0.16500 119244.000000
11066 17048 1 0.16500 119244.000000
11067 13039 1 0.16500 119244.000000
11067 16942 1 0.16500 119244.000000
11068 16753 1 0.16500 119244.000000
11068 17150 1 0.16500 119244.000000
11069 16755 1 0.16500 119244.000000
11069 16963 1 0.16500 119244.000000
11070 16756 1 0.16500 119244.000000
11070 16975 1 0.16500 119244.000000
11071 16757 1 0.16500 119244.000000
11071 16792 1 0.16500 119244.000000
11072 16608 1 0.16500 119244.000000
11072 16758 1 0.16500 119244.000000
11073 16758 1 0.16500 119244.000000
11073 16913 1 0.16500 119244.000000
11074 16763 1 0.16500 119244.000000
11074 16904 1 0.16500 119244.000000
11075 16764 1 0.16500 119244.000000
11075 16773 1 0.16500 119244.000000
11076 16771 1 0.16500 119244.000000
11076 16993 1 0.16500 119244.000000
11077 16780 1 0.16500 119244.000000
11077 16798 1 0.16500 119244.000000
11078 12314 1 0.16500 119244.000000
11078 16789 1 0.16500 119244.000000
11079 16792 1 0.16500 119244.000000
11079 17065 1 0.16500 119244.000000
11080 16792 1 0.16500 119244.000000
11080 16801 1 0.16500 119244.000000
11081 16796 1 0.16500 119244.000000
11081 16846 1 0.16500 119244.000000
11082 16800 1 0.16500 119244.000000
11082 17022 1 0.16500 119244.000000
11083 16807 1 0.16500 119244.000000
11083 16918 1 0.16500 119244.000000
11084 16815 1 0.16500 119244.000000
11084 17066 1 0.16500 119244.000000
11085 16817 1 0.16500 119244.000000
11085 17083 1 0.16500 119244.000000
11086 16821 1 0.16500 119244.000000
11086 16868 1 0.16500 119244.000000
11087 16824 1 0.16500 119244.000000
11087 17003 1 0.16500 119244.000000
11088 16829 1 0.16500 119244.000000
11088 17162 1 0.16500 119244.000000
11089 16831 1 0.16500 119244.000000
11089 17084 1 0.16500 119244.000000
11090 13062 1 0.16500 119244.000000
11090 16831 1 0.16500 119244.000000
11091 16832 1 0.16500 119244.000000
11091 17096 1 0.16500 119244.000000
11092 16834 1 0.16500 119244.000000
11092 16943 1 0.16500 119244.000000
11093 16842 1 0.16500 119244.000000
11093 16964 1 0.16500 119244.000000
11094 16859 1 0.16500 119244.000000
11094 17109 1 0.16500 119244.000000
11095 16867 1 0.16500 119244.000000
11095 17043 1 0.16500 119244.000000
11096 16872 1 0.16500 119244.000000
11096 17059 1 0.16500 119244.000000
11097 16882 1 0.16500 119244.000000
11097 17043 1 0.16500 119244.000000
11098 16888 1 0.16500 119244.000000
11098 16922 1 0.16500 119244.000000
11099 16899 1 0.16500 119244.000000
11099 17178 1 0.16500 119244.000000
11100 16900 1 0.16500 119244.000000
11100 17047 1 0.16500 119244.000000
11101 16902 1 0.16500 119244.000000
11101 17095 1 0.16500 119244.000000
11102 16902 1 0.16500 119244.000000
11102 16972 1 0.16500 119244.000000
11103 16903 1 0.16500 119244.000000
11103 16937 1 0.16500 119244.000000
11104 16904 1 0.16500 119244.000000
11104 16925 1 0.16500 119244.000000
11105 16907 1 0.16500 119244.000000
11105 17164 1 0.16500 119244.000000
11106 16908 1 0.16500 119244.000000
11106 16948 1 0.16500 119244.000000
11107 16910 1 0.16500 119244.000000
11107 16920 1 0.16500 119244.000000
11108 16919 1 0.16500 119244.000000
11108 17120 1 0.16500 119244.000000
11109 16927 1 0.16500 119244.000000
11109 16988 1 0.16500 119244.000000
11110 16929 1 0.16500 119244.000000
11110 16966 1 0.16500 119244.000000
11111 16936 1 0.16500 119244.000000
11111 17129 1 0.16500 119244.000000
11112 16942 1 0.16500 119244.000000
11112 17153 1 0.16500 119244.000000
11113 16943 1 0.16500 119244.000000
11113 17046 1 0.16500 119244.000000
11114 16944 1 0.16500 119244.000000
11114 17042 1 0.16500 119244.000000
11115 16954 1 0.16500 119244.000000
11115 17010 1 0.16500 119244.000000
11116 16955 1 0.16500 119244.000000
11116 17134 1 0.16500 119244.000000
11117 16960 1 0.16500 119244.000000
11117 17139 1 0.16500 119244.000000
11118 16965 1 0.16500 119244.000000
11118 17158 1 0.16500 119244.000000
11119 16970 1 0.16500 119244.000000
11119 17195 1 0.16500 119244.000000
11120 16972 1 0.16500 119244.000000
11120 17082 1 0.16500 119244.000000
11121 16975 1 0.16500 119244.000000
11121 17108 1 0.16500 119244.000000
11122 16992 1 0.16500 119244.000000
11122 17078 1 0.16500 119244.000000
11123 16995 1 0.16500 119244.000000
11123 17061 1 0.16500 119244.000000
11124 17009 1 0.16500 119244.000000
11124 17095 1 0.16500 119244.000000
11125 17088 1 0.16500 119244.000000
11125 17989 1 0.16500 119244.000000
11126 17030 1 0.16500 119244.000000
11126 17076 1 0.16500 119244.000000
11127 17034 1 0.16500 119244.000000
11127 17052 1 0.16500 119244.000000
11128 17036 1 0.16500 119244.000000
11128 17133 1 0.16500 119244.000000
11129 17038 1 0.16500 119244.000000
11129 17073 1 0.16500 119244.000000
11130 17045 1 0.16500 119244.000000
11130 17066 1 0.16500 119244.000000
11131 17056 1 0.16500 119244.000000
11131 17171 1 0.16500 119244.000000
11132 17068 1 0.16500 119244.000000
11132 17171 1 0.16500 119244.000000
11133 17087 1 0.16500 119244.000000
11133 17148 1 0.16500 119244.000000
11134 17098 1 0.16500 119244.000000
11134 17180 1 0.16500 119244.000000
11135 17101 1 0.16500 119244.000000
11135 17163 1 0.16500 119244.000000
11136 17131 1 0.16500 119244.000000
11136 17192 1 0.16500 119244.000000
11137 17136 1 0.16500 119244.000000
11137 17161 1 0.16500 119244.000000
11138 12375 1 0.16500 119244.000000
11138 13099 1 0.16500 119244.000000
11139 11612 1 0.16500 119244.000000
11139 12883 1 0.16500 119244.000000
11140 13225 1 0.16500 119244.000000
11140 14834 1 0.16500 119244.000000
11141 13856 1 0.16500 119244.000000
11141 17980 1 0.16500 119244.000000
11142 14097 1 0.16500 119244.000000
11142 16938 1 0.16500 119244.000000
11143 14628 1 0.16500 119244.000000
11143 16601 1 0.16500 119244.000000
11144 14622 1 0.16500 119244.000000
11144 17662 1 0.16500 119244.000000
11145 12944 1 0.16500 119244.000000
11145 15431 1 0.16500 119244.000000
11146 14391 1 0.16500 119244.000000
11146 17884 1 0.16500 119244.000000
11147 11669 1 0.16500 119244.000000
11147 16182 1 0.16500 119244.000000
11148 13215 1 0.16500 119244.000000
11148 16886 1 0.16500 119244.000000
11149 12825 1 0.16500 119244.000000
11149 13665 1 0.16500 119244.000000
11150 12987 1 0.16500 119244.000000
11150 15205 1 0.16500 119244.000000
11151 14709 1 0.16500 119244.000000
11151 15378 1 0.16500 119244.000000
11152 16302 1 0.16500 119244.000000
11152 17374 1 0.16500 119244.000000
11153 14216 1 0.16500 119244.000000
11153 14270 1 0.16500 119244.000000
11154 14054 1 0.16500 119244.000000
11154 15651 1 0.16500 119244.000000
11155 12504 1 0.16500 119244.000000
11155 14655 1 0.16500 119244.000000
11156 12981 1 0.16500 119244.000000
11156 16386 1 0.16500 119244.000000
11157 14836 1 0.16500 119244.000000
11157 15516 1 0.16500 119244.000000
11158 13458 1 0.16500 119244.000000
11158 14326 1 0.16500 119244.000000
11159 13868 1 0.16500 119244.000000
11159 14156 1 0.16500 119244.000000
11160 12775 1 0.16500 119244.000000
11160 16950 1 0.16500 119244.000000
11161 16188 1 0.16500 119244.000000
11161 16693 1 0.16500 119244.000000
11162 14540 1 0.16500 119244.000000
11162 17617 1 0.16500 119244.000000
11163 12609 1 0.16500 119244.000000
11163 14485 1 0.16500 119244.000000
11164 13098 1 0.16500 119244.000000
11164 15045 1 0.16500 119244.000000
11165 15510 1 0.16500 119244.000000
11165 15986 1 0.16500 119244.000000
11166 13518 1 0.16500 119244.000000
11166 13745 1 0.16500 119244.000000
11167 13005 1 0.16500 119244.000000
11167 17302 1 0.16500 119244.000000
11168 13129 1 0.16500 119244.000000
11168 16834 1 0.16500 119244.000000
11169 14556 1 0.16500 119244.000000
11169 17362 1 0.16500 119244.000000
11170 13180 1 0.16500 119244.000000
11170 17698 1 0.16500 119244.000000
11171 15567 1 0.16500 119244.000000
11171 16838 1 0.16500 119244.000000
11172 13090 1 0.16500 119244.000000
11172 15062 1 0.16500 119244.000000
11173 14227 1 0.16500 119244.000000
11173 14895 1 0.16500 119244.000000
11174 13246 1 0.16500 119244.000000
11174 17920 1 0.16500 119244.000000
11175 11984 1 0.16500 119244.000000
11175 12144 1 0.16500 119244.000000
11176 12890 1 0.16500 119244.000000
11176 16894 1 0.16500 119244.000000
11177 14834 1 0.16500 119244.000000
11177 15330 1 0.16500 119244.000000
11178 12790 1 0.16500 119244.000000
11178 15327 1 0.16500 119244.000000
11179 11832 1 0.16500 119244.000000
11179 17755 1 0.16500 119244.000000
11180 12596 1 0.16500 119244.000000
11180 14227 1 0.16500 119244.000000
11181 12227 1 0.16500 119244.000000
11181 12697 1 0.16500 119244.000000
11182 14592 1 0.16500 119244.000000
11182 16739 1 0.16500 119244.000000
11183 12699 1 0.16500 119244.000000
11183 13771 1 0.16500 119244.000000
11184 13438 1 0.16500 119244.000000
11184 15877 1 0.16500 119244.000000
11185 13745 1 0.16500 119244.000000
11185 16245 1 0.16500 119244.000000
11186 12417 1 0.16500 119244.000000
11186 17923 1 0.16500 119244.000000
11187 15951 1 0.16500 119244.000000
11187 17971 1 0.16500 119244.000000
11188 12521 1 0.16500 119244.000000
11188 13018 1 0.16500 119244.000000
11189 15023 1 0.16500 119244.000000
11189 16028 1 0.16500 119244.000000
11190 15330 1 0.16500 119244.000000
11190 16138 1 0.16500 119244.000000
11191 11676 1 0.16500 119244.000000
11191 11975 1 0.16500 119244.000000
11192 14485 1 0.16500 119244.000000
11192 16916 1 0.16500 119244.000000
11193 13104 1 0.16500 119244.000000
11193 14462 1 0.16500 119244.000000
11194 13496 1 0.16500 119244.000000
11194 15881 1 0.16500 119244.000000
11195 15127 1 0.16500 119244.000000
11195 15334 1 0.16500 119244.000000
11196 14733 1 0.16500 119244.000000
11196 16696 1 0.16500 119244.000000
11197 11725 1 0.16500 119244.000000
11197 13509 1 0.16500 119244.000000
11198 11632 1 0.16500 119244.000000
11198 16375 1 0.16500 119244.000000
11199 16375 1 0.16500 119244.000000
11199 17548 1 0.16500 119244.000000
11200 16772 1 0.16500 119244.000000
11200 17542 1 0.16500 119244.000000
11201 13060 1 0.16500 119244.000000
11201 13491 1 0.16500 119244.000000
11202 11918 1 0.16500 119244.000000
11202 15235 1 0.16500 119244.000000
11203 13435 1 0.16500 119244.000000
11203 13614 1 0.16500 119244.000000
11204 14493 1 0.16500 119244.000000
11204 15377 1 0.16500 119244.000000
11205 11819 1 0.16500 119244.000000
11205 12725 1 0.16500 119244.000000
11206 12888 1 0.16500 119244.000000
11206 13334 1 0.16500 119244.000000
11207 16178 1 0.16500 119244.000000
11207 17854 1 0.16500 119244.000000
11208 11852 1 0.16500 119244.000000
11208 17130 1 0.16500 119244.000000
11209 12756 1 0.16500 119244.000000
11209 16005 1 0.16500 119244.000000
11210 13796 1 0.16500 119244.000000
11210 14655 1 0.16500 119244.000000
11211 12174 1 0.16500 119244.000000
11211 13207 1 0.16500 119244.000000
11212 14374 1 0.16500 119244.000000
11212 17566 1 0.16500 119244.000000
11213 13119 1 0.16500 119244.000000
11213 14767 1 0.16500 119244.000000
11214 15239 1 0.16500 119244.000000
11214 17941 1 0.16500 119244.000000
11215 11644 1 0.16500 119244.000000
11215 14513 1 0.16500 119244.000000
11216 15431 1 0.16500 119244.000000
11216 17800 1 0.16500 119244.000000
11217 12083 1 0.16500 119244.000000
11217 14156 1 0.16500 119244.000000
11218 13762 1 0.16500 119244.000000
11218 15897 1 0.16500 119244.000000
11219 13315 1 0.16500 119244.000000
11219 16059 1 0.16500 119244.000000
11220 12432 1 0.16500 119244.000000
11220 12978 1 0.16500 119244.000000
11221 16591 1 0.16500 119244.000000
11221 17890 1 0.16500 119244.000000
11222 15031 1 0.16500 119244.000000
11222 16186 1 0.16500 119244.000000
11223 12726 1 0.16500 119244.000000
11223 17707 1 0.16500 119244.000000
11224 15817 1 0.16500 119244.000000
11224 15940 1 0.16500 119244.000000
11225 16980 1 0.16500 119244.000000
11225 17209 1 0.16500 119244.000000
11226 11923 1 0.16500 119244.000000
11226 17605 1 0.16500 119244.000000
11227 15407 1 0.16500 119244.000000
11227 16364 1 0.16500 119244.000000
11228 12874 1 0.16500 119244.000000
11228 16594 1 0.16500 119244.000000
11229 14743 1 0.16500 119244.000000
11229 17716 1 0.16500 119244.000000
11230 12604 1 0.16500 119244.000000
11230 17075 1 0.16500 119244.000000
11231 12434 1 0.16500 119244.000000
11231 13230 1 0.16500 119244.000000
11232 13835 1 0.16500 119244.000000
11232 17055 1 0.16500 119244.000000
11233 15877 1 0.16500 119244.000000
11233 17293 1 0.16500 119244.000000
11234 14612 1 0.16500 119244.000000
11234 14880 1 0.16500 119244.000000
11235 11956 1 0.16500 119244.000000
11235 12973 1 0.16500 119244.000000
11236 11614 1 0.16500 119244.000000
11236 14857 1 0.16500 119244.000000
11237 13293 1 0.16500 119244.000000
11237 16915 1 0.16500 119244.000000
11238 12221 1 0.16500 119244.000000
11238 17332 1 0.16500 119244.000000
11239 15102 1 0.16500 119244.000000
11239 17665 1 0.16500 119244.000000
11240 11719 1 0.16500 119244.000000
11240 15411 1 0.16500 119244.000000
11241 11873 1 0.16500 119244.000000
11241 16855 1 0.16500 119244.000000
11242 12074 1 0.16500 119244.000000
11242 17161 1 0.16500 119244.000000
11243 12040 1 0.16500 119244.000000
11243 16755 1 0.16500 119244.000000
11244 12432 1 0.16500 119244.000000
11244 14066 1 0.16500 119244.000000
11245 13043 1 0.16500 119244.000000
11245 13609 1 0.16500 119244.000000
11246 15156 1 0.16500 119244.000000
11246 17632 1 0.16500 119244.000000
11247 14632 1 0.16500 119244.000000
11247 15151 1 0.16500 119244.000000
11248 13846 1 0.16500 119244.000000
11248 17488 1 0.16500 119244.000000
11249 15424 1 0.16500 119244.000000
11249 17650 1 0.16500 119244.000000
11250 12596 1 0.16500 119244.000000
11250 17563 1 0.16500 119244.000000
11251 15062 1 0.16500 119244.000000
11251 17584 1 0.16500 119244.000000
11252 14881 1 0.16500 119244.000000
11252 16955 1 0.16500 119244.000000
11253 12297 1 0.16500 119244.000000
11253 14628 1 0.16500 119244.000000
11254 11749 1 0.16500 119244.000000
11254 11910 1 0.16500 119244.000000
11255 13903 1 0.16500 119244.000000
11255 17416 1 0.16500 119244.000000
11256 12604 1 0.16500 119244.000000
11256 13667 1 0.16500 119244.000000
11257 12218 1 0.16500 119244.000000
11257 17794 1 0.16500 119244.000000
11258 11791 1 0.16500 119244.000000
11258 16518 1 0.16500 119244.000000
11259 11716 1 0.16500 119244.000000
11259 17147 1 0.16500 119244.000000
11260 16737 1 0.16500 119244.000000
11260 17440 1 0.16500 119244.000000
11261 12264 1 0.16500 119244.000000
11261 15737 1 0.16500 119244.000000
11262 14881 1 0.16500 119244.000000
11262 15690 1 0.16500 119244.000000
11263 11725 1 0.16500 119244.000000
11263 15659 1 0.16500 119244.000000
11264 16429 1 0.16500 119244.000000
11264 17353 1 0.16500 119244.000000
11265 13018 1 0.16500 119244.000000
11265 17797 1 0.16500 119244.000000
11266 12033 1 0.16500 119244.000000
11266 17260 1 0.16500 119244.000000
11267 14591 1 0.16500 119244.000000
11267 17587 1 0.16500 119244.000000
11268 12520 1 0.16500 119244.000000
11268 17575 1 0.16500 119244.000000
11269 12315 1 0.16500 119244.000000
11269 16712 1 0.16500 119244.000000
11270 12010 1 0.16500 119244.000000
11270 13743 1 0.16500 119244.000000
11271 12101 1 0.16500 119244.000000
11271 13424 1 0.16500 119244.000000
11272 15033 1 0.16500 119244.000000
11272 17344 1 0.16500 119244.000000
11273 13889 1 0.16500 119244.000000
11273 16947 1 0.16500 119244.000000
11274 13152 1 0.16500 119244.000000
11274 15366 1 0.16500 119244.000000
11275 12429 1 0.16500 119244.000000
11275 13511 1 0.16500 119244.000000
11276 13357 1 0.16500 119244.000000
11276 14985 1 0.16500 119244.000000
11277 15471 1 0.16500 119244.000000
11277 17275 1 0.16500 119244.000000
11278 11792 1 0.16500 119244.000000
11278 15176 1 0.16500 119244.000000
11279 14513 1 0.16500 119244.000000
11279 15584 1 0.16500 119244.000000
11280 16499 1 0.16500 119244.000000
11280 17881 1 0.16500 119244.000000
11281 15313 1 0.16500 119244.000000
11281 15767 1 0.16500 119244.000000
11282 12799 1 0.16500 119244.000000
11282 17446 1 0.16500 119244.000000
11283 13448 1 0.16500 119244.000000
11283 15225 1 0.16500 119244.000000
11284 12270 1 0.16500 119244.000000
11284 17413 1 0.16500 119244.000000
11285 12262 1 0.16500 119244.000000
11285 14526 1 0.16500 119244.000000
11286 14410 1 0.16500 119244.000000
11286 16241 1 0.16500 119244.000000
11287 11992 1 0.16500 119244.000000
11287 15607 1 0.16500 119244.000000
11288 12585 1 0.16500 119244.000000
11288 15881 1 0.16500 119244.000000
11289 11988 1 0.16500 119244.000000
11289 12350 1 0.16500 119244.000000
11290 16621 1 0.16500 119244.000000
11290 17533 1 0.16500 119244.000000
11291 12145 1 0.16500 119244.000000
11291 17653 1 0.16500 119244.000000
11292 16789 1 0.16500 119244.000000
11292 17500 1 0.16500 119244.000000
11293 12262 1 0.16500 119244.000000
11293 17944 1 0.16500 119244.000000
11294 11986 1 0.16500 119244.000000
11294 13534 1 0.16500 119244.000000
11295 11640 1 0.16500 119244.000000
11295 12699 1 0.16500 119244.000000
11296 12190 1 0.16500 119244.000000
11296 15251 1 0.16500 119244.000000
11297 12883 1 0.16500 119244.000000
11297 15030 1 0.16500 119244.000000
11298 14717 1 0.16500 119244.000000
11298 15374 1 0.16500 119244.000000
11299 12375 1 0.16500 119244.000000
11299 17224 1 0.16500 119244.000000
11300 15225 1 0.16500 119244.000000
11300 17926 1 0.16500 119244.000000
11301 13416 1 0.16500 119244.000000
11301 14887 1 0.16500 119244.000000
11302 11658 1 0.16500 119244.000000
11302 12040 1 0.16500 119244.000000
11303 14337 1 0.16500 119244.000000
11303 16041 1 0.16500 119244.000000
11304 11736 1 0.16500 119244.000000
11304 17713 1 0.16500 119244.000000
11305 16481 1 0.16500 119244.000000
11305 16696 1 0.16500 119244.000000
11306 14596 1 0.16500 119244.000000
11306 15136 1 0.16500 119244.000000
11307 12859 1 0.16500 119244.000000
11307 14469 1 0.16500 119244.000000
11308 13605 1 0.16500 119244.000000
11308 16950 1 0.16500 119244.000000
11309 14078 1 0.16500 119244.000000
11309 14288 1 0.16500 119244.000000
11310 13160 1 0.16500 119244.000000
11310 16602 1 0.16500 119244.000000
11311 14384 1 0.16500 119244.000000
11311 18001 1 0.16500 119244.000000
11312 12219 1 0.16500 119244.000000
11312 14441 1 0.16500 119244.000000
11313 13748 1 0.16500 119244.000000
11313 16917 1 0.16500 119244.000000
11314 13825 1 0.16500 119244.000000
11314 17236 1 0.16500 119244.000000
11315 16855 1 0.16500 119244.000000
11315 17308 1 0.16500 119244.000000
11316 12190 1 0.16500 119244.000000
11316 13808 1 0.16500 119244.000000
11317 16880 1 0.16500 119244.000000
11317 17443 1 0.16500 119244.000000
11318 15129 1 0.16500 119244.000000
11318 17734 1 0.16500 119244.000000
11319 15206 1 0.16500 119244.000000
11319 15511 1 0.16500 119244.000000
11320 13010 1 0.16500 119244.000000
11320 14690 1 0.16500 119244.000000
11321 14119 1 0.16500 119244.000000
11321 16882 1 0.16500 119244.000000
11322 15816 1 0.16500 119244.000000
11322 17404 1 0.16500 119244.000000
11323 12585 1 0.16500 119244.000000
11323 17545 1 0.16500 119244.000000
11324 15074 1 0.16500 119244.000000
11324 16712 1 0.16500 119244.000000
11325 14113 1 0.16500 119244.000000
11325 15006 1 0.16500 119244.000000
11326 12050 1 0.16500 119244.000000
11326 17917 1 0.16500 119244.000000
11327 15133 1 0.16500 119244.000000
11327 16534 1 0.16500 119244.000000
11328 15453 1 0.16500 119244.000000
11328 17407 1 0.16500 119244.000000
11329 12466 1 0.16500 119244.000000
11329 15145 1 0.16500 119244.000000
11330 12777 1 0.16500 119244.000000
11330 14200 1 0.16500 119244.000000
11331 12295 1 0.16500 119244.000000
11331 17866 1 0.16500 119244.000000
11332 13614 1 0.16500 119244.000000
11332 17494 1 0.16500 119244.000000
11333 13058 1 0.16500 119244.000000
11333 16280 1 0.16500 119244.000000
11334 13043 1 0.16500 119244.000000
11334 17623 1 0.16500 119244.000000
11335 13493 1 0.16500 119244.000000
11335 16581 1 0.16500 119244.000000
11336 16916 1 0.16500 119244.000000
11336 17203 1 0.16500 119244.000000
11337 13366 1 0.16500 119244.000000
11337 16966 1 0.16500 119244.000000
11338 12200 1 0.16500 119244.000000
11338 15394 1 0.16500 119244.000000
11339 16138 1 0.16500 119244.000000
11339 17749 1 0.16500 119244.000000
11340 15893 1 0.16500 119244.000000
11340 17695 1 0.16500 119244.000000
11341 13042 1 0.16500 119244.000000
11341 17347 1 0.16500 119244.000000
11342 12477 1 0.16500 119244.000000
11342 17245 1 0.16500 119244.000000
11343 12179 1 0.16500 119244.000000
11343 17812 1 0.16500 119244.000000
11344 16147 1 0.16500 119244.000000
11344 16320 1 0.16500 119244.000000
11345 11992 1 0.16500 119244.000000
11345 17320 1 0.16500 119244.000000
11346 15084 1 0.16500 119244.000000
11346 16452 1 0.16500 119244.000000
11347 12217 1 0.16500 119244.000000
11347 17626 1 0.16500 119244.000000
11348 11694 1 0.16500 119244.000000
11348 13198 1 0.16500 119244.000000
11349 15507 1 0.16500 119244.000000
11349 17455 1 0.16500 119244.000000
11350 15955 1 0.16500 119244.000000
11350 17239 1 0.16500 119244.000000
11351 13757 1 0.16500 119244.000000
11351 17830 1 0.16500 119244.000000
11352 13152 1 0.16500 119244.000000
11352 17401 1 0.16500 119244.000000
11353 14572 1 0.16500 119244.000000
11353 17461 1 0.16500 119244.000000
11354 14857 1 0.16500 119244.000000
11354 17857 1 0.16500 119244.000000
11355 12892 1 0.16500 119244.000000
11355 15074 1 0.16500 119244.000000
11356 16399 1 0.16500 119244.000000
11356 17578 1 0.16500 119244.000000
11357 15690 1 0.16500 119244.000000
11357 17953 1 0.16500 119244.000000
11358 12041 1 0.16500 119244.000000
11358 13769 1 0.16500 119244.000000
11359 12065 1 0.16500 119244.000000
11359 14692 1 0.16500 119244.000000
11360 14240 1 0.16500 119244.000000
11360 16098 1 0.16500 119244.000000
11361 15452 1 0.16500 119244.000000
11361 17062 1 0.16500 119244.000000
11362 11956 1 0.16500 119244.000000
11362 16549 1 0.16500 119244.000000
11363 15050 1 0.16500 119244.000000
11363 17740 1 0.16500 119244.000000
11364 13673 1 0.16500 119244.000000
11364 17758 1 0.16500 119244.000000
11365 11779 1 0.16500 119244.000000
11365 14478 1 0.16500 119244.000000
11366 12892 1 0.16500 119244.000000
11366 12994 1 0.16500 119244.000000
11367 13808 1 0.16500 119244.000000
11367 17377 1 0.16500 119244.000000
11368 12065 1 0.16500 119244.000000
11368 17335 1 0.16500 119244.000000
11369 11952 1 0.16500 119244.000000
11369 16652 1 0.16500 119244.000000
11370 12999 1 0.16500 119244.000000
11370 15003 1 0.16500 119244.000000
11371 12422 1 0.16500 119244.000000
11371 13608 1 0.16500 119244.000000
11372 12105 1 0.16500 119244.000000
11372 14342 1 0.16500 119244.000000
11373 15380 1 0.16500 119244.000000
11373 17899 1 0.16500 119244.000000
11374 13173 1 0.16500 119244.000000
11374 17111 1 0.16500 119244.000000
11375 16479 1 0.16500 119244.000000
11375 17992 1 0.16500 119244.000000
11376 12610 1 0.16500 119244.000000
11376 17824 1 0.16500 119244.000000
11377 15312 1 0.16500 119244.000000
11377 17395 1 0.16500 119244.000000
11378 13605 1 0.16500 119244.000000
11378 17791 1 0.16500 119244.000000
11379 14632 1 0.16500 119244.000000
11379 17809 1 0.16500 119244.000000
11380 16344 1 0.16500 119244.000000
11380 16597 1 0.16500 119244.000000
11381 15573 1 0.16500 119244.000000
11381 17099 1 0.16500 119244.000000
11382 13850 1 0.16500 119244.000000
11382 16386 1 0.16500 119244.000000
11383 16456 1 0.16500 119244.000000
11383 17704 1 0.16500 119244.000000
11384 13306 1 0.16500 119244.000000
11384 13588 1 0.16500 119244.000000
11385 15070 1 0.16500 119244.000000
11385 15516 1 0.16500 119244.000000
11386 12466 1 0.16500 119244.000000
11386 15467 1 0.16500 119244.000000
11387 15205 1 0.16500 119244.000000
11387 17641 1 0.16500 119244.000000
11388 16834 1 0.16500 119244.000000
11388 17428 1 0.16500 119244.000000
11389 12505 1 0.16500 119244.000000
11389 13366 1 0.16500 119244.000000
11390 15413 1 0.16500 119244.000000
11390 16651 1 0.16500 119244.000000
11391 13667 1 0.16500 119244.000000
11391 14877 1 0.16500 119244.000000
11392 12919 1 0.16500 119244.000000
11392 17656 1 0.16500 119244.000000
11393 14710 1 0.16500 119244.000000
11393 16123 1 0.16500 119244.000000
11394 16295 1 0.16500 119244.000000
11394 17806 1 0.16500 119244.000000
11395 12984 1 0.16500 119244.000000
11395 16412 1 0.16500 119244.000000
11396 17004 1 0.16500 119244.000000
11396 17123 1 0.16500 119244.000000
11397 12976 1 0.16500 119244.000000
11397 13688 1 0.16500 119244.000000
11398 14815 1 0.16500 119244.000000
11398 16045 1 0.16500 119244.000000
11399 12264 1 0.16500 119244.000000
11399 14648 1 0.16500 119244.000000
11400 14045 1 0.16500 119244.000000
11400 14293 1 0.16500 119244.000000
11401 15897 1 0.16500 119244.000000
11401 17512 1 0.16500 119244.000000
11402 15604 1 0.16500 119244.000000
11402 16506 1 0.16500 119244.000000
11403 15964 1 0.16500 119244.000000
11403 17767 1 0.16500 119244.000000
11404 12533 1 0.16500 119244.000000
11404 16489 1 0.16500 119244.000000
11405 13098 1 0.16500 119244.000000
11405 13536 1 0.16500 119244.000000
11406 12328 1 0.16500 119244.000000
11406 17848 1 0.16500 119244.000000
11407 13164 1 0.16500 119244.000000
11407 14680 1 0.16500 119244.000000
11408 13935 1 0.16500 119244.000000
11408 16019 1 0.16500 119244.000000
11409 17055 1 0.16500 119244.000000
11409 17719 1 0.16500 119244.000000
11410 11966 1 0.16500 119244.000000
11410 16277 1 0.16500 119244.000000
11411 13334 1 0.16500 119244.000000
11411 14835 1 0.16500 119244.000000
11412 12010 1 0.16500 119244.000000
11412 17380 1 0.16500 119244.000000
11413 15692 1 0.16500 119244.000000
11413 15825 1 0.16500 119244.000000
11414 14748 1 0.16500 119244.000000
11414 16915 1 0.16500 119244.000000
11415 13552 1 0.16500 119244.000000
11415 13639 1 0.16500 119244.000000
11416 14453 1 0.16500 119244.000000
11416 16130 1 0.16500 119244.000000
11417 12195 1 0.16500 119244.000000
11417 17569 1 0.16500 119244.000000
11418 11918 1 0.16500 119244.000000
11418 17599 1 0.16500 119244.000000
11419 13591 1 0.16500 119244.000000
11419 17659 1 0.16500 119244.000000
11420 11719 1 0.16500 119244.000000
11420 14532 1 0.16500 119244.000000
11421 15296 1 0.16500 119244.000000
11421 15505 1 0.16500 119244.000000
11422 15627 1 0.16500 119244.000000
11422 16924 1 0.16500 119244.000000
11423 12288 1 0.16500 119244.000000
11423 16196 1 0.16500 119244.000000
11424 12976 1 0.16500 119244.000000
11424 15378 1 0.16500 119244.000000
11425 15346 1 0.16500 119244.000000
11425 16938 1 0.16500 119244.000000
11426 13886 1 0.16500 119244.000000
11426 14458 1 0.16500 119244.000000
11427 11658 1 0.16500 119244.000000
11427 13392 1 0.16500 119244.000000
11428 13209 1 0.16500 119244.000000
11428 14783 1 0.16500 119244.000000
11429 14767 1 0.16500 119244.000000
11429 15440 1 0.16500 119244.000000
11430 16240 1 0.16500 119244.000000
11430 17151 1 0.16500 119244.000000
11431 16005 1 0.16500 119244.000000
11431 16163 1 0.16500 119244.000000
11432 13012 1 0.16500 119244.000000
11432 14051 1 0.16500 119244.000000
11433 13386 1 0.16500 119244.000000
11433 15377 1 0.16500 119244.000000
11434 12560 1 0.16500 119244.000000
11434 13454 1 0.16500 119244.000000
11435 14188 1 0.16500 119244.000000
11435 16059 1 0.16500 119244.000000
11436 13404 1 0.16500 119244.000000
11436 14303 1 0.16500 119244.000000
11437 11626 1 0.16500 119244.000000
11437 13058 1 0.16500 119244.000000
11438 12350 1 0.16500 119244.000000
11438 12415 1 0.16500 119244.000000
11439 14648 1 0.16500 119244.000000
11439 14684 1 0.16500 119244.000000
11440 13173 1 0.16500 119244.000000
11440 14877 1 0.16500 119244.000000
11441 14453 1 0.16500 119244.000000
11441 14604 1 0.16500 119244.000000
11442 13802 1 0.16500 119244.000000
11442 15332 1 0.16500 119244.000000
11443 12839 1 0.16500 119244.000000
11443 14264 1 0.16500 119244.000000
11444 16147 1 0.16500 119244.000000
11444 16372 1 0.16500 119244.000000
11445 11748 1 0.16500 119244.000000
11445 13935 1 0.16500 119244.000000
11446 13978 1 0.16500 119244.000000
11446 15070 1 0.16500 119244.000000
11447 11968 1 0.16500 119244.000000
11447 16177 1 0.16500 119244.000000
11448 13055 1 0.16500 119244.000000
11448 15930 1 0.16500 119244.000000
11449 12255 1 0.16500 119244.000000
11449 12404 1 0.16500 119244.000000
11450 11792 1 0.16500 119244.000000
11450 14249 1 0.16500 119244.000000
11451 12544 1 0.16500 119244.000000
11451 16128 1 0.16500 119244.000000
11452 13397 1 0.16500 119244.000000
11452 16410 1 0.16500 119244.000000
11453 14661 1 0.16500 119244.000000
11453 17172 1 0.16500 119244.000000
11454 15541 1 0.16500 119244.000000
11454 16057 1 0.16500 119244.000000
11455 16106 1 0.16500 119244.000000
11455 16364 1 0.16500 119244.000000
11456 14883 1 0.16500 119244.000000
11456 15023 1 0.16500 119244.000000
11457 12454 1 0.16500 119244.000000
11457 15901 1 0.16500 119244.000000
11458 12909 1 0.16500 119244.000000
11458 14128 1 0.16500 119244.000000
11459 12180 1 0.16500 119244.000000
11459 14663 1 0.16500 119244.000000
11460 13124 1 0.16500 119244.000000
11460 16027 1 0.16500 119244.000000
11461 13464 1 0.16500 119244.000000
11461 15242 1 0.16500 119244.000000
11462 15230 1 0.16500 119244.000000
11462 16563 1 0.16500 119244.000000
11463 14748 1 0.16500 119244.000000
11463 16233 1 0.16500 119244.000000
11464 14893 1 0.16500 119244.000000
11464 15685 1 0.16500 119244.000000
11465 12256 1 0.16500 119244.000000
11465 16346 1 0.16500 119244.000000
11466 13022 1 0.16500 119244.000000
11466 16397 1 0.16500 119244.000000
11467 16041 1 0.16500 119244.000000
11467 16308 1 0.16500 119244.000000
11468 12396 1 0.16500 119244.000000
11468 13790 1 0.16500 119244.000000
11469 12297 1 0.16500 119244.000000
11469 16489 1 0.16500 119244.000000
11470 15240 1 0.16500 119244.000000
11470 16457 1 0.16500 119244.000000
11471 11975 1 0.16500 119244.000000
11471 13782 1 0.16500 119244.000000
11472 11716 1 0.16500 119244.000000
11472 14342 1 0.16500 119244.000000
11473 15271 1 0.16500 119244.000000
11473 16511 1 0.16500 119244.000000
11474 15922 1 0.16500 119244.000000
11474 16539 1 0.16500 119244.000000
11475 14088 1 0.16500 119244.000000
11475 15771 1 0.16500 119244.000000
11476 12874 1 0.16500 119244.000000
11476 13408 1 0.16500 119244.000000
11477 14717 1 0.16500 119244.000000
11477 16468 1 0.16500 119244.000000
11478 12068 1 0.16500 119244.000000
11478 13932 1 0.16500 119244.000000
11479 12272 1 0.16500 119244.000000
11479 16854 1 0.16500 119244.000000
11480 14410 1 0.16500 119244.000000
11480 15253 1 0.16500 119244.000000
11481 15448 1 0.16500 119244.000000
11481 16314 1 0.16500 119244.000000
11482 11819 1 0.16500 119244.000000
11482 15918 1 0.16500 119244.000000
11483 14478 1 0.16500 119244.000000
11483 15848 1 0.16500 119244.000000
11484 15679 1 0.16500 119244.000000
11484 15939 1 0.16500 119244.000000
11485 15584 1 0.16500 119244.000000
11485 16956 1 0.16500 119244.000000
11486 13104 1 0.16500 119244.000000
11486 15109 1 0.16500 119244.000000
11487 12386 1 0.16500 119244.000000
11487 15473 1 0.16500 119244.000000
11488 12298 1 0.16500 119244.000000
11488 12505 1 0.16500 119244.000000
11489 13165 1 0.16500 119244.000000
11489 15277 1 0.16500 119244.000000
11490 11940 1 0.16500 119244.000000
11490 15759 1 0.16500 119244.000000
11491 12384 1 0.16500 119244.000000
11491 16242 1 0.16500 119244.000000
11492 13416 1 0.16500 119244.000000
11492 16530 1 0.16500 119244.000000
11493 11856 1 0.16500 119244.000000
11493 12890 1 0.16500 119244.000000
11494 13748 1 0.16500 119244.000000
11494 16534 1 0.16500 119244.000000
11495 14241 1 0.16500 119244.000000
11495 16905 1 0.16500 119244.000000
11496 12337 1 0.16500 119244.000000
11496 15099 1 0.16500 119244.000000
11497 11737 1 0.16500 119244.000000
11497 15030 1 0.16500 119244.000000
11498 13064 1 0.16500 119244.000000
11498 15502 1 0.16500 119244.000000
11499 11852 1 0.16500 119244.000000
11499 15206 1 0.16500 119244.000000
11500 13164 1 0.16500 119244.000000
11500 16188 1 0.16500 119244.000000
11501 15909 1 0.16500 119244.000000
11501 16971 1 0.16500 119244.000000
11502 12829 1 0.16500 119244.000000
11502 15252 1 0.16500 119244.000000
11503 16651 1 0.16500 119244.000000
11503 16678 1 0.16500 119244.000000
11504 14756 1 0.16500 119244.000000
11504 16947 1 0.16500 119244.000000
11505 12955 1 0.16500 119244.000000
11505 16671 1 0.16500 119244.000000
11506 12227 1 0.16500 119244.000000
11506 12974 1 0.16500 119244.000000
11507 12754 1 0.16500 119244.000000
11507 13220 1 0.16500 119244.000000
11508 12584 1 0.16500 119244.000000
11508 13769 1 0.16500 119244.000000
11509 12994 1 0.16500 119244.000000
11509 13796 1 0.16500 119244.000000
11510 13925 1 0.16500 119244.000000
11510 16791 1 0.16500 119244.000000
11511 13478 1 0.16500 119244.000000
11511 14832 1 0.16500 119244.000000
11512 13611 1 0.16500 119244.000000
11512 16245 1 0.16500 119244.000000
11513 14654 1 0.16500 119244.000000
11513 16838 1 0.16500 119244.000000
11514 13382 1 0.16500 119244.000000
11514 16987 1 0.16500 119244.000000
11515 12531 1 0.16500 119244.000000
11515 15618 1 0.16500 119244.000000
11516 14689 1 0.16500 119244.000000
11516 15084 1 0.16500 119244.000000
11517 12098 1 0.16500 119244.000000
11517 13536 1 0.16500 119244.000000
11518 13163 1 0.16500 119244.000000
11518 14148 1 0.16500 119244.000000
11519 13265 1 0.16500 119244.000000
11519 15825 1 0.16500 119244.000000
11520 12063 1 0.16500 119244.000000
11520 14045 1 0.16500 119244.000000
11521 16344 1 0.16500 119244.000000
11521 16778 1 0.16500 119244.000000
11522 12434 1 0.16500 119244.000000
11522 16822 1 0.16500 119244.000000
11523 12458 1 0.16500 119244.000000
11523 16535 1 0.16500 119244.000000
11524 12999 1 0.16500 119244.000000
11524 15767 1 0.16500 119244.000000
11525 12982 1 0.16500 119244.000000
11525 15006 1 0.16500 119244.000000
11526 15221 1 0.16500 119244.000000
11526 17145 1 0.16500 119244.000000
11527 13394 1 0.16500 119244.000000
11527 15921 1 0.16500 119244.000000
11528 13540 1 0.16500 119244.000000
11528 16370 1 0.16500 119244.000000
11529 13242 1 0.16500 119244.000000
11529 16652 1 0.16500 119244.000000
11530 13010 1 0.16500 119244.000000
11530 15595 1 0.16500 119244.000000
11531 16405 1 0.16500 119244.000000
11531 16549 1 0.16500 119244.000000
11532 13198 1 0.16500 119244.000000
11532 13850 1 0.16500 119244.000000
11533 16045 1 0.16500 119244.000000
11533 16277 1 0.16500 119244.000000
11534 11759 1 0.16500 119244.000000
11534 16311 1 0.16500 119244.000000
11535 11617 1 0.16500 119244.000000
11535 14464 1 0.16500 119244.000000
11536 13296 1 0.16500 119244.000000
11536 16451 1 0.16500 119244.000000
11537 14149 1 0.16500 119244.000000
11537 15557 1 0.16500 119244.000000
11538 15797 1 0.16500 119244.000000
11538 15895 1 0.16500 119244.000000
11539 13424 1 0.16500 119244.000000
11539 17182 1 0.16500 119244.000000
11540 15510 1 0.16500 119244.000000
11540 16172 1 0.16500 119244.000000
11541 12848 1 0.16500 119244.000000
11541 15399 1 0.16500 119244.000000
11542 12924 1 0.16500 119244.000000
11542 14347 1 0.16500 119244.000000
11543 16054 1 0.16500 119244.000000
11543 16793 1 0.16500 119244.000000
11544 13678 1 0.16500 119244.000000
11544 17016 1 0.16500 119244.000000
11545 11973 1 0.16500 119244.000000
11545 12563 1 0.16500 119244.000000
11546 14650 1 0.16500 119244.000000
11546 16288 1 0.16500 119244.000000
11547 14710 1 0.16500 119244.000000
11547 16886 1 0.16500 119244.000000
11548 15467 1 0.16500 119244.000000
11548 15801 1 0.16500 119244.000000
11549 16795 1 0.16500 119244.000000
11549 16846 1 0.16500 119244.000000
11550 15937 1 0.16500 119244.000000
11550 16218 1 0.16500 119244.000000
11551 15489 1 0.16500 119244.000000
11551 16802 1 0.16500 119244.000000
11552 15289 1 0.16500 119244.000000
11552 16265 1 0.16500 119244.000000
11553 14835 1 0.16500 119244.000000
11553 16528 1 0.16500 119244.000000
11554 14520 1 0.16500 119244.000000
11554 15472 1 0.16500 119244.000000
11555 13537 1 0.16500 119244.000000
11555 16402 1 0.16500 119244.000000
11556 13060 1 0.16500 119244.000000
11556 14985 1 0.16500 119244.000000
11557 13985 1 0.16500 119244.000000
11557 15671 1 0.16500 119244.000000
11558 11869 1 0.16500 119244.000000
11558 14054 1 0.16500 119244.000000
11559 11927 1 0.16500 119244.000000
11559 13187 1 0.16500 119244.000000
11560 11640 1 0.16500 119244.000000
11560 17161 1 0.16500 119244.000000
11561 13427 1 0.16500 119244.000000
11561 14736 1 0.16500 119244.000000
11562 13588 1 0.16500 119244.000000
11562 15765 1 0.16500 119244.000000
11563 12178 1 0.16500 119244.000000
11563 14935 1 0.16500 119244.000000
11564 12219 1 0.16500 119244.000000
11564 13346 1 0.16500 119244.000000
11565 12730 1 0.16500 119244.000000
11565 14333 1 0.16500 119244.000000
11566 13990 1 0.16500 119244.000000
11566 14803 1 0.16500 119244.000000
11567 16294 1 0.16500 119244.000000
11567 16764 1 0.16500 119244.000000
11568 14325 1 0.16500 119244.000000
11568 14956 1 0.16500 119244.000000
11569 13592 1 0.16500 119244.000000
11569 13840 1 0.16500 119244.000000
11570 14880 1 0.16500 119244.000000
11570 16518 1 0.16500 119244.000000
11571 15127 1 0.16500 119244.000000
11571 15356 1 0.16500 119244.000000
11572 12873 1 0.16500 119244.000000
11572 15841 1 0.16500 119244.000000
11573 13338 1 0.16500 119244.000000
11573 13490 1 0.16500 119244.000000
11574 16338 1 0.16500 119244.000000
11574 16882 1 0.16500 119244.000000
11575 12984 1 0.16500 119244.000000
11575 16158 1 0.16500 119244.000000
11576 12200 1 0.16500 119244.000000
11576 15173 1 0.16500 119244.000000
11577 13188 1 0.16500 119244.000000
11577 14326 1 0.16500 119244.000000
11578 13292 1 0.16500 119244.000000
11578 13493 1 0.16500 119244.000000
11579 12416 1 0.16500 119244.000000
11579 13140 1 0.16500 119244.000000
11580 16108 1 0.16500 119244.000000
11580 17186 1 0.16500 119244.000000
11581 13336 1 0.16500 119244.000000
11581 16481 1 0.16500 119244.000000
11582 12511 1 0.16500 119244.000000
11582 13639 1 0.16500 119244.000000
11583 12983 1 0.16500 119244.000000
11583 16455 1 0.16500 119244.000000
11584 12038 1 0.16500 119244.000000
11584 13567 1 0.16500 119244.000000
11585 11986 1 0.16500 119244.000000
11585 14872 1 0.16500 119244.000000
11586 11710 1 0.16500 119244.000000
11586 12734 1 0.16500 119244.000000
11587 11984 1 0.16500 119244.000000
11587 12825 1 0.16500 119244.000000
11588 12051 1 0.16500 119244.000000
11588 14596 1 0.16500 119244.000000
11589 15452 1 0.16500 119244.000000
11589 17004 1 0.16500 119244.000000
11590 12174 1 0.16500 119244.000000
11590 16186 1 0.16500 119244.000000
11591 11910 1 0.16500 119244.000000
11591 15846 1 0.16500 119244.000000
11592 13994 1 0.16500 119244.000000
11592 15889 1 0.16500 119244.000000
11593 13192 1 0.16500 119244.000000
11593 15036 1 0.16500 119244.000000
11594 12422 1 0.16500 119244.000000
11594 15659 1 0.16500 119244.000000
11595 11777 1 0.16500 119244.000000
11595 13024 1 0.16500 119244.000000
11596 12638 1 0.16500 119244.000000
11596 14361 1 0.16500 119244.000000
11597 15211 1 0.16500 119244.000000
11597 15721 1 0.16500 119244.000000
11598 12816 1 0.16500 119244.000000
11598 16071 1 0.16500 119244.000000
11599 12790 1 0.16500 119244.000000
11599 14216 1 0.16500 119244.000000
11600 11669 1 0.16500 119244.000000
11600 14066 1 0.16500 119244.000000
11601 13543 1 0.16500 119244.000000
11601 14078 1 0.16500 119244.000000
11602 12681 1 0.16500 119244.000000
11602 14660 1 0.16500 119244.000000
11603 14344 1 0.16500 119244.000000
11603 15604 1 0.16500 119244.000000
11604 13160 1 0.16500 119244.000000
11604 16739 1 0.16500 119244.000000
11605 12777 1 0.16500 119244.000000
11605 15213 1 0.16500 119244.000000
11606 12083 1 0.16500 119244.000000
11606 14662 1 0.16500 119244.000000
11607 14469 1 0.16500 119244.000000
11607 17099 1 0.16500 119244.000000
11608 13088 1 0.16500 119244.000000
11608 14240 1 0.16500 119244.000000
11609 13511 1 0.16500 119244.000000
11609 15940 1 0.16500 119244.000000
17200 17201 1 0.16500 119244.000000
17201 17202 1 0.09450 207108.000000
17203 17204 1 0.16500 119244.000000
17204 17205 1 0.09450 207108.000000
17206 17207 1 0.16500 119244.000000
17207 17208 1 0.09450 207108.000000
17209 17210 1 0.16500 119244.000000
17210 17211 1 0.09450 207108.000000
17212 17213 1 0.16500 119244.000000
17213 17214 1 0.09450 207108.000000
17215 17216 1 0.16500 119244.000000
17216 17217 1 0.09450 207108.000000
17218 17219 1 0.16500 119244.000000
17219 17220 1 0.09450 207108.000000
17221 17222 1 0.16500 119244.000000
17222 17223 1 0.09450 207108.000000
17224 17225 1 0.16500 119244.000000
17225 17226 1 0.09450 207108.000000
17227 17228 1 0.16500 119244.000000
17228 17229 1 0.09450 207108.000000
17230 17231 1 0.16500 119244.000000
17231 17232 1 0.09450 207108.000000
17233 17234 1 0.16500 119244.000000
17234 17235 1 0.09450 207108.000000
17236 17237 1 0.16500 119244.000000
17237 17238 1 0.09450 207108.000000
17239 17240 1 0.16500 119244.000000
17240 17241 1 0.09450 207108.000000
17242 17243 1 0.16500 119244.000000
17243 17244 1 0.09450 207108.000000
17245 17246 1 0.16500 119244.000000
17246 17247 1 0.09450 207108.000000
17248 17249 1 0.16500 119244.000000
17249 17250 1 0.09450 207108.000000
17251 17252 1 0.16500 119244.000000
17252 17253 1 0.09450 207108.000000
17254 17255 1 0.16500 119244.000000
17255 17256 1 0.09450 207108.000000
17257 17258 1 0.16500 119244.000000
17258 17259 1 0.09450 207108.000000
17260 17261 1 0.16500 119244.000000
17261 17262 1 0.09450 207108.000000
17263 17264 1 0.16500 119244.000000
17264 17265 1 0.09450 207108.000000
17266 17267 1 0.16500 119244.000000
17267 17268 1 0.09450 207108.000000
17269 17270 1 0.16500 119244.000000
17270 17271 1 0.09450 207108.000000
17272 17273 1 0.16500 119244.000000
17273 17274 1 0.09450 207108.000000
17275 17276 1 0.16500 119244.000000
17276 17277 1 0.09450 207108.000000
17278 17279 1 0.16500 119244.000000
17279 17280 1 0.09450 207108.000000
17281 17282 1 0.16500 119244.000000
17282 17283 1 0.09450 207108.000000
17284 17285 1 0.16500 119244.000000
17285 17286 1 0.09450 207108.000000
17287 17288 1 0.16500 119244.000000
17288 17289 1 0.09450 207108.000000
17290 17291 1 0.16500 119244.000000
17291 17292 1 0.09450 207108.000000
17293 17294 1 0.16500 119244.000000
17294 17295 1 0.09450 207108.000000
17296 17297 1 0.16500 119244.000000
17297 17298 1 0.09450 207108.000000
17299 17300 1 0.16500 119244.000000
17300 17301 1 0.09450 207108.000000
17302 17303 1 0.16500 119244.000000
17303 17304 1 0.09450 207108.000000
17305 17306 1 0.16500 119244.000000
17306 17307 1 0.09450 207108.000000
17308 17309 1 0.16500 119244.000000
17309 17310 1 0.09450 207108.000000
17311 17312 1 0.16500 119244.000000
17312 17313 1 0.09450 207108.000000
17314 17315 1 0.16500 119244.000000
17315 17316 1 0.09450 207108.000000
17317 17318 1 0.16500 119244.000000
17318 17319 1 0.09450 207108.000000
17320 17321 1 0.16500 119244.000000
17321 17322 1 0.09450 207108.000000
17323 17324 1 0.16500 119244.000000
17324 17325 1 0.09450 207108.000000
17326 17327 1 0.16500 119244.000000
17327 17328 1 0.09450 207108.000000
17329 17330 1 0.16500 119244.000000
17330 17331 1 0.09450 207108.000000
17332 17333 1 0.16500 119244.000000
17333 17334 1 0.09450 207108.000000
17335 17336 1 0.16500 119244.000000
17336 17337 1 0.09450 207108.000000
17338 17339 1 0.16500 119244.000000
17339 17340 1 0.09450 207108.000000
17341 17342 1 0.16500 119244.000000
17342 17343 1 0.09450 207108.000000
17344 17345 1 0.16500 119244.000000
17345 17346 1 0.09450 207108.000000
17347 17348 1 0.16500 119244.000000
17348 17349 1 0.09450 207108.000000
17350 17351 1 0.16500 119244.000000
17351 17352 1 0.09450 207108.000000
17353 17354 1 0.16500 119244.000000
17354 17355 1 0.09450 207108.000000
17356 17357 1 0.16500 119244.000000
17357 17358 1 0.09450 207108.000000
17359 17360 1 0.16500 119244.000000
17360 17361 1 0.09450 207108.000000
17362 17363 1 0.16500 119244.000000
17363 17364 1 0.09450 207108.000000
17365 17366 1 0.16500 119244.000000
17366 17367 1 0.09450 207108.000000
17368 17369 1 0.16500 119244.000000
17369 17370 1 0.09450 207108.000000
17371 17372 1 0.16500 119244.000000
17372 17373 1 0.09450 207108.000000
17374 17375 1 0.16500 119244.000000
17375 17376 1 0.09450 207108.000000
17377 17378 1 0.16500 119244.000000
17378 17379 1 0.09450 207108.000000
17380 17381 1 0.16500 119244.000000
17381 17382 1 0.09450 207108.000000
17383 17384 1 0.16500 119244.000000
17384 17385 1 0.09450 207108.000000
17386 17387 1 0.16500 119244.000000
17387 17388 1 0.09450 207108.000000
17389 17390 1 0.16500 119244.000000
17390 17391 1 0.09450 207108.000000
17392 17393 1 0.16500 119244.000000
17393 17394 1 0.09450 207108.000000
17395 17396 1 0.16500 119244.000000
17396 17397 1 0.09450 207108.000000
17398 17399 1 0.16500 119244.000000
17399 17400 1 0.09450 207108.000000
17401 17402 1 0.16500 119244.000000
17402 17403 1 0.09450 207108.000000
17404 17405 1 0.16500 119244.000000
17405 17406 1 0.09450 207108.000000
17407 17408 1 0.16500 119244.000000
17408 17409 1 0.09450 207108.000000
17410 17411 1 0.16500 119244.000000
17411 17412 1 0.09450 207108.000000
17413 17414 1 0.16500 119244.000000
17414 17415 1 0.09450 207108.000000
17416 17417 1 0.16500 119244.000000
17417 17418 1 0.09450 207108.000000
17419 17420 1 0.16500 119244.000000
17420 17421 1 0.09450 207108.000000
17422 17423 1 0.16500 119244.000000
17423 17424 1 0.09450 207108.000000
17425 17426 1 0.16500 119244.000000
17426 17427 1 0.09450 207108.000000
17428 17429 1 0.16500 119244.000000
17429 17430 1 0.09450 207108.000000
17431 17432 1 0.16500 119244.000000
17432 17433 1 0.09450 207108.000000
17434 17435 1 0.16500 119244.000000
17435 17436 1 0.09450 207108.000000
17437 17438 1 0.16500 119244.000000
17438 17439 1 0.09450 207108.000000
17440 17441 1 0.16500 119244.000000
17441 17442 1 0.09450 207108.000000
17443 17444 1 0.16500 119244.000000
17444 17445 1 0.09450 207108.000000
17446 17447 1 0.16500 119244.000000
17447 17448 1 0.09450 207108.000000
17449 17450 1 0.16500 119244.000000
17450 17451 1 0.09450 207108.000000
17452 17453 1 0.16500 119244.000000
17453 17454 1 0.09450 207108.000000
17455 17456 1 0.16500 119244.000000
17456 17457 1 0.09450 207108.000000
17458 17459 1 0.16500 119244.000000
17459 17460 1 0.09450 207108.000000
17461 17462 1 0.16500 119244.000000
17462 17463 1 0.09450 207108.000000
17464 17465 1 0.16500 119244.000000
17465 17466 1 0.09450 207108.000000
17467 17468 1 0.16500 119244.000000
17468 17469 1 0.09450 207108.000000
17470 17471 1 0.16500 119244.000000
17471 17472 1 0.09450 207108.000000
17473 17474 1 0.16500 119244.000000
17474 17475 1 0.09450 207108.000000
17476 17477 1 0.16500 119244.000000
17477 17478 1 0.09450 207108.000000
17479 17480 1 0.16500 119244.000000
17480 17481 1 0.09450 207108.000000
17482 17483 1 0.16500 119244.000000
17483 17484 1 0.09450 207108.000000
17485 17486 1 0.16500 119244.000000
17486 17487 1 0.09450 207108.000000
17488 17489 1 0.16500 119244.000000
17489 17490 1 0.09450 207108.000000
17491 17492 1 0.16500 119244.000000
17492 17493 1 0.09450 207108.000000
17494 17495 1 0.16500 119244.000000
17495 17496 1 0.09450 207108.000000
17497 17498 1 0.16500 119244.000000
17498 17499 1 0.09450 207108.000000
17500 17501 1 0.16500 119244.000000
17501 17502 1 0.09450 207108.000000
17503 17504 1 0.16500 119244.000000
17504 17505 1 0.09450 207108.000000
17506 17507 1 0.16500 119244.000000
17507 17508 1 0.09450 207108.000000
17509 17510 1 0.16500 119244.000000
17510 17511 1 0.09450 207108.000000
17512 17513 1 0.16500 119244.000000
17513 17514 1 0.09450 207108.000000
17515 17516 1 0.16500 119244.000000
17516 17517 1 0.09450 207108.000000
17518 17519 1 0.16500 119244.000000
17519 17520 1 0.09450 207108.000000
17521 17522 1 0.16500 119244.000000
17522 17523 1 0.09450 207108.000000
17524 17525 1 0.16500 119244.000000
17525 17526 1 0.09450 207108.000000
17527 17528 1 0.16500 119244.000000
17528 17529 1 0.09450 207108.000000
17530 17531 1 0.16500 119244.000000
17531 17532 1 0.09450 207108.000000
17533 17534 1 0.16500 119244.000000
17534 17535 1 0.09450 207108.000000
17536 17537 1 0.16500 119244.000000
17537 17538 1 0.09450 207108.000000
17539 17540 1 0.16500 119244.000000
17540 17541 1 0.09450 207108.000000
17542 17543 1 0.16500 119244.000000
17543 17544 1 0.09450 207108.000000
17545 17546 1 0.16500 119244.000000
17546 17547 1 0.09450 207108.000000
17548 17549 1 0.16500 119244.000000
17549 17550 1 0.09450 207108.000000
17551 17552 1 0.16500 119244.000000
17552 17553 1 0.09450 207108.000000
17554 17555 1 0.16500 119244.000000
17555 17556 1 0.09450 207108.000000
17557 17558 1 0.16500 119244.000000
17558 17559 1 0.09450 207108.000000
17560 17561 1 0.16500 119244.000000
17561 17562 1 0.09450 207108.000000
17563 17564 1 0.16500 119244.000000
17564 17565 1 0.09450 207108.000000
17566 17567 1 0.16500 119244.000000
17567 17568 1 0.09450 207108.000000
17569 17570 1 0.16500 119244.000000
17570 17571 1 0.09450 207108.000000
17572 17573 1 0.16500 119244.000000
17573 17574 1 0.09450 207108.000000
17575 17576 1 0.16500 119244.000000
17576 17577 1 0.09450 207108.000000
17578 17579 1 0.16500 119244.000000
17579 17580 1 0.09450 207108.000000
17581 17582 1 0.16500 119244.000000
17582 17583 1 0.09450 207108.000000
17584 17585 1 0.16500 119244.000000
17585 17586 1 0.09450 207108.000000
17587 17588 1 0.16500 119244.000000
17588 17589 1 0.09450 207108.000000
17590 17591 1 0.16500 119244.000000
17591 17592 1 0.09450 207108.000000
17593 17594 1 0.16500 119244.000000
17594 17595 1 0.09450 207108.000000
17596 17597 1 0.16500 119244.000000
17597 17598 1 0.09450 207108.000000
17599 17600 1 0.16500 119244.000000
17600 17601 1 0.09450 207108.000000
17602 17603 1 0.16500 119244.000000
17603 17604 1 0.09450 207108.000000
17605 17606 1 0.16500 119244.000000
17606 17607 1 0.09450 207108.000000
17608 17609 1 0.16500 119244.000000
17609 17610 1 0.09450 207108.000000
17611 17612 1 0.16500 119244.000000
17612 17613 1 0.09450 207108.000000
17614 17615 1 0.16500 119244.000000
17615 17616 1 0.09450 207108.000000
17617 17618 1 0.16500 119244.000000
17618 17619 1 0.09450 207108.000000
17620 17621 1 0.16500 119244.000000
17621 17622 1 0.09450 207108.000000
17623 17624 1 0.16500 119244.000000
17624 17625 1 0.09450 207108.000000
17626 17627 1 0.16500 119244.000000
17627 17628 1 0.09450 207108.000000
17629 17630 1 0.16500 119244.000000
17630 17631 1 0.09450 207108.000000
17632 17633 1 0.16500 119244.000000
17633 17634 1 0.09450 207108.000000
17635 17636 1 0.16500 119244.000000
17636 17637 1 0.09450 207108.000000
17638 17639 1 0.16500 119244.000000
17639 17640 1 0.09450 207108.000000
17641 17642 1 0.16500 119244.000000
17642 17643 1 0.09450 207108.000000
17644 17645 1 0.16500 119244.000000
17645 17646 1 0.09450 207108.000000
17647 17648 1 0.16500 119244.000000
17648 17649 1 0.09450 207108.000000
17650 17651 1 0.16500 119244.000000
17651 17652 1 0.09450 207108.000000
17653 17654 1 0.16500 119244.000000
17654 17655 1 0.09450 207108.000000
17656 17657 1 0.16500 119244.000000
17657 17658 1 0.09450 207108.000000
17659 17660 1 0.16500 119244.000000
17660 17661 1 0.09450 207108.000000
17662 17663 1 0.16500 119244.000000
17663 17664 1 0.09450 207108.000000
17665 17666 1 0.16500 119244.000000
17666 17667 1 0.09450 207108.000000
17668 17669 1 0.16500 119244.000000
17669 17670 1 0.09450 207108.000000
17671 17672 1 0.16500 119244.000000
17672 17673 1 0.09450 207108.000000
17674 17675 1 0.16500 119244.000000
17675 17676 1 0.09450 207108.000000
17677 17678 1 0.16500 119244.000000
17678 17679 1 0.09450 207108.000000
17680 17681 1 0.16500 119244.000000
17681 17682 1 0.09450 207108.000000
17683 17684 1 0.16500 119244.000000
17684 17685 1 0.09450 207108.000000
17686 17687 1 0.16500 119244.000000
17687 17688 1 0.09450 207108.000000
17689 17690 1 0.16500 119244.000000
17690 17691 1 0.09450 207108.000000
17692 17693 1 0.16500 119244.000000
17693 17694 1 0.09450 207108.000000
17695 17696 1 0.16500 119244.000000
17696 17697 1 0.09450 207108.000000
17698 17699 1 0.16500 119244.000000
17699 17700 1 0.09450 207108.000000
17701 17702 1 0.16500 119244.000000
17702 17703 1 0.09450 207108.000000
17704 17705 1 0.16500 119244.000000
17705 17706 1 0.09450 207108.000000
17707 17708 1 0.16500 119244.000000
17708 17709 1 0.09450 207108.000000
17710 17711 1 0.16500 119244.000000
17711 17712 1 0.09450 207108.000000
17713 17714 1 0.16500 119244.000000
17714 17715 1 0.09450 207108.000000
17716 17717 1 0.16500 119244.000000
17717 17718 1 0.09450 207108.000000
17719 17720 1 0.16500 119244.000000
17720 17721 1 0.09450 207108.000000
17722 17723 1 0.16500 119244.000000
17723 17724 1 0.09450 207108.000000
17725 17726 1 0.16500 119244.000000
17726 17727 1 0.09450 207108.000000
17728 17729 1 0.16500 119244.000000
17729 17730 1 0.09450 207108.000000
17731 17732 1 0.16500 119244.000000
17732 17733 1 0.09450 207108.000000
17734 17735 1 0.16500 119244.000000
17735 17736 1 0.09450 207108.000000
17737 17738 1 0.16500 119244.000000
17738 17739 1 0.09450 207108.000000
17740 17741 1 0.16500 119244.000000
17741 17742 1 0.09450 207108.000000
17743 17744 1 0.16500 119244.000000
17744 17745 1 0.09450 207108.000000
17746 17747 1 0.16500 119244.000000
17747 17748 1 0.09450 207108.000000
17749 17750 1 0.16500 119244.000000
17750 17751 1 0.09450 207108.000000
17752 17753 1 0.16500 119244.000000
17753 17754 1 0.09450 207108.000000
17755 17756 1 0.16500 119244.000000
17756 17757 1 0.09450 207108.000000
17758 17759 1 0.16500 119244.000000
17759 17760 1 0.09450 207108.000000
17761 17762 1 0.16500 119244.000000
17762 17763 1 0.09450 207108.000000
17764 17765 1 0.16500 119244.000000
17765 17766 1 0.09450 207108.000000
17767 17768 1 0.16500 119244.000000
17768 17769 1 0.09450 207108.000000
17770 17771 1 0.16500 119244.000000
17771 17772 1 0.09450 207108.000000
17773 17774 1 0.16500 119244.000000
17774 17775 1 0.09450 207108.000000
17776 17777 1 0.16500 119244.000000
17777 17778 1 0.09450 207108.000000
17779 17780 1 0.16500 119244.000000
17780 17781 1 0.09450 207108.000000
17782 17783 1 0.16500 119244.000000
17783 17784 1 0.09450 207108.000000
17785 17786 1 0.16500 119244.000000
17786 17787 1 0.09450 207108.000000
17788 17789 1 0.16500 119244.000000
17789 17790 1 0.09450 207108.000000
17791 17792 1 0.16500 119244.000000
17792 17793 1 0.09450 207108.000000
17794 17795 1 0.16500 119244.000000
17795 17796 1 0.09450 207108.000000
17797 17798 1 0.16500 119244.000000
17798 17799 1 0.09450 207108.000000
17800 17801 1 0.16500 119244.000000
17801 17802 1 0.09450 207108.000000
17803 17804 1 0.16500 119244.000000
17804 17805 1 0.09450 207108.000000
17806 17807 1 0.16500 119244.000000
17807 17808 1 0.09450 207108.000000
17809 17810 1 0.16500 119244.000000
17810 17811 1 0.09450 207108.000000
17812 17813 1 0.16500 119244.000000
17813 17814 1 0.09450 207108.000000
17815 17816 1 0.16500 119244.000000
17816 17817 1 0.09450 207108.000000
17818 17819 1 0.16500 119244.000000
17819 17820 1 0.09450 207108.000000
17821 17822 1 0.16500 119244.000000
17822 17823 1 0.09450 207108.000000
17824 17825 1 0.16500 119244.000000
17825 17826 1 0.09450 207108.000000
17827 17828 1 0.16500 119244.000000
17828 17829 1 0.09450 207108.000000
17830 17831 1 0.16500 119244.000000
17831 17832 1 0.09450 207108.000000
17833 17834 1 0.16500 119244.000000
17834 17835 1 0.09450 207108.000000
17836 17837 1 0.16500 119244.000000
17837 17838 1 0.09450 207108.000000
17839 17840 1 0.16500 119244.000000
17840 17841 1 0.09450 207108.000000
17842 17843 1 0.16500 119244.000000
17843 17844 1 0.09450 207108.000000
17845 17846 1 0.16500 119244.000000
17846 17847 1 0.09450 207108.000000
17848 17849 1 0.16500 119244.000000
17849 17850 1 0.09450 207108.000000
17851 17852 1 0.16500 119244.000000
17852 17853 1 0.09450 207108.000000
17854 17855 1 0.16500 119244.000000
17855 17856 1 0.09450 207108.000000
17857 17858 1 0.16500 119244.000000
17858 17859 1 0.09450 207108.000000
17860 17861 1 0.16500 119244.000000
17861 17862 1 0.09450 207108.000000
17863 17864 1 0.16500 119244.000000
17864 17865 1 0.09450 207108.000000
17866 17867 1 0.16500 119244.000000
17867 17868 1 0.09450 207108.000000
17869 17870 1 0.16500 119244.000000
17870 17871 1 0.09450 207108.000000
17872 17873 1 0.16500 119244.000000
17873 17874 1 0.09450 207108.000000
17875 17876 1 0.16500 119244.000000
17876 17877 1 0.09450 207108.000000
17878 17879 1 0.16500 119244.000000
17879 17880 1 0.09450 207108.000000
17881 17882 1 0.16500 119244.000000
17882 17883 1 0.09450 207108.000000
17884 17885 1 0.16500 119244.000000
17885 17886 1 0.09450 207108.000000
17887 17888 1 0.16500 119244.000000
17888 17889 1 0.09450 207108.000000
17890 17891 1 0.16500 119244.000000
17891 17892 1 0.09450 207108.000000
17893 17894 1 0.16500 119244.000000
17894 17895 1 0.09450 207108.000000
17896 17897 1 0.16500 119244.000000
17897 17898 1 0.09450 207108.000000
17899 17900 1 0.16500 119244.000000
17900 17901 1 0.09450 207108.000000
17902 17903 1 0.16500 119244.000000
17903 17904 1 0.09450 207108.000000
17905 17906 1 0.16500 119244.000000
17906 17907 1 0.09450 207108.000000
17908 17909 1 0.16500 119244.000000
17909 17910 1 0.09450 207108.000000
17911 17912 1 0.16500 119244.000000
17912 17913 1 0.09450 207108.000000
17914 17915 1 0.16500 119244.000000
17915 17916 1 0.09450 207108.000000
17917 17918 1 0.16500 119244.000000
17918 17919 1 0.09450 207108.000000
17920 17921 1 0.16500 119244.000000
17921 17922 1 0.09450 207108.000000
17923 17924 1 0.16500 119244.000000
17924 17925 1 0.09450 207108.000000
17926 17927 1 0.16500 119244.000000
17927 17928 1 0.09450 207108.000000
17929 17930 1 0.16500 119244.000000
17930 17931 1 0.09450 207108.000000
17932 17933 1 0.16500 119244.000000
17933 17934 1 0.09450 207108.000000
17935 17936 1 0.16500 119244.000000
17936 17937 1 0.09450 207108.000000
17938 17939 1 0.16500 119244.000000
17939 17940 1 0.09450 207108.000000
17941 17942 1 0.16500 119244.000000
17942 17943 1 0.09450 207108.000000
17944 17945 1 0.16500 119244.000000
17945 17946 1 0.09450 207108.000000
17947 17948 1 0.16500 119244.000000
17948 17949 1 0.09450 207108.000000
17950 17951 1 0.16500 119244.000000
17951 17952 1 0.09450 207108.000000
17953 17954 1 0.16500 119244.000000
17954 17955 1 0.09450 207108.000000
17956 17957 1 0.16500 119244.000000
17957 17958 1 0.09450 207108.000000
17959 17960 1 0.16500 119244.000000
17960 17961 1 0.09450 207108.000000
17962 17963 1 0.16500 119244.000000
17963 17964 1 0.09450 207108.000000
17965 17966 1 0.16500 119244.000000
17966 17967 1 0.09450 207108.000000
17968 17969 1 0.16500 119244.000000
17969 17970 1 0.09450 207108.000000
17971 17972 1 0.16500 119244.000000
17972 17973 1 0.09450 207108.000000
17974 17975 1 0.16500 119244.000000
17975 17976 1 0.09450 207108.000000
17977 17978 1 0.16500 119244.000000
17978 17979 1 0.09450 207108.000000
17980 17981 1 0.16500 119244.000000
17981 17982 1 0.09450 207108.000000
17983 17984 1 0.16500 119244.000000
17984 17985 1 0.09450 207108.000000
17986 17987 1 0.16500 119244.000000
17987 17988 1 0.09450 207108.000000
17989 17990 1 0.16500 119244.000000
17990 17991 1 0.09450 207108.000000
17992 17993 1 0.16500 119244.000000
17993 17994 1 0.09450 207108.000000
17995 17996 1 0.16500 119244.000000
17996 17997 1 0.09450 207108.000000
17998 17999 1 0.16500 119244.000000
17999 18000 1 0.09450 207108.000000
18001 18002 1 0.16500 119244.000000
18002 18003 1 0.09450 207108.000000
18004 18005 1 0.16500 119244.000000
18004 18007 1 0.16500 119244.000000
18005 18006 1 0.09450 207108.000000
18007 18008 1 0.09450 207108.000000
18009 18010 1 0.16500 119244.000000
18009 18012 1 0.16500 119244.000000
18010 18011 1 0.09450 207108.000000
18012 18013 1 0.09450 207108.000000
18014 18015 1 0.16500 119244.000000
18014 18017 1 0.16500 119244.000000
18015 18016 1 0.09450 207108.000000
18017 18018 1 0.09450 207108.000000
18019 18020 1 0.16500 119244.000000
18019 18022 1 0.16500 119244.000000
18020 18021 1 0.09450 207108.000000
18022 18023 1 0.09450 207108.000000
18024 18025 1 0.16500 119244.000000
18024 18027 1 0.16500 119244.000000
18025 18026 1 0.09450 207108.000000
18027 18028 1 0.09450 207108.000000
18029 18030 1 0.16500 119244.000000
18029 18032 1 0.16500 119244.000000
18030 18031 1 0.09450 207108.000000
18032 18033 1 0.09450 207108.000000
18034 18035 1 0.16500 119244.000000
18034 18037 1 0.16500 119244.000000
18035 18036 1 0.09450 207108.000000
18037 18038 1 0.09450 207108.000000
18039 18040 1 0.16500 119244.000000
18039 18042 1 0.16500 119244.000000
18040 18041 1 0.09450 207108.000000
18042 18043 1 0.09450 207108.000000
18044 18045 1 0.16500 119244.000000
18044 18047 1 0.16500 119244.000000
18045 18046 1 0.09450 207108.000000
18047 18048 1 0.09450 207108.000000
18049 18050 1 0.16500 119244.000000
18049 18052 1 0.16500 119244.000000
18050 18051 1 0.09450 207108.000000
18052 18053 1 0.09450 207108.000000
18054 18055 1 0.16500 119244.000000
18054 18057 1 0.16500 119244.000000
18055 18056 1 0.09450 207108.000000
18057 18058 1 0.09450 207108.000000
18059 18060 1 0.16500 119244.000000
18059 18062 1 0.16500 119244.000000
18060 18061 1 0.09450 207108.000000
18062 18063 1 0.09450 207108.000000
18064 18065 1 0.16500 119244.000000
18064 18067 1 0.16500 119244.000000
18065 18066 1 0.09450 207108.000000
18067 18068 1 0.09450 207108.000000
18069 18070 1 0.16500 119244.000000
18069 18072 1 0.16500 119244.000000
18070 18071 1 0.09450 207108.000000
18072 18073 1 0.09450 207108.000000
18074 18075 1 0.16500 119244.000000
18074 18077 1 0.16500 119244.000000
18075 18076 1 0.09450 207108.000000
18077 18078 1 0.09450 207108.000000
18079 18080 1 0.16500 119244.000000
18079 18082 1 0.16500 119244.000000
18080 18081 1 0.09450 207108.000000
18082 18083 1 0.09450 207108.000000
18084 18085 1 0.16500 119244.000000
18084 18087 1 0.16500 119244.000000
18085 18086 1 0.09450 207108.000000
18087 18088 1 0.09450 207108.000000
18089 18090 1 0.16500 119244.000000
18089 18092 1 0.16500 119244.000000
18090 18091 1 0.09450 207108.000000
18092 18093 1 0.09450 207108.000000
18094 18095 1 0.16500 119244.000000
18094 18097 1 0.16500 119244.000000
18095 18096 1 0.09450 207108.000000
18097 18098 1 0.09450 207108.000000
18099 18100 1 0.16500 119244.000000
18099 18102 1 0.16500 119244.000000
18100 18101 1 0.09450 207108.000000
18102 18103 1 0.09450 207108.000000
18104 18105 1 0.16500 119244.000000
18104 18107 1 0.16500 119244.000000
18105 18106 1 0.09450 207108.000000
18107 18108 1 0.09450 207108.000000
18109 18110 1 0.16500 119244.000000
18109 18112 1 0.16500 119244.000000
18110 18111 1 0.09450 207108.000000
18112 18113 1 0.09450 207108.000000
18114 18115 1 0.16500 119244.000000
18114 18117 1 0.16500 119244.000000
18115 18116 1 0.09450 207108.000000
18117 18118 1 0.09450 207108.000000
18119 18120 1 0.16500 119244.000000
18119 18122 1 0.16500 119244.000000
18120 18121 1 0.09450 207108.000000
18122 18123 1 0.09450 207108.000000
18124 18125 1 0.16500 119244.000000
18124 18127 1 0.16500 119244.000000
18125 18126 1 0.09450 207108.000000
18127 18128 1 0.09450 207108.000000
18129 18130 1 0.16500 119244.000000
18129 18132 1 0.16500 119244.000000
18130 18131 1 0.09450 207108.000000
18132 18133 1 0.09450 207108.000000
18134 18135 1 0.16500 119244.000000
18134 18137 1 0.16500 119244.000000
18135 18136 1 0.09450 207108.000000
18137 18138 1 0.09450 207108.000000

[ angles ]
; ai aj ak funct params
11610 1 15368 1 149.00000 418.400000
11610 2 16101 1 149.00000 418.400000
11610 3 16304 1 149.00000 418.400000
11610 4 11964 1 149.00000 418.400000
11742 5 17200 1 149.00000 418.400000
17200 6 17629 1 149.00000 418.400000
11611 7 16220 1 149.00000 418.400000
11611 8 17106 1 149.00000 418.400000
11611 9 12024 1 149.00000 418.400000
11611 10 12733 1 149.00000 418.400000
11612 11 12544 1 149.00000 418.400000
11612 12 12891 1 149.00000 418.400000
11612 13 13971 1 149.00000 418.400000
11613 14 11649 1 149.00000 418.400000
11613 15 13899 1 149.00000 418.400000
11613 16 14174 1 149.00000 418.400000
11613 17 12821 1 149.00000 418.400000
12639 18 17803 1 149.00000 418.400000
11614 19 15848 1 149.00000 418.400000
11614 20 14564 1 149.00000 418.400000
11614 21 14478 1 149.00000 418.400000
11615 22 15646 1 149.00000 418.400000
11615 23 16670 1 149.00000 418.400000
11615 24 18074 1 149.00000 418.400000
11615 25 13143 1 149.00000 418.400000
11616 26 12539 1 149.00000 418.400000
11616 27 14218 1 149.00000 418.400000
11616 28 15482 1 149.00000 418.400000
11616 29 16975 1 149.00000 418.400000
11617 30 17524 1 149.00000 418.400000
11617 31 15881 1 149.00000 418.400000
11617 32 14246 1 149.00000 418.400000
11618 33 14603 1 149.00000 418.400000
11618 34 16011 1 149.00000 418.400000
11618 35 13074 1 149.00000 418.400000
11618 36 15663 1 149.00000 418.400000
11619 37 14549 1 149.00000 418.400000
11619 38 13857 1 149.00000 418.400000
11619 39 12990 1 149.00000 418.400000
11619 40 14431 1 149.00000 418.400000
11620 41 15639 1 149.00000 418.400000
11620 42 14953 1 149.00000 418.400000
11620 43 16354 1 149.00000 418.400000
11620 44 16752 1 149.00000 418.400000
11621 45 15762 1 149.00000 418.400000
11621 46 17650 1 149.00000 418.400000
11621 47 14634 1 149.00000 418.400000
11621 48 16170 1 149.00000 418.400000
11622 49 14939 1 149.00000 418.400000
11622 50 15299 1 149.00000 418.400000
11622 51 14332 1 149.00000 418.400000
11622 52 12475 1 149.00000 418.400000
11623 53 14406 1 149.00000 418.400000
11623 54 12962 1 149.00000 418.400000
11623 55 16287 1 149.00000 418.400000
11623 56 12552 1 149.00000 418.400000
11624 57 14435 1 149.00000 418.400000
11624 58 14255 1 149.00000 418.400000
11624 59 12087 1 149.00000 418.400000
11624 60 15828 1 149.00000 418.400000
11625 61 18099 1 149.00000 418.400000
11625 62 12738 1 149.00000 418.400000
11625 63 11652 1 149.00000 418.400000
11625 64 12452 1 149.00000 418.400000
11626 65 11805 1 149.00000 418.400000
11626 66 16506 1 149.00000 418.400000
11626 67 16557 1 149.00000 418.400000
17136 68 17203 1 149.00000 418.400000
15409 69 17203 1 149.00000 418.400000
11627 70 15709 1 149.00000 418.400000
11627 71 14203 1 149.00000 418.400000
11627 72 16877 1 149.00000 418.400000
11627 73 16432 1 149.00000 418.400000
11628 74 14783 1 149.00000 418.400000
11628 75 14736 1 149.00000 418.400000
11628 76 16276 1 149.00000 418.400000
11628 77 17164 1 149.00000 418.400000
11629 78 12740 1 149.00000 418.400000
11629 79 12037 1 149.00000 418.400000
11629 80 15591 1 149.00000 418.400000
11629 81 15112 1 149.00000 418.400000
11630 82 14173 1 149.00000 418.400000
11630 83 17167 1 149.00000 418.400000
11630 84 15132 1 149.00000 418.400000
11630 85 17012 1 149.00000 418.400000
13917 86 13946 1 149.00000 418.400000
11631 87 13519 1 149.00000 418.400000
11631 88 13946 1 149.00000 418.400000
11631 89 16281 1 149.00000 418.400000
11632 90 15951 1 149.00000 418.400000
11632 91 16393 1 149.00000 418.400000
11632 92 15955 1 149.00000 418.400000
11633 93 14134 1 149.00000 418.400000
11633 94 13876 1 149.00000 418.400000
11633 95 16715 1 149.00000 418.400000
11633 96 12938 1 149.00000 418.400000
11634 97 15992 1 149.00000 418.400000
11634 98 13303 1 149.00000 418.400000
11634 99 14245 1 149.00000 418.400000
11634 100 16575 1 149.00000 418.400000
11635 101 11890 1 149.00000 418.400000
11635 102 14348 1 149.00000 418.400000
11635 103 12704 1 149.00000 418.400000
11635 104 16724 1 149.00000 418.400000
11636 105 12374 1 149.00000 418.400000
11636 106 17114 1 149.00000 418.400000
11636 107 16467 1 149.00000 418.400000
11636 108 16727 1 149.00000 418.400000
11637 109 15098 1 149.00000 418.400000
11637 110 16645 1 149.00000 418.400000
11637 111 13887 1 149.00000 418.400000
11637 112 16327 1 149.00000 418.400000
11638 113 12027 1 149.00000 418.400000
11638 114 12838 1 149.00000 418.400000
11638 115 16632 1 149.00000 418.400000
11638 116 12091 1 149.00000 418.400000
11639 117 14754 1 149.00000 418.400000
11639 118 12088 1 149.00000 418.400000
11639 119 15578 1 149.00000 418.400000
11639 120 12912 1 149.00000 418.400000
11640 121 17136 1 149.00000 418.400000
11640 122 17995 1 149.00000 418.400000
11735 123 17206 1 149.00000 418.400000
17045 124 17206 1 149.00000 418.400000
17206 125 17344 1 149.00000 418.400000
11641 126 12096 1 149.00000 418.400000
11641 127 11643 1 149.00000 418.400000
11641 128 12103 1 149.00000 418.400000
11641 129 11987 1 149.00000 418.400000
11642 130 13169 1 149.00000 418.400000
11642 131 14103 1 149.00000 418.400000
11642 132 14017 1 149.00000 418.400000
11642 133 16052 1 149.00000 418.400000
11643 134 13558 1 149.00000 418.400000
11643 135 13862 1 149.00000 418.400000
11643 136 15697 1 149.00000 418.400000
11644 137 17242 1 149.00000 418.400000
11644 138 15682 1 149.00000 418.400000
11644 139 12495 1 149.00000 418.400000
11645 140 12917 1 149.00000 418.400000
11645 141 14063 1 149.00000 418.400000
11645 142 12221 1 149.00000 418.400000
11645 143 12121 1 149.00000 418.400000
11646 144 15678 1 149.00000 418.400000
11646 145 12994 1 149.00000 418.400000
11646 146 12504 1 149.00000 418.400000
11646 147 12892 1 149.00000 418.400000
14221 148 15488 1 149.00000 418.400000
11647 149 15272 1 149.00000 418.400000
11647 150 15488 1 149.00000 418.400000
11647 151 11902 1 149.00000 418.400000
11648 152 15022 1 149.00000 418.400000
11648 153 12048 1 149.00000 418.400000
11648 154 15147 1 149.00000 418.400000
11648 155 12108 1 149.00000 418.400000
11649 156 12390 1 149.00000 418.400000
11649 157 13805 1 149.00000 418.400000
11649 158 14436 1 149.00000 418.400000
13931 159 14052 1 149.00000 418.400000
11650 160 11934 1 149.00000 418.400000
11650 161 13006 1 149.00000 418.400000
11650 162 15636 1 149.00000 418.400000
11651 163 13555 1 149.00000 418.400000
11651 164 13791 1 149.00000 418.400000
11651 165 16656 1 149.00000 418.400000
11651 166 15091 1 149.00000 418.400000
11652 167 14064 1 149.00000 418.400000
11652 168 12754 1 149.00000 418.400000
11652 169 14509 1 149.00000 418.400000
11653 170 16727 1 149.00000 418.400000
11653 171 12348 1 149.00000 418.400000
11653 172 13781 1 149.00000 418.400000
11653 173 16067 1 149.00000 418.400000
11654 174 17518 1 149.00000 418.400000
11654 175 15541 1 149.00000 418.400000
11654 176 11786 1 149.00000 418.400000
11654 177 17189 1 149.00000 418.400000
17209 178 17806 1 149.00000 418.400000
16687 179 17209 1 149.00000 418.400000
11655 180 13029 1 149.00000 418.400000
11655 181 14200 1 149.00000 418.400000
11655 182 16558 1 149.00000 418.400000
11655 183 16627 1 149.00000 418.400000
11656 184 14888 1 149.00000 418.400000
11656 185 13641 1 149.00000 418.400000
11656 186 12925 1 149.00000 418.400000
11656 187 14143 1 149.00000 418.400000
11657 188 16191 1 149.00000 418.400000
11657 189 14039 1 149.00000 418.400000
11657 190 15847 1 149.00000 418.400000
11657 191 12357 1 149.00000 418.400000
11658 192 14487 1 149.00000 418.400000
11659 193 13324 1 149.00000 418.400000
11659 194 15154 1 149.00000 418.400000
11659 195 14974 1 149.00000 418.400000
11659 196 12766 1 149.00000 418.400000
11660 197 16910 1 149.00000 418.400000
11660 198 14358 1 149.00000 418.400000
11660 199 14658 1 149.00000 418.400000
11660 200 12683 1 149.00000 418.400000
11661 201 15736 1 149.00000 418.400000
11661 202 15519 1 149.00000 418.400000
11661 203 13649 1 149.00000 418.400000
12782 204 15519 1 149.00000 418.400000
15109 205 17623 1 149.00000 418.400000
11662 206 16426 1 149.00000 418.400000
11662 207 15109 1 149.00000 418.400000
11662 208 12021 1 149.00000 418.400000
11663 209 13318 1 149.00000 418.400000
11663 210 17091 1 149.00000 418.400000
11663 211 16230 1 149.00000 418.400000
11663 212 16900 1 149.00000 418.400000
13420 213 17077 1 149.00000 418.400000
11664 214 13420 1 149.00000 418.400000
11664 215 14617 1 149.00000 418.400000
11664 216 13581 1 149.00000 418.400000
11665 217 14634 1 149.00000 418.400000
11665 218 15988 1 149.00000 418.400000
11665 219 12574 1 149.00000 418.400000
11665 220 16175 1 149.00000 418.400000
13464 221 17212 1 149.00000 418.400000
13400 222 17212 1 149.00000 418.400000
16914 223 17212 1 149.00000 418.400000
11666 224 17070 1 149.00000 418.400000
11666 225 14214 1 149.00000 418.400000
11666 226 12025 1 149.00000 418.400000
11666 227 16941 1 149.00000 418.400000
11667 228 13780 1 149.00000 418.400000
11667 229 14408 1 149.00000 418.400000
11667 230 12284 1 149.00000 418.400000
11667 231 16584 1 149.00000 418.400000
17215 232 17710 1 149.00000 418.400000
16676 233 17215 1 149.00000 418.400000
15647 234 17215 1 149.00000 418.400000
14467 235 16809 1 149.00000 418.400000
14467 236 14949 1 149.00000 418.400000
11668 237 14467 1 149.00000 418.400000
13610 238 14467 1 149.00000 418.400000
16172 239 17218 1 149.00000 418.400000
16334 240 17218 1 149.00000 418.400000
15510 241 17218 1 149.00000 418.400000
16524 242 17221 1 149.00000 418.400000
13818 243 17221 1 149.00000 418.400000
15318 244 17221 1 149.00000 418.400000
11669 245 17956 1 149.00000 418.400000
11670 246 13205 1 149.00000 418.400000
11670 247 17028 1 149.00000 418.400000
11670 248 13255 1 149.00000 418.400000
11670 249 11745 1 149.00000 418.400000
12057 250 13997 1 149.00000 418.400000
11671 251 15603 1 149.00000 418.400000
11671 252 14653 1 149.00000 418.400000
11671 253 13997 1 149.00000 418.400000
12156 254 17224 1 149.00000 418.400000
17224 255 17296 1 149.00000 418.400000
11672 256 14398 1 149.00000 418.400000
11672 257 14184 1 149.00000 418.400000
11672 258 15250 1 149.00000 418.400000
11672 259 14466 1 149.00000 418.400000
11673 260 12256 1 149.00000 418.400000
11673 261 12377 1 149.00000 418.400000
11673 262 16346 1 149.00000 418.400000
11673 263 17230 1 149.00000 418.400000
11674 264 16515 1 149.00000 418.400000
11674 265 14890 1 149.00000 418.400000
11674 266 17138 1 149.00000 418.400000
11674 267 12571 1 149.00000 418.400000
11675 268 13159 1 149.00000 418.400000
11675 269 13298 1 149.00000 418.400000
11675 270 16112 1 149.00000 418.400000
11675 271 11712 1 149.00000 418.400000
11676 272 16455 1 149.00000 418.400000
11676 273 14503 1 149.00000 418.400000
11676 274 12983 1 149.00000 418.400000
11677 275 15200 1 149.00000 418.400000
11677 276 16117 1 149.00000 418.400000
11677 277 12451 1 149.00000 418.400000
11677 278 14888 1 149.00000 418.400000
11678 279 13801 1 149.00000 418.400000
11678 280 12269 1 149.00000 418.400000
11678 281 15796 1 149.00000 418.400000
11678 282 14324 1 149.00000 418.400000
15316 283 17227 1 149.00000 418.400000
13423 284 17227 1 149.00000 418.400000
17227 285 18059 1 149.00000 418.400000
11679 286 12591 1 149.00000 418.400000
11679 287 13413 1 149.00000 418.400000
11679 288 14975 1 149.00000 418.400000
11679 289 11687 1 149.00000 418.400000
11680 290 12147 1 149.00000 418.400000
11680 291 12517 1 149.00000 418.400000
11680 292 11766 1 149.00000 418.400000
12147 293 13097 1 149.00000 418.400000
11681 294 15048 1 149.00000 418.400000
11681 295 16540 1 149.00000 418.400000
11681 296 13874 1 149.00000 418.400000
13874 297 14213 1 149.00000 418.400000
11682 298 15887 1 149.00000 418.400000
11682 299 16024 1 149.00000 418.400000
11682 300 12372 1 149.00000 418.400000
11682 301 12355 1 149.00000 418.400000
11683 302 14879 1 149.00000 418.400000
11683 303 12436 1 149.00000 418.400000
11683 304 14686 1 149.00000 418.400000
11683 305 16113 1 149.00000 418.400000
11684 306 17695 1 149.00000 418.400000
11684 307 13437 1 149.00000 418.400000
11684 308 15014 1 149.00000 418.400000
11684 309 16693 1 149.00000 418.400000
11685 310 12872 1 149.00000 418.400000
11685 311 11955 1 149.00000 418.400000
11685 312 15807 1 149.00000 418.400000
11685 313 17101 1 149.00000 418.400000
17230 314 17728 1 149.00000 418.400000
13185 315 17230 1 149.00000 418.400000
11686 316 11919 1 149.00000 418.400000
11686 317 13123 1 149.00000 418.400000
11686 318 14600 1 149.00000 418.400000
11686 319 16298 1 149.00000 418.400000
16441 320 17308 1 149.00000 418.400000
11687 321 15793 1 149.00000 418.400000
11687 322 12357 1 149.00000 418.400000
11687 323 16759 1 149.00000 418.400000
11688 324 15550 1 149.00000 418.400000
11688 325 14633 1 149.00000 418.400000
11688 326 15941 1 149.00000 418.400000
11688 327 14302 1 149.00000 418.400000
11689 328 12039 1 149.00000 418.400000
11689 329 15164 1 149.00000 418.400000
11689 330 17113 1 149.00000 418.400000
11689 331 11860 1 149.00000 418.400000
11690 332 16200 1 149.00000 418.400000
11690 333 12515 1 149.00000 418.400000
11690 334 12392 1 149.00000 418.400000
11690 335 14328 1 149.00000 418.400000
13144 336 15963 1 149.00000 418.400000
15564 337 15963 1 149.00000 418.400000
11691 338 17023 1 149.00000 418.400000
11981 339 15963 1 149.00000 418.400000
11692 340 12995 1 149.00000 418.400000
11692 341 14307 1 149.00000 418.400000
11692 342 13100 1 149.00000 418.400000
11692 343 15011 1 149.00000 418.400000
11693 344 15219 1 149.00000 418.400000
11693 345 12031 1 149.00000 418.400000
11693 346 15574 1 149.00000 418.400000
11693 347 11754 1 149.00000 418.400000
13198 348 17908 1 149.00000 418.400000
14533 349 17908 1 149.00000 418.400000
11694 350 17908 1 149.00000 418.400000
11694 351 14817 1 149.00000 418.400000
11695 352 16453 1 149.00000 418.400000
11695 353 14062 1 149.00000 418.400000
11695 354 14894 1 149.00000 418.400000
11695 355 16903 1 149.00000 418.400000
11696 356 17437 1 149.00000 418.400000
11696 357 16182 1 149.00000 418.400000
11696 358 15593 1 149.00000 418.400000
11696 359 14394 1 149.00000 418.400000
11697 360 13085 1 149.00000 418.400000
11697 361 16428 1 149.00000 418.400000
11697 362 11806 1 149.00000 418.400000
11697 363 12811 1 149.00000 418.400000
11698 364 17032 1 149.00000 418.400000
11698 365 16783 1 149.00000 418.400000
11698 366 13041 1 149.00000 418.400000
11698 367 14804 1 149.00000 418.400000
14247 368 16819 1 149.00000 418.400000
16819 369 17233 1 149.00000 418.400000
12691 370 16819 1 149.00000 418.400000
13492 371 15296 1 149.00000 418.400000
11699 372 13492 1 149.00000 418.400000
13492 373 16029 1 149.00000 418.400000
11699 374 18009 1 149.00000 418.400000
11765 375 12120 1 149.00000 418.400000
12120 376 13073 1 149.00000 418.400000
11700 377 12217 1 149.00000 418.400000
11700 378 12120 1 149.00000 418.400000
11701 379 12972 1 149.00000 418.400000
11701 380 14016 1 149.00000 418.400000
11701 381 14568 1 149.00000 418.400000
11701 382 17024 1 149.00000 418.400000
11702 383 14128 1 149.00000 418.400000
11702 384 15838 1 149.00000 418.400000
11702 385 16389 1 149.00000 418.400000
11702 386 14862 1 149.00000 418.400000
11703 387 15968 1 149.00000 418.400000
11703 388 11773 1 149.00000 418.400000
11703 389 13307 1 149.00000 418.400000
11703 390 11929 1 149.00000 418.400000
11704 391 13747 1 149.00000 418.400000
11704 392 13474 1 149.00000 418.400000
11704 393 12149 1 149.00000 418.400000
11704 394 12900 1 149.00000 418.400000
17236 395 17740 1 149.00000 418.400000
12112 396 17236 1 149.00000 418.400000
11705 397 14649 1 149.00000 418.400000
11875 398 14843 1 149.00000 418.400000
11705 399 12914 1 149.00000 418.400000
11705 400 14843 1 149.00000 418.400000
11706 401 11783 1 149.00000 418.400000
11706 402 14555 1 149.00000 418.400000
11706 403 17117 1 149.00000 418.400000
11706 404 11815 1 149.00000 418.400000
11707 405 16173 1 149.00000 418.400000
11707 406 13399 1 149.00000 418.400000
13982 407 15788 1 149.00000 418.400000
11707 408 15788 1 149.00000 418.400000
11708 409 12753 1 149.00000 418.400000
11708 410 13342 1 149.00000 418.400000
11708 411 14576 1 149.00000 418.400000
11708 412 16843 1 149.00000 418.400000
11709 413 13484 1 149.00000 418.400000
11709 414 17137 1 149.00000 418.400000
11709 415 12901 1 149.00000 418.400000
11709 416 16005 1 149.00000 418.400000
11710 417 17872 1 149.00000 418.400000
11710 418 13619 1 149.00000 418.400000
11710 419 16990 1 149.00000 418.400000
11711 420 13580 1 149.00000 418.400000
11711 421 14476 1 149.00000 418.400000
11711 422 14371 1 149.00000 418.400000
11711 423 13526 1 149.00000 418.400000
11712 424 14708 1 149.00000 418.400000
11712 425 13074 1 149.00000 418.400000
11712 426 11745 1 149.00000 418.400000
11713 427 16388 1 149.00000 418.400000
11713 428 17003 1 149.00000 418.400000
11713 429 14607 1 149.00000 418.400000
11713 430 11821 1 149.00000 418.400000
11714 431 13057 1 149.00000 418.400000
11714 432 13139 1 149.00000 418.400000
11714 433 13821 1 149.00000 418.400000
11714 434 16275 1 149.00000 418.400000
12362 435 14778 1 149.00000 418.400000
11715 436 12362 1 149.00000 418.400000
11715 437 13460 1 149.00000 418.400000
11715 438 14350 1 149.00000 418.400000
11716 439 13851 1 149.00000 418.400000
11716 440 12454 1 149.00000 418.400000
11717 441 16245 1 149.00000 418.400000
11717 442 17704 1 149.00000 418.400000
11717 443 15740 1 149.00000 418.400000
11717 444 16284 1 149.00000 418.400000
11718 445 11770 1 149.00000 418.400000
11718 446 13054 1 149.00000 418.400000
11718 447 14461 1 149.00000 418.400000
11718 448 15204 1 149.00000 418.400000
11719 449 13476 1 149.00000 418.400000
11719 450 12195 1 149.00000 418.400000
11720 451 13887 1 149.00000 418.400000
11720 452 16440 1 149.00000 418.400000
11720 453 14777 1 149.00000 418.400000
11720 454 13161 1 149.00000 418.400000
11721 455 14863 1 149.00000 418.400000
11721 456 12155 1 149.00000 418.400000
11721 457 12687 1 149.00000 418.400000
11721 458 17365 1 149.00000 418.400000
16926 459 17239 1 149.00000 418.400000
17239 460 17404 1 149.00000 418.400000
11722 461 16040 1 149.00000 418.400000
11722 462 13730 1 149.00000 418.400000
11722 463 15331 1 149.00000 418.400000
11722 464 16053 1 149.00000 418.400000
11723 465 17060 1 149.00000 418.400000
11723 466 16840 1 149.00000 418.400000
11723 467 14292 1 149.00000 418.400000
11723 468 13351 1 149.00000 418.400000
11724 469 15507 1 149.00000 418.400000
11724 470 12377 1 149.00000 418.400000
11724 471 16084 1 149.00000 418.400000
11724 472 14874 1 149.00000 418.400000
11725 473 13473 1 149.00000 418.400000
11725 474 15436 1 149.00000 418.400000
11726 475 14281 1 149.00000 418.400000
11726 476 15249 1 149.00000 418.400000
11726 477 15352 1 149.00000 418.400000
11726 478 13708 1 149.00000 418.400000
11727 479 16026 1 149.00000 418.400000
12775 480 14399 1 149.00000 418.400000
16901 481 17743 1 149.00000 418.400000
11727 482 17743 1 149.00000 418.400000
11728 483 13281 1 149.00000 418.400000
11728 484 13202 1 149.00000 418.400000
11728 485 15019 1 149.00000 418.400000
11728 486 14580 1 149.00000 418.400000
11729 487 12250 1 149.00000 418.400000
11729 488 11840 1 149.00000 418.400000
11729 489 16747 1 149.00000 418.400000
11729 490 13601 1 149.00000 418.400000
11730 491 13588 1 149.00000 418.400000
11730 492 14407 1 149.00000 418.400000
11730 493 17137 1 149.00000 418.400000
11730 494 16368 1 149.00000 418.400000
14069 495 16715 1 149.00000 418.400000
11731 496 16118 1 149.00000 418.400000
11731 497 14069 1 149.00000 418.400000
11731 498 15907 1 149.00000 418.400000
13605 499 15326 1 149.00000 418.400000
11732 500 15336 1 149.00000 418.400000
11732 501 12135 1 149.00000 418.400000
11732 502 15641 1 149.00000 418.400000
11732 503 11741 1 149.00000 418.400000
11733 504 15718 1 149.00000 418.400000
11733 505 13594 1 149.00000 418.400000
11733 506 15111 1 149.00000 418.400000
11733 507 12733 1 149.00000 418.400000
11734 508 13864 1 149.00000 418.400000
11734 509 14005 1 149.00000 418.400000
11734 510 13783 1 149.00000 418.400000
11734 511 16068 1 149.00000 418.400000
11735 512 17512 1 149.00000 418.400000
11735 513 12536 1 149.00000 418.400000
11735 514 15897 1 149.00000 418.400000
11736 515 13533 1 149.00000 418.400000
11736 516 16538 1 149.00000 418.400000
11736 517 15297 1 149.00000 418.400000
11737 518 16468 1 149.00000 418.400000
11737 519 12955 1 149.00000 418.400000
11737 520 17009 1 149.00000 418.400000
11738 521 17476 1 149.00000 418.400000
11738 522 15850 1 149.00000 418.400000
13005 523 17476 1 149.00000 418.400000
11738 524 12540 1 149.00000 418.400000
11739 525 16889 1 149.00000 418.400000
11739 526 17110 1 149.00000 418.400000
11739 527 16951 1 149.00000 418.400000
11739 528 12167 1 149.00000 418.400000
11740 529 12885 1 149.00000 418.400000
11740 530 16082 1 149.00000 418.400000
11740 531 11909 1 149.00000 418.400000
11740 532 16232 1 149.00000 418.400000
11741 533 12441 1 149.00000 418.400000
11741 534 15900 1 149.00000 418.400000
11741 535 13331 1 149.00000 418.400000
11742 536 16331 1 149.00000 418.400000
11742 537 12694 1 149.00000 418.400000
11742 538 16434 1 149.00000 418.400000
11743 539 14381 1 149.00000 418.400000
11743 540 16229 1 149.00000 418.400000
11743 541 13942 1 149.00000 418.400000
11743 542 13210 1 149.00000 418.400000
12605 543 12925 1 149.00000 418.400000
12925 544 16864 1 149.00000 418.400000
11744 545 12925 1 149.00000 418.400000
11745 546 13228 1 149.00000 418.400000
11745 547 12776 1 149.00000 418.400000
11746 548 16611 1 149.00000 418.400000
11746 549 14739 1 149.00000 418.400000
11746 550 16102 1 149.00000 418.400000
11746 551 16391 1 149.00000 418.400000
11747 552 13602 1 149.00000 418.400000
11747 553 11897 1 149.00000 418.400000
11747 554 16303 1 149.00000 418.400000
11897 555 13395 1 149.00000 418.400000
11748 556 16783 1 149.00000 418.400000
11748 557 13832 1 149.00000 418.400000
11748 558 14331 1 149.00000 418.400000
11749 559 12818 1 149.00000 418.400000
11749 560 12058 1 149.00000 418.400000
11749 561 13132 1 149.00000 418.400000
11750 562 17092 1 149.00000 418.400000
11750 563 12696 1 149.00000 418.400000
11750 564 15548 1 149.00000 418.400000
11750 565 14479 1 149.00000 418.400000
11751 566 12397 1 149.00000 418.400000
11751 567 14475 1 149.00000 418.400000
11751 568 15471 1 149.00000 418.400000
11751 569 13575 1 149.00000 418.400000
11752 570 11881 1 149.00000 418.400000
11752 571 12851 1 149.00000 418.400000
11752 572 16961 1 149.00000 418.400000
11752 573 13777 1 149.00000 418.400000
11753 574 15214 1 149.00000 418.400000
11753 575 15946 1 149.00000 418.400000
11753 576 13663 1 149.00000 418.400000
11753 577 12721 1 149.00000 418.400000
15044 578 17242 1 149.00000 418.400000
17242 579 17326 1 149.00000 418.400000
11754 580 12391 1 149.00000 418.400000
11754 581 12229 1 149.00000 418.400000
11754 582 13993 1 149.00000 418.400000
15114 583 17245 1 149.00000 418.400000
13698 584 17245 1 149.00000 418.400000
11755 585 16629 1 149.00000 418.400000
11755 586 15949 1 149.00000 418.400000
11755 587 17028 1 149.00000 418.400000
11755 588 12537 1 149.00000 418.400000
11756 589 15055 1 149.00000 418.400000
11756 590 16876 1 149.00000 418.400000
11756 591 12665 1 149.00000 418.400000
11756 592 13459 1 149.00000 418.400000
11757 593 12476 1 149.00000 418.400000
11757 594 15073 1 149.00000 418.400000
11757 595 16135 1 149.00000 418.400000
11757 596 15254 1 149.00000 418.400000
11758 597 14845 1 149.00000 418.400000
11758 598 14835 1 149.00000 418.400000
11758 599 11809 1 149.00000 418.400000
11758 600 13597 1 149.00000 418.400000
11759 601 17641 1 149.00000 418.400000
11759 602 15966 1 149.00000 418.400000
11759 603 15205 1 149.00000 418.400000
11760 604 14901 1 149.00000 418.400000
11760 605 15138 1 149.00000 418.400000
11760 606 11761 1 149.00000 418.400000
11760 607 16669 1 149.00000 418.400000
11761 608 13148 1 149.00000 418.400000
11761 609 11887 1 149.00000 418.400000
11761 610 13037 1 149.00000 418.400000
11762 611 13996 1 149.00000 418.400000
11762 612 12597 1 149.00000 418.400000
11762 613 16256 1 149.00000 418.400000
11762 614 17173 1 149.00000 418.400000
11763 615 15401 1 149.00000 418.400000
11763 616 14864 1 149.00000 418.400000
11763 617 15745 1 149.00000 418.400000
11763 618 14584 1 149.00000 418.400000
15366 619 17248 1 149.00000 418.400000
15922 620 17248 1 149.00000 418.400000
15015 621 17248 1 149.00000 418.400000
11764 622 16051 1 149.00000 418.400000
11764 623 12942 1 149.00000 418.400000
11764 624 13759 1 149.00000 418.400000
11764 625 14187 1 149.00000 418.400000
11765 626 15632 1 149.00000 418.400000
11765 627 15952 1 149.00000 418.400000
11765 628 12300 1 149.00000 418.400000
11766 629 11773 1 149.00000 418.400000
11766 630 14195 1 149.00000 418.400000
11766 631 16199 1 149.00000 418.400000
11767 632 16279 1 149.00000 418.400000
11767 633 14386 1 149.00000 418.400000
11767 634 12713 1 149.00000 418.400000
11767 635 12368 1 149.00000 418.400000
11768 636 15917 1 149.00000 418.400000
11768 637 12439 1 149.00000 418.400000
11768 638 14708 1 149.00000 418.400000
11768 639 15663 1 149.00000 418.400000
11769 640 12077 1 149.00000 418.400000
11769 641 12607 1 149.00000 418.400000
11769 642 14492 1 149.00000 418.400000
11769 643 15640 1 149.00000 418.400000
11770 644 12595 1 149.00000 418.400000
11770 645 17191 1 149.00000 418.400000
11770 646 12046 1 149.00000 418.400000
11771 647 13068 1 149.00000 418.400000
11771 648 15056 1 149.00000 418.400000
11771 649 14557 1 149.00000 418.400000
11771 650 16107 1 149.00000 418.400000
11772 651 13987 1 149.00000 418.400000
11772 652 17944 1 149.00000 418.400000
11772 653 14582 1 149.00000 418.400000
11772 654 13064 1 149.00000 418.400000
11773 655 12402 1 149.00000 418.400000
11773 656 12184 1 149.00000 418.400000
11774 657 14109 1 149.00000 418.400000
11774 658 12815 1 149.00000 418.400000
11774 659 13672 1 149.00000 418.400000
12815 660 17180 1 149.00000 418.400000
11775 661 16619 1 149.00000 418.400000
11775 662 17100 1 149.00000 418.400000
14964 663 17100 1 149.00000 418.400000
11775 664 12845 1 149.00000 418.400000
11776 665 16296 1 149.00000 418.400000
14941 666 16296 1 149.00000 418.400000
11776 667 13596 1 149.00000 418.400000
11776 668 11943 1 149.00000 418.400000
11777 669 12606 1 149.00000 418.400000
11777 670 15474 1 149.00000 418.400000
11778 671 14515 1 149.00000 418.400000
11778 672 15504 1 149.00000 418.400000
12634 673 14515 1 149.00000 418.400000
11778 674 13139 1 149.00000 418.400000
11779 675 12841 1 149.00000 418.400000
11779 676 15797 1 149.00000 418.400000
11779 677 12126 1 149.00000 418.400000
11780 678 11822 1 149.00000 418.400000
11780 679 14299 1 149.00000 418.400000
11780 680 16962 1 149.00000 418.400000
11822 681 16339 1 149.00000 418.400000
11781 682 13205 1 149.00000 418.400000
14470 683 16112 1 149.00000 418.400000
11781 684 14073 1 149.00000 418.400000
11781 685 14470 1 149.00000 418.400000
11782 686 13548 1 149.00000 418.400000
11782 687 11928 1 149.00000 418.400000
11782 688 16326 1 149.00000 418.400000
11782 689 15539 1 149.00000 418.400000
11783 690 12290 1 149.00000 418.400000
12067 691 13324 1 149.00000 418.400000
11783 692 12067 1 149.00000 418.400000
11784 693 14063 1 149.00000 418.400000
11784 694 14354 1 149.00000 418.400000
11784 695 12320 1 149.00000 418.400000
11784 696 12221 1 149.00000 418.400000
11785 697 14074 1 149.00000 418.400000
11785 698 13863 1 149.00000 418.400000
11785 699 12358 1 149.00000 418.400000
11785 700 13095 1 149.00000 418.400000
11786 701 13289 1 149.00000 418.400000
11786 702 14726 1 149.00000 418.400000
11786 703 14990 1 149.00000 418.400000
11787 704 12802 1 149.00000 418.400000
11787 705 14488 1 149.00000 418.400000
11787 706 14567 1 149.00000 418.400000
11787 707 13794 1 149.00000 418.400000
11788 708 16591 1 149.00000 418.400000
11788 709 13041 1 149.00000 418.400000
11788 710 15137 1 149.00000 418.400000
11788 711 13723 1 149.00000 418.400000
11789 712 17166 1 149.00000 418.400000
11789 713 14991 1 149.00000 418.400000
11789 714 15110 1 149.00000 418.400000
15110 715 15576 1 149.00000 418.400000
13711 716 15966 1 149.00000 418.400000
11790 717 15966 1 149.00000 418.400000
11790 718 12730 1 149.00000 418.400000
11791 719 15610 1 149.00000 418.400000
11791 720 12576 1 149.00000 418.400000
11791 721 16764 1 149.00000 418.400000
11792 722 14760 1 149.00000 418.400000
11827 723 14414 1 149.00000 418.400000
14414 724 14760 1 149.00000 418.400000
11793 725 14075 1 149.00000 418.400000
11793 726 13954 1 149.00000 418.400000
11793 727 12694 1 149.00000 418.400000
11793 728 13299 1 149.00000 418.400000
11794 729 12564 1 149.00000 418.400000
11794 730 16567 1 149.00000 418.400000
11794 731 16808 1 149.00000 418.400000
11794 732 13011 1 149.00000 418.400000
11795 733 16103 1 149.00000 418.400000
11795 734 12351 1 149.00000 418.400000
11795 735 16837 1 149.00000 418.400000
11795 736 15254 1 149.00000 418.400000
11796 737 16198 1 149.00000 418.400000
11796 738 12684 1 149.00000 418.400000
11796 739 12678 1 149.00000 418.400000
11796 740 12822 1 149.00000 418.400000
11797 741 17305 1 149.00000 418.400000
11797 742 17452 1 149.00000 418.400000
11797 743 15261 1 149.00000 418.400000
11797 744 13932 1 149.00000 418.400000
11798 745 12587 1 149.00000 418.400000
11798 746 13973 1 149.00000 418.400000
11798 747 14552 1 149.00000 418.400000
11798 748 15354 1 149.00000 418.400000
11799 749 15910 1 149.00000 418.400000
11799 750 15220 1 149.00000 418.400000
11799 751 15777 1 149.00000 418.400000
11799 752 13910 1 149.00000 418.400000
11800 753 12920 1 149.00000 418.400000
11800 754 12902 1 149.00000 418.400000
11800 755 12590 1 149.00000 418.400000
11800 756 12319 1 149.00000 418.400000
11801 757 12837 1 149.00000 418.400000
11801 758 11896 1 149.00000 418.400000
11801 759 13262 1 149.00000 418.400000
11781 760 11801 1 149.00000 418.400000
11802 761 13407 1 149.00000 418.400000
11802 762 13368 1 149.00000 418.400000
11802 763 15475 1 149.00000 418.400000
11802 764 16283 1 149.00000 418.400000
11803 765 14290 1 149.00000 418.400000
11803 766 14939 1 149.00000 418.400000
11803 767 14397 1 149.00000 418.400000
11803 768 15148 1 149.00000 418.400000
11804 769 12320 1 149.00000 418.400000
11691 770 11804 1 149.00000 418.400000
11804 771 14538 1 149.00000 418.400000
11804 772 15124 1 149.00000 418.400000
11805 773 13944 1 149.00000 418.400000
11805 774 15776 1 149.00000 418.400000
11805 775 18079 1 149.00000 418.400000
11806 776 16536 1 149.00000 418.400000
11806 777 14203 1 149.00000 418.400000
14203 778 14844 1 149.00000 418.400000
11807 779 15877 1 149.00000 418.400000
11807 780 14212 1 149.00000 418.400000
11807 781 12770 1 149.00000 418.400000
11807 782 16975 1 149.00000 418.400000
17251 783 17737 1 149.00000 418.400000
12562 784 17251 1 149.00000 418.400000
17251 785 17986 1 149.00000 418.400000
11808 786 14820 1 149.00000 418.400000
11808 787 13598 1 149.00000 418.400000
11808 788 14693 1 149.00000 418.400000
11808 789 16596 1 149.00000 418.400000
16908 790 17254 1 149.00000 418.400000
16710 791 17254 1 149.00000 418.400000
16123 792 17254 1 149.00000 418.400000
14906 793 17818 1 149.00000 418.400000
11809 794 15919 1 149.00000 418.400000
11809 795 16497 1 149.00000 418.400000
11809 796 12888 1 149.00000 418.400000
12971 797 17257 1 149.00000 418.400000
14500 798 17257 1 149.00000 418.400000
14661 799 17257 1 149.00000 418.400000
13381 800 17260 1 149.00000 418.400000
17260 801 17338 1 149.00000 418.400000
11810 802 16221 1 149.00000 418.400000
11810 803 15741 1 149.00000 418.400000
11810 804 13146 1 149.00000 418.400000
11810 805 14028 1 149.00000 418.400000
11811 806 12153 1 149.00000 418.400000
11811 807 16752 1 149.00000 418.400000
11811 808 13551 1 149.00000 418.400000
12153 809 14426 1 149.00000 418.400000
15262 810 16352 1 149.00000 418.400000
12056 811 16352 1 149.00000 418.400000
16352 812 16804 1 149.00000 418.400000
11812 813 16352 1 149.00000 418.400000
11813 814 15955 1 149.00000 418.400000
11813 815 13678 1 149.00000 418.400000
11813 816 14278 1 149.00000 418.400000
11813 817 16926 1 149.00000 418.400000
11814 818 13535 1 149.00000 418.400000
11814 819 16695 1 149.00000 418.400000
11814 820 15303 1 149.00000 418.400000
11814 821 15710 1 149.00000 418.400000
11815 822 12622 1 149.00000 418.400000
11815 823 13893 1 149.00000 418.400000
11815 824 17019 1 149.00000 418.400000
11816 825 16984 1 149.00000 418.400000
16492 826 16984 1 149.00000 418.400000
11816 827 15911 1 149.00000 418.400000
11816 828 12338 1 149.00000 418.400000
11817 829 15551 1 149.00000 418.400000
11817 830 14664 1 149.00000 418.400000
11817 831 14931 1 149.00000 418.400000
11817 832 14542 1 149.00000 418.400000
11818 833 16762 1 149.00000 418.400000
11818 834 16711 1 149.00000 418.400000
11818 835 16229 1 149.00000 418.400000
11818 836 16472 1 149.00000 418.400000
12976 837 17263 1 149.00000 418.400000
13688 838 17263 1 149.00000 418.400000
16298 839 17263 1 149.00000 418.400000
11819 840 17371 1 149.00000 418.400000
11820 841 13002 1 149.00000 418.400000
11820 842 16809 1 149.00000 418.400000
11812 843 11820 1 149.00000 418.400000
11820 844 15171 1 149.00000 418.400000
12219 845 14956 1 149.00000 418.400000
11821 846 15160 1 149.00000 418.400000
11821 847 12299 1 149.00000 418.400000
11821 848 13136 1 149.00000 418.400000
11822 849 14725 1 149.00000 418.400000
11780 850 13485 1 149.00000 418.400000
11822 851 15840 1 149.00000 418.400000
11823 852 16562 1 149.00000 418.400000
11823 853 16163 1 149.00000 418.400000
11823 854 12160 1 149.00000 418.400000
11823 855 12602 1 149.00000 418.400000
11824 856 11878 1 149.00000 418.400000
11824 857 14908 1 149.00000 418.400000
11824 858 13176 1 149.00000 418.400000
11824 859 16367 1 149.00000 418.400000
11825 860 15292 1 149.00000 418.400000
11825 861 13142 1 149.00000 418.400000
11825 862 16895 1 149.00000 418.400000
11825 863 16949 1 149.00000 418.400000
11826 864 13338 1 149.00000 418.400000
11826 865 11858 1 149.00000 418.400000
11858 866 15613 1 149.00000 418.400000
11826 867 17995 1 149.00000 418.400000
11827 868 13889 1 149.00000 418.400000
11827 869 11872 1 149.00000 418.400000
11827 870 13604 1 149.00000 418.400000
11828 871 13176 1 149.00000 418.400000
11828 872 14026 1 149.00000 418.400000
11828 873 15774 1 149.00000 418.400000
11828 874 16248 1 149.00000 418.400000
11829 875 12317 1 149.00000 418.400000
11829 876 12401 1 149.00000 418.400000
11829 877 16056 1 149.00000 418.400000
11829 878 13487 1 149.00000 418.400000
11830 879 16609 1 149.00000 418.400000
11830 880 15830 1 149.00000 418.400000
11830 881 14984 1 149.00000 418.400000
11830 882 12708 1 149.00000 418.400000
11831 883 13833 1 149.00000 418.400000
11831 884 15916 1 149.00000 418.400000
11831 885 15750 1 149.00000 418.400000
11831 886 14936 1 149.00000 418.400000
11832 887 14423 1 149.00000 418.400000
11832 888 14824 1 149.00000 418.400000
11832 889 13005 1 149.00000 418.400000
11833 890 15005 1 149.00000 418.400000
11833 891 13992 1 149.00000 418.400000
11833 892 16734 1 149.00000 418.400000
11833 893 12879 1 149.00000 418.400000
11834 894 11922 1 149.00000 418.400000
12731 895 17317 1 149.00000 418.400000
11922 896 16178 1 149.00000 418.400000
12731 897 15348 1 149.00000 418.400000
11835 898 14459 1 149.00000 418.400000
11835 899 14135 1 149.00000 418.400000
11835 900 12463 1 149.00000 418.400000
11835 901 16582 1 149.00000 418.400000
12419 902 13211 1 149.00000 418.400000
12572 903 13211 1 149.00000 418.400000
11836 904 13211 1 149.00000 418.400000
13211 905 15135 1 149.00000 418.400000
12391 906 14860 1 149.00000 418.400000
11837 907 15995 1 149.00000 418.400000
11837 908 15833 1 149.00000 418.400000
11837 909 14860 1 149.00000 418.400000
11838 910 15953 1 149.00000 418.400000
11838 911 12354 1 149.00000 418.400000
11838 912 16779 1 149.00000 418.400000
11838 913 16667 1 149.00000 418.400000
11839 914 16129 1 149.00000 418.400000
11839 915 13651 1 149.00000 418.400000
11839 916 15844 1 149.00000 418.400000
11839 917 15089 1 149.00000 418.400000
11840 918 12437 1 149.00000 418.400000
11840 919 16624 1 149.00000 418.400000
11840 920 16992 1 149.00000 418.400000
11841 921 15827 1 149.00000 418.400000
11841 922 14369 1 149.00000 418.400000
11841 923 13313 1 149.00000 418.400000
11841 924 12118 1 149.00000 418.400000
11842 925 11851 1 149.00000 418.400000
11842 926 14244 1 149.00000 418.400000
11842 927 12177 1 149.00000 418.400000
11842 928 16848 1 149.00000 418.400000
11843 929 16281 1 149.00000 418.400000
11843 930 15572 1 149.00000 418.400000
11843 931 14098 1 149.00000 418.400000
11843 932 15992 1 149.00000 418.400000
11844 933 14135 1 149.00000 418.400000
11844 934 16921 1 149.00000 418.400000
11844 935 13701 1 149.00000 418.400000
11844 936 15256 1 149.00000 418.400000
11845 937 16177 1 149.00000 418.400000
11845 938 16693 1 149.00000 418.400000
11845 939 13471 1 149.00000 418.400000
11845 940 13164 1 149.00000 418.400000
11846 941 11904 1 149.00000 418.400000
11846 942 16366 1 149.00000 418.400000
11846 943 17632 1 149.00000 418.400000
11846 944 15067 1 149.00000 418.400000
11847 945 16007 1 149.00000 418.400000
11847 946 12026 1 149.00000 418.400000
11847 947 17029 1 149.00000 418.400000
11847 948 17190 1 149.00000 418.400000
11941 949 15241 1 149.00000 418.400000
11848 950 12628 1 149.00000 418.400000
11848 951 15241 1 149.00000 418.400000
11848 952 14037 1 149.00000 418.400000
11849 953 11867 1 149.00000 418.400000
11849 954 13881 1 149.00000 418.400000
11849 955 12991 1 149.00000 418.400000
11849 956 15844 1 149.00000 418.400000
11850 957 11917 1 149.00000 418.400000
11850 958 12649 1 149.00000 418.400000
11917 959 13814 1 149.00000 418.400000
12649 960 13021 1 149.00000 418.400000
11851 961 16039 1 149.00000 418.400000
11851 962 15061 1 149.00000 418.400000
11851 963 14950 1 149.00000 418.400000
11852 964 16694 1 149.00000 418.400000
11852 965 13625 1 149.00000 418.400000
11853 966 13176 1 149.00000 418.400000
11853 967 14574 1 149.00000 418.400000
11853 968 15093 1 149.00000 418.400000
11853 969 16889 1 149.00000 418.400000
11854 970 16342 1 149.00000 418.400000
11854 971 12152 1 149.00000 418.400000
11854 972 12517 1 149.00000 418.400000
11854 973 12061 1 149.00000 418.400000
11855 974 15134 1 149.00000 418.400000
11855 975 14462 1 149.00000 418.400000
11855 976 16463 1 149.00000 418.400000
11855 977 15121 1 149.00000 418.400000
11856 978 16894 1 149.00000 418.400000
11856 979 15779 1 149.00000 418.400000
11856 980 17464 1 149.00000 418.400000
11857 981 15364 1 149.00000 418.400000
12339 982 15364 1 149.00000 418.400000
11857 983 12502 1 149.00000 418.400000
11857 984 11980 1 149.00000 418.400000
12171 985 16489 1 149.00000 418.400000
11826 986 12699 1 149.00000 418.400000
11858 987 13113 1 149.00000 418.400000
11858 988 16211 1 149.00000 418.400000
11859 989 16979 1 149.00000 418.400000
11859 990 17176 1 149.00000 418.400000
11859 991 15801 1 149.00000 418.400000
11859 992 11896 1 149.00000 418.400000
11860 993 13713 1 149.00000 418.400000
11860 994 16999 1 149.00000 418.400000
11860 995 12039 1 149.00000 418.400000
11861 996 17113 1 149.00000 418.400000
11861 997 16959 1 149.00000 418.400000
11861 998 16606 1 149.00000 418.400000
11861 999 12842 1 149.00000 418.400000
11862 1000 13569 1 149.00000 418.400000
11862 1001 17050 1 149.00000 418.400000
11862 1002 16706 1 149.00000 418.400000
11862 1003 15847 1 149.00000 418.400000
11863 1004 12633 1 149.00000 418.400000
11863 1005 12317 1 149.00000 418.400000
11863 1006 15349 1 149.00000 418.400000
11863 1007 14636 1 149.00000 418.400000
11864 1008 11895 1 149.00000 418.400000
11864 1009 15787 1 149.00000 418.400000
15429 1010 15798 1 149.00000 418.400000
11864 1011 15429 1 149.00000 418.400000
11865 1012 15061 1 149.00000 418.400000
11865 1013 16187 1 149.00000 418.400000
11865 1014 16848 1 149.00000 418.400000
11865 1015 12866 1 149.00000 418.400000
11866 1016 12162 1 149.00000 418.400000
11866 1017 16469 1 149.00000 418.400000
11866 1018 14419 1 149.00000 418.400000
11866 1019 12720 1 149.00000 418.400000
11867 1020 13567 1 149.00000 418.400000
11867 1021 17827 1 149.00000 418.400000
11867 1022 12255 1 149.00000 418.400000
11868 1023 16247 1 149.00000 418.400000
11868 1024 16675 1 149.00000 418.400000
11868 1025 13546 1 149.00000 418.400000
11868 1026 16843 1 149.00000 418.400000
11869 1027 12369 1 149.00000 418.400000
11869 1028 12479 1 149.00000 418.400000
11869 1029 15996 1 149.00000 418.400000
11836 1030 11870 1 149.00000 418.400000
11870 1031 16358 1 149.00000 418.400000
11870 1032 15116 1 149.00000 418.400000
11870 1033 15851 1 149.00000 418.400000
14857 1034 17266 1 149.00000 418.400000
14564 1035 17266 1 149.00000 418.400000
15747 1036 17281 1 149.00000 418.400000
15747 1037 16295 1 149.00000 418.400000
13441 1038 15747 1 149.00000 418.400000
11871 1039 15747 1 149.00000 418.400000
11872 1040 17839 1 149.00000 418.400000
11872 1041 15666 1 149.00000 418.400000
11872 1042 11873 1 149.00000 418.400000
11873 1043 15176 1 149.00000 418.400000
11873 1044 17308 1 149.00000 418.400000
11874 1045 15766 1 149.00000 418.400000
11874 1046 16339 1 149.00000 418.400000
11874 1047 11946 1 149.00000 418.400000
11874 1048 15840 1 149.00000 418.400000
11875 1049 15609 1 149.00000 418.400000
11875 1050 16200 1 149.00000 418.400000
11875 1051 15083 1 149.00000 418.400000
11876 1052 12022 1 149.00000 418.400000
11876 1053 16097 1 149.00000 418.400000
11876 1054 15781 1 149.00000 418.400000
11876 1055 12867 1 149.00000 418.400000
11877 1056 12079 1 149.00000 418.400000
11877 1057 16477 1 149.00000 418.400000
11877 1058 14818 1 149.00000 418.400000
11877 1059 15826 1 149.00000 418.400000
11878 1060 16254 1 149.00000 418.400000
11878 1061 15971 1 149.00000 418.400000
13229 1062 16254 1 149.00000 418.400000
13601 1063 13831 1 149.00000 418.400000
11879 1064 13601 1 149.00000 418.400000
13601 1065 15280 1 149.00000 418.400000
11880 1066 14115 1 149.00000 418.400000
11880 1067 15021 1 149.00000 418.400000
11880 1068 15052 1 149.00000 418.400000
11880 1069 12650 1 149.00000 418.400000
11881 1070 16443 1 149.00000 418.400000
11881 1071 17071 1 149.00000 418.400000
11881 1072 15494 1 149.00000 418.400000
11882 1073 17281 1 149.00000 418.400000
11882 1074 17185 1 149.00000 418.400000
11882 1075 15721 1 149.00000 418.400000
11882 1076 15211 1 149.00000 418.400000
11883 1077 13960 1 149.00000 418.400000
11883 1078 14260 1 149.00000 418.400000
11883 1079 17035 1 149.00000 418.400000
11883 1080 15705 1 149.00000 418.400000
11884 1081 16284 1 149.00000 418.400000
11884 1082 12946 1 149.00000 418.400000
11884 1083 17111 1 149.00000 418.400000
11884 1084 14920 1 149.00000 418.400000
11885 1085 13776 1 149.00000 418.400000
11885 1086 12762 1 149.00000 418.400000
11885 1087 14474 1 149.00000 418.400000
11885 1088 13415 1 149.00000 418.400000
11886 1089 14516 1 149.00000 418.400000
11886 1090 15197 1 149.00000 418.400000
11886 1091 13477 1 149.00000 418.400000
11886 1092 16757 1 149.00000 418.400000
11887 1093 13451 1 149.00000 418.400000
11887 1094 14640 1 149.00000 418.400000
11887 1095 16823 1 149.00000 418.400000
11888 1096 14665 1 149.00000 418.400000
11888 1097 13582 1 149.00000 418.400000
11888 1098 14727 1 149.00000 418.400000
11888 1099 13037 1 149.00000 418.400000
11889 1100 13429 1 149.00000 418.400000
11889 1101 13469 1 149.00000 418.400000
11889 1102 15608 1 149.00000 418.400000
11889 1103 17034 1 149.00000 418.400000
11890 1104 16504 1 149.00000 418.400000
11890 1105 15352 1 149.00000 418.400000
11890 1106 17148 1 149.00000 418.400000
11891 1107 12437 1 149.00000 418.400000
12437 1108 16968 1 149.00000 418.400000
12437 1109 13653 1 149.00000 418.400000
13925 1110 17269 1 149.00000 418.400000
13795 1111 17269 1 149.00000 418.400000
16791 1112 17269 1 149.00000 418.400000
11892 1113 16934 1 149.00000 418.400000
14929 1114 16934 1 149.00000 418.400000
11892 1115 15831 1 149.00000 418.400000
11892 1116 12019 1 149.00000 418.400000
11893 1117 14150 1 149.00000 418.400000
11893 1118 12609 1 149.00000 418.400000
11893 1119 16116 1 149.00000 418.400000
11893 1120 17956 1 149.00000 418.400000
11894 1121 13479 1 149.00000 418.400000
11894 1122 16222 1 149.00000 418.400000
11894 1123 12596 1 149.00000 418.400000
11894 1124 15696 1 149.00000 418.400000
11895 1125 16521 1 149.00000 418.400000
11895 1126 16010 1 149.00000 418.400000
11895 1127 16807 1 149.00000 418.400000
11896 1128 12232 1 149.00000 418.400000
11896 1129 13197 1 149.00000 418.400000
11897 1130 16000 1 149.00000 418.400000
11747 1131 15581 1 149.00000 418.400000
11897 1132 15630 1 149.00000 418.400000
11898 1133 14299 1 149.00000 418.400000
11898 1134 12647 1 149.00000 418.400000
11898 1135 14351 1 149.00000 418.400000
11898 1136 14257 1 149.00000 418.400000
16351 1137 17644 1 149.00000 418.400000
11899 1138 15854 1 149.00000 418.400000
11899 1139 13067 1 149.00000 418.400000
11899 1140 15924 1 149.00000 418.400000
11899 1141 12084 1 149.00000 418.400000
11900 1142 12380 1 149.00000 418.400000
11900 1143 11915 1 149.00000 418.400000
11900 1144 13581 1 149.00000 418.400000
11900 1145 13849 1 149.00000 418.400000
11901 1146 16983 1 149.00000 418.400000
11901 1147 13177 1 149.00000 418.400000
11901 1148 13404 1 149.00000 418.400000
11901 1149 16424 1 149.00000 418.400000
11902 1150 13933 1 149.00000 418.400000
13933 1151 14422 1 149.00000 418.400000
11902 1152 12647 1 149.00000 418.400000
11903 1153 17095 1 149.00000 418.400000
11903 1154 17467 1 149.00000 418.400000
11903 1155 15190 1 149.00000 418.400000
11903 1156 15446 1 149.00000 418.400000
11904 1157 16661 1 149.00000 418.400000
11904 1158 12215 1 149.00000 418.400000
11904 1159 15317 1 149.00000 418.400000
13402 1160 16155 1 149.00000 418.400000
11905 1161 12319 1 149.00000 418.400000
11905 1162 13402 1 149.00000 418.400000
13402 1163 13750 1 149.00000 418.400000
11906 1164 14696 1 149.00000 418.400000
11906 1165 16873 1 149.00000 418.400000
11906 1166 13962 1 149.00000 418.400000
11906 1167 14345 1 149.00000 418.400000
11907 1168 16990 1 149.00000 418.400000
11907 1169 15523 1 149.00000 418.400000
11907 1170 12734 1 149.00000 418.400000
11907 1171 17554 1 149.00000 418.400000
11908 1172 14301 1 149.00000 418.400000
11908 1173 15370 1 149.00000 418.400000
11908 1174 13145 1 149.00000 418.400000
11908 1175 14516 1 149.00000 418.400000
11909 1176 16435 1 149.00000 418.400000
11909 1177 14765 1 149.00000 418.400000
11909 1178 16450 1 149.00000 418.400000
11910 1179 16578 1 149.00000 418.400000
11910 1180 17809 1 149.00000 418.400000
11911 1181 15681 1 149.00000 418.400000
11911 1182 14766 1 149.00000 418.400000
11911 1183 16572 1 149.00000 418.400000
11911 1184 15920 1 149.00000 418.400000
11912 1185 14172 1 149.00000 418.400000
11912 1186 12367 1 149.00000 418.400000
11912 1187 12030 1 149.00000 418.400000
11912 1188 16961 1 149.00000 418.400000
11913 1189 13373 1 149.00000 418.400000
11913 1190 16865 1 149.00000 418.400000
11913 1191 14989 1 149.00000 418.400000
13373 1192 14794 1 149.00000 418.400000
11914 1193 14369 1 149.00000 418.400000
11914 1194 14191 1 149.00000 418.400000
11914 1195 12169 1 149.00000 418.400000
11914 1196 13151 1 149.00000 418.400000
11664 1197 11915 1 149.00000 418.400000
11915 1198 16645 1 149.00000 418.400000
13934 1199 15264 1 149.00000 418.400000
11916 1200 14722 1 149.00000 418.400000
11916 1201 13934 1 149.00000 418.400000
11916 1202 15295 1 149.00000 418.400000
11850 1203 12852 1 149.00000 418.400000
11917 1204 13120 1 149.00000 418.400000
11917 1205 13102 1 149.00000 418.400000
11918 1206 12381 1 149.00000 418.400000
11918 1207 14881 1 149.00000 418.400000
11919 1208 15482 1 149.00000 418.400000
11919 1209 14212 1 149.00000 418.400000
11919 1210 13882 1 149.00000 418.400000
11920 1211 14350 1 149.00000 418.400000
11680 1212 11920 1 149.00000 418.400000
11920 1213 15810 1 149.00000 418.400000
11920 1214 12763 1 149.00000 418.400000
11921 1215 16832 1 149.00000 418.400000
11921 1216 12375 1 149.00000 418.400000
11921 1217 15244 1 149.00000 418.400000
11921 1218 11976 1 149.00000 418.400000
11922 1219 14886 1 149.00000 418.400000
11834 1220 16146 1 149.00000 418.400000
11922 1221 16519 1 149.00000 418.400000
11923 1222 16242 1 149.00000 418.400000
11923 1223 12789 1 149.00000 418.400000
11923 1224 17962 1 149.00000 418.400000
11924 1225 11947 1 149.00000 418.400000
11924 1226 15630 1 149.00000 418.400000
11924 1227 16847 1 149.00000 418.400000
11924 1228 13395 1 149.00000 418.400000
11925 1229 14225 1 149.00000 418.400000
11925 1230 16813 1 149.00000 418.400000
11925 1231 16838 1 149.00000 418.400000
11925 1232 13480 1 149.00000 418.400000
11926 1233 15301 1 149.00000 418.400000
11926 1234 15795 1 149.00000 418.400000
11926 1235 13571 1 149.00000 418.400000
11926 1236 15188 1 149.00000 418.400000
11927 1237 15173 1 149.00000 418.400000
11927 1238 16162 1 149.00000 418.400000
11927 1239 14013 1 149.00000 418.400000
11928 1240 15003 1 149.00000 418.400000
11928 1241 13877 1 149.00000 418.400000
11928 1242 13133 1 149.00000 418.400000
11929 1243 15579 1 149.00000 418.400000
11929 1244 16199 1 149.00000 418.400000
11929 1245 16596 1 149.00000 418.400000
11930 1246 14284 1 149.00000 418.400000
11930 1247 12104 1 149.00000 418.400000
11930 1248 15739 1 149.00000 418.400000
11930 1249 14507 1 149.00000 418.400000
11931 1250 16139 1 149.00000 418.400000
11931 1251 13239 1 149.00000 418.400000
11931 1252 12757 1 149.00000 418.400000
11931 1253 14695 1 149.00000 418.400000
11932 1254 14641 1 149.00000 418.400000
11932 1255 14429 1 149.00000 418.400000
11932 1256 11989 1 149.00000 418.400000
11932 1257 16771 1 149.00000 418.400000
12074 1258 13125 1 149.00000 418.400000
11933 1259 16186 1 149.00000 418.400000
11933 1260 17950 1 149.00000 418.400000
11933 1261 13561 1 149.00000 418.400000
11933 1262 17072 1 149.00000 418.400000
11934 1263 17128 1 149.00000 418.400000
11934 1264 16053 1 149.00000 418.400000
11934 1265 12642 1 149.00000 418.400000
11935 1266 14008 1 149.00000 418.400000
11935 1267 15873 1 149.00000 418.400000
11935 1268 14131 1 149.00000 418.400000
11935 1269 14661 1 149.00000 418.400000
11936 1270 14972 1 149.00000 418.400000
11936 1271 17189 1 149.00000 418.400000
11936 1272 14319 1 149.00000 418.400000
11936 1273 12723 1 149.00000 418.400000
11937 1274 16895 1 149.00000 418.400000
11937 1275 13502 1 149.00000 418.400000
11937 1276 14145 1 149.00000 418.400000
11937 1277 13500 1 149.00000 418.400000
11938 1278 12757 1 149.00000 418.400000
11938 1279 12450 1 149.00000 418.400000
11938 1280 14590 1 149.00000 418.400000
11938 1281 16142 1 149.00000 418.400000
11939 1282 15275 1 149.00000 418.400000
11939 1283 15417 1 149.00000 418.400000
12542 1284 17020 1 149.00000 418.400000
11939 1285 17020 1 149.00000 418.400000
11940 1286 15365 1 149.00000 418.400000
15365 1287 17058 1 149.00000 418.400000
11940 1288 13124 1 149.00000 418.400000
11941 1289 13705 1 149.00000 418.400000
11941 1290 15308 1 149.00000 418.400000
11941 1291 17551 1 149.00000 418.400000
11942 1292 16167 1 149.00000 418.400000
11942 1293 16595 1 149.00000 418.400000
11942 1294 16430 1 149.00000 418.400000
11942 1295 17025 1 149.00000 418.400000
11943 1296 16055 1 149.00000 418.400000
11943 1297 15553 1 149.00000 418.400000
11943 1298 12305 1 149.00000 418.400000
11944 1299 12070 1 149.00000 418.400000
11944 1300 16557 1 149.00000 418.400000
11944 1301 12503 1 149.00000 418.400000
11944 1302 13019 1 149.00000 418.400000
11945 1303 15665 1 149.00000 418.400000
14722 1304 16619 1 149.00000 418.400000
11945 1305 14722 1 149.00000 418.400000
11945 1306 16507 1 149.00000 418.400000
11946 1307 15112 1 149.00000 418.400000
11946 1308 12009 1 149.00000 418.400000
11946 1309 13135 1 149.00000 418.400000
11947 1310 16665 1 149.00000 418.400000
11947 1311 14852 1 149.00000 418.400000
11871 1312 11947 1 149.00000 418.400000
11948 1313 12306 1 149.00000 418.400000
11948 1314 16934 1 149.00000 418.400000
11948 1315 13732 1 149.00000 418.400000
11948 1316 12445 1 149.00000 418.400000
11949 1317 13155 1 149.00000 418.400000
11949 1318 15024 1 149.00000 418.400000
11949 1319 16847 1 149.00000 418.400000
11949 1320 14852 1 149.00000 418.400000
11950 1321 14972 1 149.00000 418.400000
11950 1322 14990 1 149.00000 418.400000
11950 1323 16659 1 149.00000 418.400000
11950 1324 12274 1 149.00000 418.400000
11951 1325 12295 1 149.00000 418.400000
11951 1326 15203 1 149.00000 418.400000
11951 1327 17866 1 149.00000 418.400000
11951 1328 14747 1 149.00000 418.400000
11952 1329 13242 1 149.00000 418.400000
13242 1330 15394 1 149.00000 418.400000
11952 1331 12749 1 149.00000 418.400000
11953 1332 15974 1 149.00000 418.400000
11953 1333 15677 1 149.00000 418.400000
11953 1334 14799 1 149.00000 418.400000
11953 1335 14131 1 149.00000 418.400000
11954 1336 14442 1 149.00000 418.400000
11954 1337 16049 1 149.00000 418.400000
11954 1338 12846 1 149.00000 418.400000
11954 1339 14682 1 149.00000 418.400000
11955 1340 16361 1 149.00000 418.400000
11955 1341 14023 1 149.00000 418.400000
11955 1342 16659 1 149.00000 418.400000
11956 1343 12139 1 149.00000 418.400000
11956 1344 12049 1 149.00000 418.400000
11957 1345 12714 1 149.00000 418.400000
11957 1346 12167 1 149.00000 418.400000
11957 1347 14734 1 149.00000 418.400000
11957 1348 16897 1 149.00000 418.400000
13911 1349 16224 1 149.00000 418.400000
13911 1350 15906 1 149.00000 418.400000
11958 1351 13911 1 149.00000 418.400000
15788 1352 15906 1 149.00000 418.400000
11959 1353 14528 1 149.00000 418.400000
15628 1354 15727 1 149.00000 418.400000
11959 1355 16872 1 149.00000 418.400000
11959 1356 15628 1 149.00000 418.400000
12489 1357 16437 1 149.00000 418.400000
11960 1358 15905 1 149.00000 418.400000
12489 1359 14898 1 149.00000 418.400000
11960 1360 12489 1 149.00000 418.400000
11961 1361 16921 1 149.00000 418.400000
11961 1362 16423 1 149.00000 418.400000
11961 1363 14185 1 149.00000 418.400000
11961 1364 12117 1 149.00000 418.400000
11962 1365 14440 1 149.00000 418.400000
11962 1366 12455 1 149.00000 418.400000
11962 1367 15483 1 149.00000 418.400000
11962 1368 14060 1 149.00000 418.400000
11963 1369 13454 1 149.00000 418.400000
11963 1370 15230 1 149.00000 418.400000
11963 1371 14501 1 149.00000 418.400000
11963 1372 12144 1 149.00000 418.400000
11964 1373 12420 1 149.00000 418.400000
11964 1374 14028 1 149.00000 418.400000
11964 1375 15820 1 149.00000 418.400000
11965 1376 13169 1 149.00000 418.400000
11965 1377 16155 1 149.00000 418.400000
11965 1378 14795 1 149.00000 418.400000
11965 1379 12753 1 149.00000 418.400000
11966 1380 15079 1 149.00000 418.400000
11966 1381 12217 1 149.00000 418.400000
11966 1382 16045 1 149.00000 418.400000
11967 1383 15479 1 149.00000 418.400000
11967 1384 16810 1 149.00000 418.400000
11967 1385 16120 1 149.00000 418.400000
11967 1386 15228 1 149.00000 418.400000
11968 1387 13225 1 149.00000 418.400000
11968 1388 15132 1 149.00000 418.400000
11968 1389 16305 1 149.00000 418.400000
11969 1390 15612 1 149.00000 418.400000
11969 1391 13731 1 149.00000 418.400000
11969 1392 13622 1 149.00000 418.400000
11969 1393 12921 1 149.00000 418.400000
11970 1394 15726 1 149.00000 418.400000
11970 1395 14000 1 149.00000 418.400000
11970 1396 12628 1 149.00000 418.400000
11970 1397 15308 1 149.00000 418.400000
11971 1398 14560 1 149.00000 418.400000
11971 1399 13291 1 149.00000 418.400000
11971 1400 14916 1 149.00000 418.400000
11971 1401 14049 1 149.00000 418.400000
11972 1402 15498 1 149.00000 418.400000
14459 1403 16616 1 149.00000 418.400000
11972 1404 14030 1 149.00000 418.400000
11972 1405 14459 1 149.00000 418.400000
11973 1406 12528 1 149.00000 418.400000
11973 1407 16802 1 149.00000 418.400000
11973 1408 15928 1 149.00000 418.400000
12507 1409 15580 1 149.00000 418.400000
11974 1410 15580 1 149.00000 418.400000
11974 1411 16243 1 149.00000 418.400000
11974 1412 15723 1 149.00000 418.400000
11975 1413 15097 1 149.00000 418.400000
11975 1414 18039 1 149.00000 418.400000
11976 1415 16927 1 149.00000 418.400000
11976 1416 12112 1 149.00000 418.400000
11976 1417 15192 1 149.00000 418.400000
11977 1418 15859 1 149.00000 418.400000
11977 1419 16483 1 149.00000 418.400000
11977 1420 13547 1 149.00000 418.400000
11977 1421 13568 1 149.00000 418.400000
11978 1422 14033 1 149.00000 418.400000
11978 1423 12703 1 149.00000 418.400000
11978 1424 12988 1 149.00000 418.400000
11978 1425 16052 1 149.00000 418.400000
11979 1426 13253 1 149.00000 418.400000
11979 1427 13244 1 149.00000 418.400000
11979 1428 17152 1 149.00000 418.400000
11979 1429 15001 1 149.00000 418.400000
11980 1430 15648 1 149.00000 418.400000
11980 1431 14522 1 149.00000 418.400000
11980 1432 15661 1 149.00000 418.400000
11981 1433 13613 1 149.00000 418.400000
11981 1434 12313 1 149.00000 418.400000
11981 1435 15786 1 149.00000 418.400000
11982 1436 16408 1 149.00000 418.400000
11982 1437 14096 1 149.00000 418.400000
11982 1438 16195 1 149.00000 418.400000
11982 1439 12554 1 149.00000 418.400000
11983 1440 14299 1 149.00000 418.400000
11983 1441 15484 1 149.00000 418.400000
11983 1442 16885 1 149.00000 418.400000
11984 1443 16430 1 149.00000 418.400000
11984 1444 16563 1 149.00000 418.400000
11985 1445 14800 1 149.00000 418.400000
11985 1446 16922 1 149.00000 418.400000
11985 1447 17193 1 149.00000 418.400000
11985 1448 13264 1 149.00000 418.400000
11986 1449 17026 1 149.00000 418.400000
11986 1450 18054 1 149.00000 418.400000
11987 1451 13004 1 149.00000 418.400000
11987 1452 16419 1 149.00000 418.400000
11987 1453 15012 1 149.00000 418.400000
11988 1454 14892 1 149.00000 418.400000
11988 1455 13850 1 149.00000 418.400000
11988 1456 16049 1 149.00000 418.400000
11989 1457 14177 1 149.00000 418.400000
11989 1458 16993 1 149.00000 418.400000
11989 1459 16897 1 149.00000 418.400000
12809 1460 15724 1 149.00000 418.400000
11990 1461 15445 1 149.00000 418.400000
11990 1462 16415 1 149.00000 418.400000
14297 1463 15594 1 149.00000 418.400000
11991 1464 15101 1 149.00000 418.400000
11991 1465 14711 1 149.00000 418.400000
11991 1466 14750 1 149.00000 418.400000
11991 1467 15598 1 149.00000 418.400000
12397 1468 16661 1 149.00000 418.400000
12759 1469 14594 1 149.00000 418.400000
11992 1470 12397 1 149.00000 418.400000
11992 1471 12759 1 149.00000 418.400000
11993 1472 12554 1 149.00000 418.400000
11993 1473 13732 1 149.00000 418.400000
11993 1474 12943 1 149.00000 418.400000
11993 1475 13498 1 149.00000 418.400000
13978 1476 18004 1 149.00000 418.400000
14858 1477 18004 1 149.00000 418.400000
11994 1478 15501 1 149.00000 418.400000
11994 1479 16453 1 149.00000 418.400000
11994 1480 15760 1 149.00000 418.400000
11994 1481 17767 1 149.00000 418.400000
11995 1482 14644 1 149.00000 418.400000
11995 1483 16000 1 149.00000 418.400000
11995 1484 12446 1 149.00000 418.400000
11995 1485 16439 1 149.00000 418.400000
11996 1486 14593 1 149.00000 418.400000
11996 1487 15978 1 149.00000 418.400000
11996 1488 16568 1 149.00000 418.400000
11996 1489 15488 1 149.00000 418.400000
11997 1490 13907 1 149.00000 418.400000
11997 1491 14222 1 149.00000 418.400000
11997 1492 12494 1 149.00000 418.400000
11997 1493 15349 1 149.00000 418.400000
11998 1494 12364 1 149.00000 418.400000
11998 1495 13796 1 149.00000 418.400000
11998 1496 13300 1 149.00000 418.400000
11998 1497 13128 1 149.00000 418.400000
11999 1498 16329 1 149.00000 418.400000
12601 1499 14059 1 149.00000 418.400000
11999 1500 12601 1 149.00000 418.400000
11999 1501 12205 1 149.00000 418.400000
12000 1502 12524 1 149.00000 418.400000
12000 1503 13229 1 149.00000 418.400000
12000 1504 15427 1 149.00000 418.400000
12000 1505 14810 1 149.00000 418.400000
12001 1506 14545 1 149.00000 418.400000
12001 1507 14107 1 149.00000 418.400000
12001 1508 15435 1 149.00000 418.400000
12001 1509 16683 1 149.00000 418.400000
12002 1510 14150 1 149.00000 418.400000
12002 1511 14941 1 149.00000 418.400000
12002 1512 15970 1 149.00000 418.400000
12002 1513 15912 1 149.00000 418.400000
12003 1514 13257 1 149.00000 418.400000
12003 1515 15649 1 149.00000 418.400000
12003 1516 15288 1 149.00000 418.400000
12003 1517 15266 1 149.00000 418.400000
12004 1518 14715 1 149.00000 418.400000
12004 1519 14777 1 149.00000 418.400000
12004 1520 12342 1 149.00000 418.400000
12004 1521 16663 1 149.00000 418.400000
12005 1522 14842 1 149.00000 418.400000
12005 1523 15054 1 149.00000 418.400000
12005 1524 14257 1 149.00000 418.400000
12005 1525 15894 1 149.00000 418.400000
12006 1526 17443 1 149.00000 418.400000
12006 1527 15052 1 149.00000 418.400000
12006 1528 16526 1 149.00000 418.400000
12006 1529 14217 1 149.00000 418.400000
12007 1530 16033 1 149.00000 418.400000
12007 1531 16814 1 149.00000 418.400000
12007 1532 14923 1 149.00000 418.400000
12007 1533 14324 1 149.00000 418.400000
12008 1534 15135 1 149.00000 418.400000
12008 1535 15383 1 149.00000 418.400000
12008 1536 15433 1 149.00000 418.400000
12008 1537 15954 1 149.00000 418.400000
12009 1538 16962 1 149.00000 418.400000
12009 1539 13291 1 149.00000 418.400000
12009 1540 15018 1 149.00000 418.400000
12010 1541 13888 1 149.00000 418.400000
12010 1542 15082 1 149.00000 418.400000
12011 1543 17018 1 149.00000 418.400000
12011 1544 12811 1 149.00000 418.400000
12011 1545 14496 1 149.00000 418.400000
12011 1546 14101 1 149.00000 418.400000
12012 1547 12708 1 149.00000 418.400000
12012 1548 12226 1 149.00000 418.400000
12012 1549 15602 1 149.00000 418.400000
12012 1550 14076 1 149.00000 418.400000
12013 1551 15522 1 149.00000 418.400000
12013 1552 14139 1 149.00000 418.400000
12013 1553 15891 1 149.00000 418.400000
12013 1554 15188 1 149.00000 418.400000
12014 1555 12607 1 149.00000 418.400000
12014 1556 14409 1 149.00000 418.400000
12014 1557 15037 1 149.00000 418.400000
12014 1558 15264 1 149.00000 418.400000
12015 1559 15684 1 149.00000 418.400000
12015 1560 15575 1 149.00000 418.400000
12015 1561 16048 1 149.00000 418.400000
12015 1562 16899 1 149.00000 418.400000
12016 1563 17680 1 149.00000 418.400000
12016 1564 14437 1 149.00000 418.400000
12016 1565 12567 1 149.00000 418.400000
12016 1566 12178 1 149.00000 418.400000
12017 1567 12085 1 149.00000 418.400000
12711 1568 16705 1 149.00000 418.400000
12017 1569 12711 1 149.00000 418.400000
12017 1570 14112 1 149.00000 418.400000
12018 1571 12553 1 149.00000 418.400000
12018 1572 16509 1 149.00000 418.400000
12018 1573 16270 1 149.00000 418.400000
12018 1574 12529 1 149.00000 418.400000
12019 1575 16438 1 149.00000 418.400000
12261 1576 16438 1 149.00000 418.400000
12019 1577 16771 1 149.00000 418.400000
12019 1578 15157 1 149.00000 418.400000
12020 1579 13938 1 149.00000 418.400000
12020 1580 15293 1 149.00000 418.400000
12020 1581 13359 1 149.00000 418.400000
12020 1582 14983 1 149.00000 418.400000
12021 1583 12417 1 149.00000 418.400000
12021 1584 13406 1 149.00000 418.400000
12021 1585 14011 1 149.00000 418.400000
12022 1586 12762 1 149.00000 418.400000
12022 1587 17084 1 149.00000 418.400000
12672 1588 17084 1 149.00000 418.400000
12023 1589 16184 1 149.00000 418.400000
12023 1590 14126 1 149.00000 418.400000
12023 1591 16020 1 149.00000 418.400000
12023 1592 16132 1 149.00000 418.400000
12024 1593 16366 1 149.00000 418.400000
12024 1594 13594 1 149.00000 418.400000
12024 1595 15438 1 149.00000 418.400000
12025 1596 16989 1 149.00000 418.400000
11744 1597 12025 1 149.00000 418.400000
12025 1598 15947 1 149.00000 418.400000
12026 1599 14527 1 149.00000 418.400000
12026 1600 14258 1 149.00000 418.400000
12026 1601 12075 1 149.00000 418.400000
12027 1602 12485 1 149.00000 418.400000
12027 1603 13652 1 149.00000 418.400000
12027 1604 14175 1 149.00000 418.400000
12028 1605 13572 1 149.00000 418.400000
12028 1606 14639 1 149.00000 418.400000
12028 1607 14938 1 149.00000 418.400000
12028 1608 12677 1 149.00000 418.400000
12029 1609 14111 1 149.00000 418.400000
12029 1610 14665 1 149.00000 418.400000
12029 1611 13247 1 149.00000 418.400000
14111 1612 16231 1 149.00000 418.400000
12030 1613 13172 1 149.00000 418.400000
12030 1614 16648 1 149.00000 418.400000
12030 1615 16740 1 149.00000 418.400000
12031 1616 12960 1 149.00000 418.400000
12031 1617 13185 1 149.00000 418.400000
12031 1618 14276 1 149.00000 418.400000
12046 1619 14109 1 149.00000 418.400000
12032 1620 14109 1 149.00000 418.400000
12032 1621 14797 1 149.00000 418.400000
12032 1622 15204 1 149.00000 418.400000
12033 1623 17938 1 149.00000 418.400000
12033 1624 13387 1 149.00000 418.400000
12033 1625 12175 1 149.00000 418.400000
12034 1626 14366 1 149.00000 418.400000
12034 1627 12662 1 149.00000 418.400000
12034 1628 14101 1 149.00000 418.400000
12034 1629 15141 1 149.00000 418.400000
12035 1630 16355 1 149.00000 418.400000
12035 1631 16857 1 149.00000 418.400000
12035 1632 16445 1 149.00000 418.400000
13693 1633 16857 1 149.00000 418.400000
15627 1634 17272 1 149.00000 418.400000
17272 1635 17833 1 149.00000 418.400000
14011 1636 17272 1 149.00000 418.400000
12036 1637 16569 1 149.00000 418.400000
12036 1638 15427 1 149.00000 418.400000
12036 1639 14557 1 149.00000 418.400000
12036 1640 15731 1 149.00000 418.400000
12037 1641 13936 1 149.00000 418.400000
12037 1642 13050 1 149.00000 418.400000
12037 1643 13119 1 149.00000 418.400000
12038 1644 17947 1 149.00000 418.400000
12038 1645 16163 1 149.00000 418.400000
12038 1646 15106 1 149.00000 418.400000
11891 1647 14827 1 149.00000 418.400000
12588 1648 13705 1 149.00000 418.400000
11891 1649 12588 1 149.00000 418.400000
12040 1650 13590 1 149.00000 418.400000
12040 1651 16963 1 149.00000 418.400000
12041 1652 17275 1 149.00000 418.400000
12041 1653 13087 1 149.00000 418.400000
12041 1654 12202 1 149.00000 418.400000
13575 1655 17275 1 149.00000 418.400000
12042 1656 17001 1 149.00000 418.400000
12042 1657 13804 1 149.00000 418.400000
12042 1658 15007 1 149.00000 418.400000
12042 1659 12673 1 149.00000 418.400000
12043 1660 13066 1 149.00000 418.400000
12043 1661 17185 1 149.00000 418.400000
12043 1662 16081 1 149.00000 418.400000
12043 1663 14144 1 149.00000 418.400000
12044 1664 13593 1 149.00000 418.400000
12044 1665 12967 1 149.00000 418.400000
12044 1666 13145 1 149.00000 418.400000
12044 1667 16165 1 149.00000 418.400000
12045 1668 15764 1 149.00000 418.400000
12045 1669 16127 1 149.00000 418.400000
12045 1670 17159 1 149.00000 418.400000
12045 1671 12506 1 149.00000 418.400000
12046 1672 14027 1 149.00000 418.400000
12046 1673 14208 1 149.00000 418.400000
12047 1674 16336 1 149.00000 418.400000
12047 1675 14471 1 149.00000 418.400000
12047 1676 15429 1 149.00000 418.400000
12047 1677 13226 1 149.00000 418.400000
12048 1678 16148 1 149.00000 418.400000
12048 1679 12965 1 149.00000 418.400000
12048 1680 14931 1 149.00000 418.400000
12049 1681 15189 1 149.00000 418.400000
12049 1682 14900 1 149.00000 418.400000
12049 1683 17545 1 149.00000 418.400000
17551 1684 17917 1 149.00000 418.400000
12050 1685 13397 1 149.00000 418.400000
14394 1686 14596 1 149.00000 418.400000
12051 1687 14394 1 149.00000 418.400000
12051 1688 13779 1 149.00000 418.400000
12726 1689 17278 1 149.00000 418.400000
15342 1690 17278 1 149.00000 418.400000
15520 1691 17278 1 149.00000 418.400000
12052 1692 14275 1 149.00000 418.400000
12052 1693 13697 1 149.00000 418.400000
12052 1694 16203 1 149.00000 418.400000
12052 1695 14702 1 149.00000 418.400000
12747 1696 16860 1 149.00000 418.400000
12053 1697 12747 1 149.00000 418.400000
12053 1698 12193 1 149.00000 418.400000
12053 1699 17374 1 149.00000 418.400000
12054 1700 16587 1 149.00000 418.400000
12054 1701 14464 1 149.00000 418.400000
12054 1702 14015 1 149.00000 418.400000
12054 1703 13292 1 149.00000 418.400000
12055 1704 15585 1 149.00000 418.400000
12055 1705 13364 1 149.00000 418.400000
12055 1706 16981 1 149.00000 418.400000
12055 1707 15082 1 149.00000 418.400000
12056 1708 12735 1 149.00000 418.400000
12056 1709 15598 1 149.00000 418.400000
12056 1710 15524 1 149.00000 418.400000
12057 1711 15841 1 149.00000 418.400000
15603 1712 15841 1 149.00000 418.400000
12057 1713 16258 1 149.00000 418.400000
12057 1714 15119 1 149.00000 418.400000
12058 1715 15846 1 149.00000 418.400000
12058 1716 13579 1 149.00000 418.400000
12058 1717 13748 1 149.00000 418.400000
13466 1718 18009 1 149.00000 418.400000
12059 1719 15135 1 149.00000 418.400000
13201 1720 16762 1 149.00000 418.400000
13201 1721 16672 1 149.00000 418.400000
12059 1722 13201 1 149.00000 418.400000
12060 1723 13767 1 149.00000 418.400000
12060 1724 16100 1 149.00000 418.400000
12060 1725 16109 1 149.00000 418.400000
12060 1726 16973 1 149.00000 418.400000
16452 1727 17281 1 149.00000 418.400000
12061 1728 16586 1 149.00000 418.400000
12061 1729 14713 1 149.00000 418.400000
12061 1730 12439 1 149.00000 418.400000
12062 1731 15539 1 149.00000 418.400000
12062 1732 16515 1 149.00000 418.400000
12062 1733 13661 1 149.00000 418.400000
12062 1734 13547 1 149.00000 418.400000
12063 1735 15300 1 149.00000 418.400000
12063 1736 16054 1 149.00000 418.400000
12063 1737 14427 1 149.00000 418.400000
12064 1738 16360 1 149.00000 418.400000
12064 1739 17162 1 149.00000 418.400000
14704 1740 16360 1 149.00000 418.400000
12700 1741 17162 1 149.00000 418.400000
12065 1742 14342 1 149.00000 418.400000
12066 1743 12579 1 149.00000 418.400000
12066 1744 12615 1 149.00000 418.400000
12066 1745 15144 1 149.00000 418.400000
12066 1746 16086 1 149.00000 418.400000
12067 1747 13316 1 149.00000 418.400000
12067 1748 15932 1 149.00000 418.400000
11783 1749 15517 1 149.00000 418.400000
13018 1750 16841 1 149.00000 418.400000
12068 1751 16795 1 149.00000 418.400000
12068 1752 14401 1 149.00000 418.400000
12068 1753 14679 1 149.00000 418.400000
12069 1754 16286 1 149.00000 418.400000
12069 1755 17821 1 149.00000 418.400000
12069 1756 15239 1 149.00000 418.400000
12069 1757 13506 1 149.00000 418.400000
16781 1758 17284 1 149.00000 418.400000
14679 1759 17284 1 149.00000 418.400000
16302 1760 17284 1 149.00000 418.400000
12070 1761 13355 1 149.00000 418.400000
12070 1762 16085 1 149.00000 418.400000
12070 1763 12373 1 149.00000 418.400000
12071 1764 12506 1 149.00000 418.400000
12071 1765 14168 1 149.00000 418.400000
12071 1766 12611 1 149.00000 418.400000
12071 1767 12678 1 149.00000 418.400000
12072 1768 14647 1 149.00000 418.400000
12072 1769 13159 1 149.00000 418.400000
12072 1770 13093 1 149.00000 418.400000
12072 1771 14527 1 149.00000 418.400000
12073 1772 18089 1 149.00000 418.400000
12073 1773 12724 1 149.00000 418.400000
12073 1774 14650 1 149.00000 418.400000
12073 1775 14817 1 149.00000 418.400000
12074 1776 17183 1 149.00000 418.400000
12074 1777 13031 1 149.00000 418.400000
12075 1778 14993 1 149.00000 418.400000
12075 1779 13217 1 149.00000 418.400000
12075 1780 16896 1 149.00000 418.400000
12076 1781 16479 1 149.00000 418.400000
12076 1782 13120 1 149.00000 418.400000
12076 1783 14266 1 149.00000 418.400000
12076 1784 16585 1 149.00000 418.400000
12077 1785 14433 1 149.00000 418.400000
12077 1786 15553 1 149.00000 418.400000
12077 1787 15375 1 149.00000 418.400000
12078 1788 15444 1 149.00000 418.400000
12078 1789 14959 1 149.00000 418.400000
12078 1790 15195 1 149.00000 418.400000
12078 1791 13216 1 149.00000 418.400000
12079 1792 13154 1 149.00000 418.400000
12079 1793 13263 1 149.00000 418.400000
12079 1794 14405 1 149.00000 418.400000
12080 1795 13973 1 149.00000 418.400000
12080 1796 15381 1 149.00000 418.400000
12080 1797 16806 1 149.00000 418.400000
12080 1798 14558 1 149.00000 418.400000
12081 1799 14473 1 149.00000 418.400000
12081 1800 13644 1 149.00000 418.400000
12081 1801 12927 1 149.00000 418.400000
12081 1802 12621 1 149.00000 418.400000
12082 1803 12366 1 149.00000 418.400000
12082 1804 14990 1 149.00000 418.400000
12082 1805 17189 1 149.00000 418.400000
12082 1806 15094 1 149.00000 418.400000
12083 1807 15526 1 149.00000 418.400000
12083 1808 13635 1 149.00000 418.400000
12084 1809 12764 1 149.00000 418.400000
12084 1810 12389 1 149.00000 418.400000
12084 1811 13845 1 149.00000 418.400000
12085 1812 14068 1 149.00000 418.400000
12085 1813 12151 1 149.00000 418.400000
12085 1814 14573 1 149.00000 418.400000
12086 1815 12960 1 149.00000 418.400000
12086 1816 13275 1 149.00000 418.400000
12086 1817 14675 1 149.00000 418.400000
12086 1818 16957 1 149.00000 418.400000
12087 1819 12346 1 149.00000 418.400000
12087 1820 13383 1 149.00000 418.400000
12087 1821 16035 1 149.00000 418.400000
12088 1822 13787 1 149.00000 418.400000
12088 1823 15238 1 149.00000 418.400000
12088 1824 17193 1 149.00000 418.400000
12089 1825 15872 1 149.00000 418.400000
12089 1826 16474 1 149.00000 418.400000
12089 1827 14398 1 149.00000 418.400000
12089 1828 16417 1 149.00000 418.400000
13765 1829 17287 1 149.00000 418.400000
14128 1830 17287 1 149.00000 418.400000
14362 1831 17287 1 149.00000 418.400000
12090 1832 14550 1 149.00000 418.400000
12090 1833 12861 1 149.00000 418.400000
12090 1834 15808 1 149.00000 418.400000
12090 1835 16052 1 149.00000 418.400000
12091 1836 14092 1 149.00000 418.400000
12091 1837 13272 1 149.00000 418.400000
12091 1838 16231 1 149.00000 418.400000
12092 1839 14894 1 149.00000 418.400000
12092 1840 13663 1 149.00000 418.400000
12092 1841 12721 1 149.00000 418.400000
12092 1842 14909 1 149.00000 418.400000
12093 1843 16833 1 149.00000 418.400000
12093 1844 16411 1 149.00000 418.400000
12093 1845 12625 1 149.00000 418.400000
12093 1846 15873 1 149.00000 418.400000
12094 1847 12923 1 149.00000 418.400000
12094 1848 12804 1 149.00000 418.400000
12094 1849 13047 1 149.00000 418.400000
12094 1850 14603 1 149.00000 418.400000
12095 1851 14904 1 149.00000 418.400000
12095 1852 13330 1 149.00000 418.400000
12095 1853 16658 1 149.00000 418.400000
12095 1854 12161 1 149.00000 418.400000
12096 1855 15348 1 149.00000 418.400000
12096 1856 15814 1 149.00000 418.400000
12096 1857 16146 1 149.00000 418.400000
11658 1858 17557 1 149.00000 418.400000
12097 1859 15730 1 149.00000 418.400000
12097 1860 15908 1 149.00000 418.400000
12097 1861 12857 1 149.00000 418.400000
12097 1862 13369 1 149.00000 418.400000
12098 1863 13235 1 149.00000 418.400000
12098 1864 13098 1 149.00000 418.400000
12098 1865 15418 1 149.00000 418.400000
17133 1866 18014 1 149.00000 418.400000
16063 1867 18014 1 149.00000 418.400000
12099 1868 14664 1 149.00000 418.400000
12099 1869 17129 1 149.00000 418.400000
12099 1870 16409 1 149.00000 418.400000
12099 1871 16644 1 149.00000 418.400000
12100 1872 13584 1 149.00000 418.400000
12100 1873 12136 1 149.00000 418.400000
12100 1874 14154 1 149.00000 418.400000
12100 1875 16900 1 149.00000 418.400000
12101 1876 16387 1 149.00000 418.400000
12101 1877 16130 1 149.00000 418.400000
12101 1878 17160 1 149.00000 418.400000
12102 1879 14605 1 149.00000 418.400000
12102 1880 16611 1 149.00000 418.400000
12102 1881 13384 1 149.00000 418.400000
12102 1882 12772 1 149.00000 418.400000
12103 1883 14489 1 149.00000 418.400000
12103 1884 13358 1 149.00000 418.400000
12103 1885 14523 1 149.00000 418.400000
12104 1886 12581 1 149.00000 418.400000
12104 1887 15078 1 149.00000 418.400000
12104 1888 13726 1 149.00000 418.400000
12105 1889 14883 1 149.00000 418.400000
12105 1890 17035 1 149.00000 418.400000
12105 1891 13482 1 149.00000 418.400000
12106 1892 14409 1 149.00000 418.400000
12106 1893 15402 1 149.00000 418.400000
14409 1894 16209 1 149.00000 418.400000
12106 1895 16226 1 149.00000 418.400000
13614 1896 17290 1 149.00000 418.400000
17058 1897 17290 1 149.00000 418.400000
12107 1898 12294 1 149.00000 418.400000
12107 1899 15027 1 149.00000 418.400000
12107 1900 14927 1 149.00000 418.400000
12107 1901 16820 1 149.00000 418.400000
14853 1902 17180 1 149.00000 418.400000
12108 1903 13282 1 149.00000 418.400000
16026 1904 16431 1 149.00000 418.400000
12108 1905 14853 1 149.00000 418.400000
12109 1906 15863 1 149.00000 418.400000
12109 1907 14971 1 149.00000 418.400000
12109 1908 16675 1 149.00000 418.400000
12109 1909 12461 1 149.00000 418.400000
12110 1910 13335 1 149.00000 418.400000
12110 1911 14510 1 149.00000 418.400000
14510 1912 15382 1 149.00000 418.400000
12110 1913 14141 1 149.00000 418.400000
12111 1914 16895 1 149.00000 418.400000
12111 1915 16702 1 149.00000 418.400000
12111 1916 13501 1 149.00000 418.400000
12111 1917 12443 1 149.00000 418.400000
12112 1918 15501 1 149.00000 418.400000
12112 1919 13875 1 149.00000 418.400000
12113 1920 16923 1 149.00000 418.400000
12113 1921 15797 1 149.00000 418.400000
12113 1922 17983 1 149.00000 418.400000
12113 1923 13804 1 149.00000 418.400000
15833 1924 16711 1 149.00000 418.400000
12114 1925 15833 1 149.00000 418.400000
12114 1926 15252 1 149.00000 418.400000
15212 1927 15252 1 149.00000 418.400000
13285 1928 16907 1 149.00000 418.400000
12115 1929 12697 1 149.00000 418.400000
12235 1930 16640 1 149.00000 418.400000
12115 1931 13285 1 149.00000 418.400000
12116 1932 16654 1 149.00000 418.400000
12116 1933 16692 1 149.00000 418.400000
12116 1934 15328 1 149.00000 418.400000
12116 1935 15451 1 149.00000 418.400000
12117 1936 14397 1 149.00000 418.400000
12117 1937 12385 1 149.00000 418.400000
12117 1938 13927 1 149.00000 418.400000
12604 1939 14690 1 149.00000 418.400000
12118 1940 12169 1 149.00000 418.400000
12118 1941 13884 1 149.00000 418.400000
12118 1942 16271 1 149.00000 418.400000
12119 1943 13031 1 149.00000 418.400000
12119 1944 17623 1 149.00000 418.400000
12119 1945 13609 1 149.00000 418.400000
11700 1946 12914 1 149.00000 418.400000
12120 1947 15652 1 149.00000 418.400000
11700 1948 14480 1 149.00000 418.400000
12121 1949 15614 1 149.00000 418.400000
12121 1950 13522 1 149.00000 418.400000
12121 1951 17875 1 149.00000 418.400000
12122 1952 14105 1 149.00000 418.400000
12122 1953 14524 1 149.00000 418.400000
12122 1954 14618 1 149.00000 418.400000
12122 1955 13383 1 149.00000 418.400000
12123 1956 12448 1 149.00000 418.400000
12123 1957 12703 1 149.00000 418.400000
12123 1958 17527 1 149.00000 418.400000
12123 1959 13365 1 149.00000 418.400000
12124 1960 17719 1 149.00000 418.400000
12124 1961 14272 1 149.00000 418.400000
12124 1962 13757 1 149.00000 418.400000
12124 1963 13148 1 149.00000 418.400000
12125 1964 12289 1 149.00000 418.400000
12125 1965 14914 1 149.00000 418.400000
12125 1966 16995 1 149.00000 418.400000
12125 1967 16610 1 149.00000 418.400000
12126 1968 17121 1 149.00000 418.400000
12126 1969 17857 1 149.00000 418.400000
12126 1970 15895 1 149.00000 418.400000
12127 1971 15930 1 149.00000 418.400000
12127 1972 13055 1 149.00000 418.400000
12127 1973 16272 1 149.00000 418.400000
13913 1974 16272 1 149.00000 418.400000
15144 1975 16433 1 149.00000 418.400000
12128 1976 15376 1 149.00000 418.400000
12128 1977 16433 1 149.00000 418.400000
12128 1978 13101 1 149.00000 418.400000
12129 1979 12156 1 149.00000 418.400000
12129 1980 12521 1 149.00000 418.400000
12129 1981 13717 1 149.00000 418.400000
12129 1982 15835 1 149.00000 418.400000
12130 1983 13311 1 149.00000 418.400000
12130 1984 17968 1 149.00000 418.400000
12130 1985 14393 1 149.00000 418.400000
12130 1986 17302 1 149.00000 418.400000
12131 1987 13098 1 149.00000 418.400000
12131 1988 12192 1 149.00000 418.400000
16474 1989 16505 1 149.00000 418.400000
12131 1990 16505 1 149.00000 418.400000
12132 1991 14331 1 149.00000 418.400000
12132 1992 16783 1 149.00000 418.400000
12132 1993 16947 1 149.00000 418.400000
12132 1994 12367 1 149.00000 418.400000
12133 1995 14145 1 149.00000 418.400000
12133 1996 13510 1 149.00000 418.400000
12133 1997 14891 1 149.00000 418.400000
12133 1998 16032 1 149.00000 418.400000
12134 1999 15202 1 149.00000 418.400000
12134 2000 13422 1 149.00000 418.400000
12134 2001 14828 1 149.00000 418.400000
12134 2002 15540 1 149.00000 418.400000
12135 2003 12400 1 149.00000 418.400000
12135 2004 14314 1 149.00000 418.400000
12135 2005 16139 1 149.00000 418.400000
12136 2006 16615 1 149.00000 418.400000
12136 2007 15294 1 149.00000 418.400000
12136 2008 15090 1 149.00000 418.400000
14591 2009 17920 1 149.00000 418.400000
12137 2010 15300 1 149.00000 418.400000
12137 2011 13295 1 149.00000 418.400000
12137 2012 13388 1 149.00000 418.400000
12137 2013 13618 1 149.00000 418.400000
12138 2014 13058 1 149.00000 418.400000
12138 2015 13743 1 149.00000 418.400000
12138 2016 16223 1 149.00000 418.400000
12138 2017 13522 1 149.00000 418.400000
14025 2018 17293 1 149.00000 418.400000
15399 2019 17293 1 149.00000 418.400000
12139 2020 15586 1 149.00000 418.400000
12139 2021 12973 1 149.00000 418.400000
12139 2022 12482 1 149.00000 418.400000
12140 2023 13117 1 149.00000 418.400000
12140 2024 15532 1 149.00000 418.400000
12140 2025 13163 1 149.00000 418.400000
12140 2026 16534 1 149.00000 418.400000
12432 2027 17296 1 149.00000 418.400000
16418 2028 17296 1 149.00000 418.400000
12141 2029 13742 1 149.00000 418.400000
12141 2030 15615 1 149.00000 418.400000
12141 2031 15607 1 149.00000 418.400000
12141 2032 12739 1 149.00000 418.400000
12142 2033 14309 1 149.00000 418.400000
12142 2034 16981 1 149.00000 418.400000
12142 2035 15905 1 149.00000 418.400000
12142 2036 16905 1 149.00000 418.400000
12143 2037 15341 1 149.00000 418.400000
12143 2038 15499 1 149.00000 418.400000
12143 2039 15402 1 149.00000 418.400000
12143 2040 12382 1 149.00000 418.400000
12144 2041 17025 1 149.00000 418.400000
12144 2042 16240 1 149.00000 418.400000
12145 2043 13782 1 149.00000 418.400000
12145 2044 15698 1 149.00000 418.400000
12145 2045 17485 1 149.00000 418.400000
13745 2046 17299 1 149.00000 418.400000
15253 2047 17299 1 149.00000 418.400000
15740 2048 17299 1 149.00000 418.400000
12146 2049 13446 1 149.00000 418.400000
12146 2050 15866 1 149.00000 418.400000
12146 2051 13848 1 149.00000 418.400000
12146 2052 13524 1 149.00000 418.400000
12147 2053 12152 1 149.00000 418.400000
12147 2054 13475 1 149.00000 418.400000
12148 2055 12445 1 149.00000 418.400000
12148 2056 16546 1 149.00000 418.400000
12148 2057 16697 1 149.00000 418.400000
12148 2058 12359 1 149.00000 418.400000
12149 2059 13652 1 149.00000 418.400000
12149 2060 12447 1 149.00000 418.400000
12149 2061 14586 1 149.00000 418.400000
12150 2062 16467 1 149.00000 418.400000
12150 2063 15563 1 149.00000 418.400000
12150 2064 12635 1 149.00000 418.400000
12150 2065 16161 1 149.00000 418.400000
17302 2066 17476 1 149.00000 418.400000
12151 2067 13912 1 149.00000 418.400000
12151 2068 15815 1 149.00000 418.400000
12151 2069 13303 1 149.00000 418.400000
12152 2070 12211 1 149.00000 418.400000
12152 2071 14847 1 149.00000 418.400000
12153 2072 14273 1 149.00000 418.400000
12153 2073 15439 1 149.00000 418.400000
11811 2074 16354 1 149.00000 418.400000
12154 2075 12719 1 149.00000 418.400000
12154 2076 14802 1 149.00000 418.400000
12154 2077 15658 1 149.00000 418.400000
12154 2078 17090 1 149.00000 418.400000
12155 2079 14530 1 149.00000 418.400000
12155 2080 15300 1 149.00000 418.400000
12155 2081 13234 1 149.00000 418.400000
12156 2082 12623 1 149.00000 418.400000
12156 2083 16746 1 149.00000 418.400000
12157 2084 14859 1 149.00000 418.400000
12157 2085 15237 1 149.00000 418.400000
12157 2086 16643 1 149.00000 418.400000
12157 2087 13168 1 149.00000 418.400000
12158 2088 12624 1 149.00000 418.400000
12158 2089 14031 1 149.00000 418.400000
12158 2090 13430 1 149.00000 418.400000
12158 2091 14262 1 149.00000 418.400000
12159 2092 16351 1 149.00000 418.400000
12159 2093 14047 1 149.00000 418.400000
12159 2094 15265 1 149.00000 418.400000
12159 2095 12638 1 149.00000 418.400000
14878 2096 17305 1 149.00000 418.400000
12681 2097 17305 1 149.00000 418.400000
12160 2098 16996 1 149.00000 418.400000
16996 2099 17773 1 149.00000 418.400000
12160 2100 16059 1 149.00000 418.400000
12161 2101 12185 1 149.00000 418.400000
12161 2102 16379 1 149.00000 418.400000
12161 2103 16378 1 149.00000 418.400000
12162 2104 16869 1 149.00000 418.400000
12162 2105 13804 1 149.00000 418.400000
12162 2106 16650 1 149.00000 418.400000
17506 2107 18019 1 149.00000 418.400000
17014 2108 18019 1 149.00000 418.400000
12163 2109 13089 1 149.00000 418.400000
12163 2110 17911 1 149.00000 418.400000
12163 2111 15018 1 149.00000 418.400000
12163 2112 15440 1 149.00000 418.400000
12164 2113 16560 1 149.00000 418.400000
12164 2114 13304 1 149.00000 418.400000
12164 2115 13847 1 149.00000 418.400000
12164 2116 15726 1 149.00000 418.400000
12426 2117 14199 1 149.00000 418.400000
12165 2118 14199 1 149.00000 418.400000
12165 2119 16545 1 149.00000 418.400000
12165 2120 14428 1 149.00000 418.400000
12166 2121 14360 1 149.00000 418.400000
12166 2122 13801 1 149.00000 418.400000
12166 2123 13051 1 149.00000 418.400000
12166 2124 17049 1 149.00000 418.400000
12167 2125 17093 1 149.00000 418.400000
12167 2126 13515 1 149.00000 418.400000
12168 2127 12590 1 149.00000 418.400000
12168 2128 12902 1 149.00000 418.400000
12168 2129 16682 1 149.00000 418.400000
12168 2130 16004 1 149.00000 418.400000
12169 2131 15314 1 149.00000 418.400000
12169 2132 14735 1 149.00000 418.400000
12170 2133 12234 1 149.00000 418.400000
12170 2134 13687 1 149.00000 418.400000
12170 2135 15733 1 149.00000 418.400000
12170 2136 14037 1 149.00000 418.400000
12171 2137 14541 1 149.00000 418.400000
12171 2138 16120 1 149.00000 418.400000
12171 2139 12416 1 149.00000 418.400000
12172 2140 14231 1 149.00000 418.400000
12172 2141 13418 1 149.00000 418.400000
12172 2142 13072 1 149.00000 418.400000
12172 2143 15621 1 149.00000 418.400000
12173 2144 16860 1 149.00000 418.400000
12173 2145 13412 1 149.00000 418.400000
12173 2146 13895 1 149.00000 418.400000
12173 2147 13443 1 149.00000 418.400000
12174 2148 17758 1 149.00000 418.400000
12175 2149 13819 1 149.00000 418.400000
12175 2150 16966 1 149.00000 418.400000
12175 2151 15456 1 149.00000 418.400000
12176 2152 16340 1 149.00000 418.400000
12176 2153 16629 1 149.00000 418.400000
12176 2154 15622 1 149.00000 418.400000
12176 2155 16881 1 149.00000 418.400000
12177 2156 16416 1 149.00000 418.400000
12177 2157 16870 1 149.00000 418.400000
12177 2158 14186 1 149.00000 418.400000
12178 2159 14837 1 149.00000 418.400000
12178 2160 12880 1 149.00000 418.400000
12179 2161 13073 1 149.00000 418.400000
12179 2162 17069 1 149.00000 418.400000
13408 2163 14816 1 149.00000 418.400000
12179 2164 13408 1 149.00000 418.400000
12180 2165 14690 1 149.00000 418.400000
12180 2166 14318 1 149.00000 418.400000
12181 2167 15842 1 149.00000 418.400000
12181 2168 14866 1 149.00000 418.400000
12181 2169 15902 1 149.00000 418.400000
12181 2170 15011 1 149.00000 418.400000
12182 2171 13712 1 149.00000 418.400000
12182 2172 15111 1 149.00000 418.400000
12182 2173 17027 1 149.00000 418.400000
12182 2174 15941 1 149.00000 418.400000
12183 2175 13083 1 149.00000 418.400000
15030 2176 17009 1 149.00000 418.400000
12183 2177 17614 1 149.00000 418.400000
12183 2178 17009 1 149.00000 418.400000
12184 2179 15810 1 149.00000 418.400000
12184 2180 14820 1 149.00000 418.400000
12185 2181 16303 1 149.00000 418.400000
12185 2182 14432 1 149.00000 418.400000
12185 2183 14256 1 149.00000 418.400000
12186 2184 12864 1 149.00000 418.400000
12186 2185 15090 1 149.00000 418.400000
12186 2186 17135 1 149.00000 418.400000
12186 2187 14602 1 149.00000 418.400000
12187 2188 13109 1 149.00000 418.400000
12187 2189 16706 1 149.00000 418.400000
12187 2190 12649 1 149.00000 418.400000
12187 2191 14239 1 149.00000 418.400000
12188 2192 17127 1 149.00000 418.400000
12188 2193 16906 1 149.00000 418.400000
15885 2194 16930 1 149.00000 418.400000
12188 2195 16930 1 149.00000 418.400000
12189 2196 16332 1 149.00000 418.400000
12189 2197 16105 1 149.00000 418.400000
12189 2198 16592 1 149.00000 418.400000
12189 2199 15626 1 149.00000 418.400000
12190 2200 15762 1 149.00000 418.400000
12190 2201 15406 1 149.00000 418.400000
12191 2202 13047 1 149.00000 418.400000
12191 2203 13021 1 149.00000 418.400000
12191 2204 16629 1 149.00000 418.400000
12191 2205 14202 1 149.00000 418.400000
12192 2206 16482 1 149.00000 418.400000
12192 2207 13396 1 149.00000 418.400000
12192 2208 12199 1 149.00000 418.400000
12193 2209 15620 1 149.00000 418.400000
12193 2210 13270 1 149.00000 418.400000
12193 2211 13210 1 149.00000 418.400000
12194 2212 13434 1 149.00000 418.400000
12194 2213 15802 1 149.00000 418.400000
12194 2214 12886 1 149.00000 418.400000
12194 2215 17119 1 149.00000 418.400000
12195 2216 12620 1 149.00000 418.400000
12195 2217 17377 1 149.00000 418.400000
12196 2218 15798 1 149.00000 418.400000
12196 2219 12907 1 149.00000 418.400000
12196 2220 16050 1 149.00000 418.400000
12196 2221 16304 1 149.00000 418.400000
12197 2222 13535 1 149.00000 418.400000
12197 2223 15703 1 149.00000 418.400000
12197 2224 14147 1 149.00000 418.400000
12197 2225 14966 1 149.00000 418.400000
12198 2226 13760 1 149.00000 418.400000
12198 2227 16205 1 149.00000 418.400000
12198 2228 15971 1 149.00000 418.400000
12198 2229 13750 1 149.00000 418.400000
12199 2230 15532 1 149.00000 418.400000
12199 2231 16417 1 149.00000 418.400000
12199 2232 13235 1 149.00000 418.400000
12200 2233 12748 1 149.00000 418.400000
12200 2234 13187 1 149.00000 418.400000
12201 2235 14267 1 149.00000 418.400000
12201 2236 13218 1 149.00000 418.400000
12201 2237 15264 1 149.00000 418.400000
12201 2238 13747 1 149.00000 418.400000
12202 2239 15471 1 149.00000 418.400000
12202 2240 13769 1 149.00000 418.400000
12202 2241 12779 1 149.00000 418.400000
12203 2242 16612 1 149.00000 418.400000
12203 2243 14120 1 149.00000 418.400000
12203 2244 13233 1 149.00000 418.400000
12203 2245 16391 1 149.00000 418.400000
12204 2246 17662 1 149.00000 418.400000
12204 2247 17106 1 149.00000 418.400000
12204 2248 13446 1 149.00000 418.400000
12204 2249 15438 1 149.00000 418.400000
12205 2250 14991 1 149.00000 418.400000
12205 2251 13305 1 149.00000 418.400000
12205 2252 16070 1 149.00000 418.400000
12206 2253 15346 1 149.00000 418.400000
12206 2254 13922 1 149.00000 418.400000
12206 2255 13998 1 149.00000 418.400000
12206 2256 14352 1 149.00000 418.400000
12207 2257 13241 1 149.00000 418.400000
12207 2258 15034 1 149.00000 418.400000
12207 2259 16590 1 149.00000 418.400000
12207 2260 13812 1 149.00000 418.400000
12208 2261 15199 1 149.00000 418.400000
12208 2262 16674 1 149.00000 418.400000
12208 2263 13372 1 149.00000 418.400000
12208 2264 15477 1 149.00000 418.400000
12209 2265 15076 1 149.00000 418.400000
12209 2266 13585 1 149.00000 418.400000
12209 2267 14117 1 149.00000 418.400000
12209 2268 12655 1 149.00000 418.400000
12407 2269 17061 1 149.00000 418.400000
12210 2270 17061 1 149.00000 418.400000
12210 2271 16911 1 149.00000 418.400000
12210 2272 12453 1 149.00000 418.400000
12211 2273 12942 1 149.00000 418.400000
12211 2274 15372 1 149.00000 418.400000
12211 2275 15653 1 149.00000 418.400000
12212 2276 14765 1 149.00000 418.400000
12212 2277 13254 1 149.00000 418.400000
12212 2278 13751 1 149.00000 418.400000
12212 2279 16835 1 149.00000 418.400000
12213 2280 15794 1 149.00000 418.400000
12213 2281 14185 1 149.00000 418.400000
12213 2282 15957 1 149.00000 418.400000
12213 2283 16121 1 149.00000 418.400000
12214 2284 13882 1 149.00000 418.400000
12214 2285 13897 1 149.00000 418.400000
12214 2286 12539 1 149.00000 418.400000
12214 2287 15371 1 149.00000 418.400000
12215 2288 14757 1 149.00000 418.400000
12215 2289 12896 1 149.00000 418.400000
12215 2290 15302 1 149.00000 418.400000
12216 2291 17051 1 149.00000 418.400000
12216 2292 14970 1 149.00000 418.400000
12216 2293 15088 1 149.00000 418.400000
12216 2294 12465 1 149.00000 418.400000
12217 2295 15869 1 149.00000 418.400000
12218 2296 13033 1 149.00000 418.400000
12218 2297 13022 1 149.00000 418.400000
12218 2298 17698 1 149.00000 418.400000
12219 2299 14178 1 149.00000 418.400000
12220 2300 16842 1 149.00000 418.400000
12220 2301 15434 1 149.00000 418.400000
12220 2302 12446 1 149.00000 418.400000
12220 2303 14269 1 149.00000 418.400000
12221 2304 14152 1 149.00000 418.400000
12222 2305 16736 1 149.00000 418.400000
12222 2306 14497 1 149.00000 418.400000
12222 2307 13483 1 149.00000 418.400000
12222 2308 16332 1 149.00000 418.400000
12223 2309 12773 1 149.00000 418.400000
12223 2310 16051 1 149.00000 418.400000
12223 2311 15653 1 149.00000 418.400000
12223 2312 16150 1 149.00000 418.400000
12224 2313 16894 1 149.00000 418.400000
12224 2314 13761 1 149.00000 418.400000
12224 2315 14129 1 149.00000 418.400000
12224 2316 15708 1 149.00000 418.400000
12225 2317 16759 1 149.00000 418.400000
12225 2318 16786 1 149.00000 418.400000
12225 2319 13789 1 149.00000 418.400000
12225 2320 13001 1 149.00000 418.400000
12226 2321 14590 1 149.00000 418.400000
12226 2322 15232 1 149.00000 418.400000
12226 2323 15809 1 149.00000 418.400000
12227 2324 17398 1 149.00000 418.400000
12227 2325 15386 1 149.00000 418.400000
12228 2326 13844 1 149.00000 418.400000
12228 2327 13491 1 149.00000 418.400000
12228 2328 12283 1 149.00000 418.400000
12228 2329 14329 1 149.00000 418.400000
12229 2330 15033 1 149.00000 418.400000
12229 2331 17045 1 149.00000 418.400000
14176 2332 15033 1 149.00000 418.400000
12230 2333 12677 1 149.00000 418.400000
12230 2334 12502 1 149.00000 418.400000
12230 2335 14766 1 149.00000 418.400000
12230 2336 15223 1 149.00000 418.400000
15423 2337 15880 1 149.00000 418.400000
12032 2338 12231 1 149.00000 418.400000
15880 2339 16746 1 149.00000 418.400000
12231 2340 15880 1 149.00000 418.400000
12232 2341 15624 1 149.00000 418.400000
12748 2342 15035 1 149.00000 418.400000
12232 2343 15035 1 149.00000 418.400000
12233 2344 12885 1 149.00000 418.400000
12233 2345 13620 1 149.00000 418.400000
12233 2346 16691 1 149.00000 418.400000
12233 2347 15625 1 149.00000 418.400000
12234 2348 13823 1 149.00000 418.400000
12234 2349 16519 1 149.00000 418.400000
12235 2350 13285 1 149.00000 418.400000
12235 2351 14753 1 149.00000 418.400000
13285 2352 15977 1 149.00000 418.400000
12235 2353 15861 1 149.00000 418.400000
12236 2354 16600 1 149.00000 418.400000
12236 2355 16776 1 149.00000 418.400000
12236 2356 13212 1 149.00000 418.400000
12236 2357 14062 1 149.00000 418.400000
12237 2358 13440 1 149.00000 418.400000
12237 2359 14506 1 149.00000 418.400000
12237 2360 14677 1 149.00000 418.400000
12237 2361 15163 1 149.00000 418.400000
12238 2362 13761 1 149.00000 418.400000
12238 2363 15208 1 149.00000 418.400000
12238 2364 15269 1 149.00000 418.400000
12238 2365 12559 1 149.00000 418.400000
12239 2366 13930 1 149.00000 418.400000
12239 2367 15779 1 149.00000 418.400000
12239 2368 14032 1 149.00000 418.400000
12239 2369 13761 1 149.00000 418.400000
12240 2370 15341 1 149.00000 418.400000
12240 2371 14914 1 149.00000 418.400000
12240 2372 13632 1 149.00000 418.400000
12240 2373 16382 1 149.00000 418.400000
12241 2374 15303 1 149.00000 418.400000
12241 2375 12856 1 149.00000 418.400000
12241 2376 15306 1 149.00000 418.400000
12241 2377 14147 1 149.00000 418.400000
12242 2378 12246 1 149.00000 418.400000
12242 2379 14704 1 149.00000 418.400000
12242 2380 13616 1 149.00000 418.400000
12242 2381 13668 1 149.00000 418.400000
12243 2382 15176 1 149.00000 418.400000
12243 2383 14760 1 149.00000 418.400000
12243 2384 16868 1 149.00000 418.400000
12243 2385 13377 1 149.00000 418.400000
12244 2386 15404 1 149.00000 418.400000
12244 2387 14539 1 149.00000 418.400000
12244 2388 13191 1 149.00000 418.400000
12244 2389 17171 1 149.00000 418.400000
12245 2390 16209 1 149.00000 418.400000
12245 2391 14585 1 149.00000 418.400000
12245 2392 15640 1 149.00000 418.400000
12245 2393 15341 1 149.00000 418.400000
12246 2394 13411 1 149.00000 418.400000
12246 2395 17031 1 149.00000 418.400000
12246 2396 12468 1 149.00000 418.400000
16428 2397 17031 1 149.00000 418.400000
12247 2398 16507 1 149.00000 418.400000
12247 2399 15707 1 149.00000 418.400000
12247 2400 12292 1 149.00000 418.400000
14460 2401 16507 1 149.00000 418.400000
12248 2402 16606 1 149.00000 418.400000
12248 2403 15294 1 149.00000 418.400000
12248 2404 12470 1 149.00000 418.400000
12248 2405 13040 1 149.00000 418.400000
12249 2406 17012 1 149.00000 418.400000
12249 2407 16337 1 149.00000 418.400000
12249 2408 13669 1 149.00000 418.400000
12249 2409 16579 1 149.00000 418.400000
12250 2410 13831 1 149.00000 418.400000
12250 2411 16378 1 149.00000 418.400000
12250 2412 14310 1 149.00000 418.400000
12251 2413 17115 1 149.00000 418.400000
12251 2414 15780 1 149.00000 418.400000
12251 2415 15628 1 149.00000 418.400000
12251 2416 15329 1 149.00000 418.400000
12252 2417 13299 1 149.00000 418.400000
12252 2418 15967 1 149.00000 418.400000
12252 2419 17602 1 149.00000 418.400000
12252 2420 13382 1 149.00000 418.400000
12253 2421 15431 1 149.00000 418.400000
12253 2422 14365 1 149.00000 418.400000
12253 2423 14531 1 149.00000 418.400000
12253 2424 16083 1 149.00000 418.400000
12254 2425 15026 1 149.00000 418.400000
12254 2426 13009 1 149.00000 418.400000
12254 2427 16157 1 149.00000 418.400000
12254 2428 12331 1 149.00000 418.400000
11952 2429 12255 1 149.00000 418.400000
12255 2430 16631 1 149.00000 418.400000
12256 2431 17455 1 149.00000 418.400000
11699 2432 18064 1 149.00000 418.400000
12256 2433 18064 1 149.00000 418.400000
12257 2434 14987 1 149.00000 418.400000
12257 2435 16870 1 149.00000 418.400000
12257 2436 12612 1 149.00000 418.400000
12257 2437 16797 1 149.00000 418.400000
12258 2438 14740 1 149.00000 418.400000
12258 2439 15722 1 149.00000 418.400000
12258 2440 15368 1 149.00000 418.400000
12258 2441 14295 1 149.00000 418.400000
11662 2442 12259 1 149.00000 418.400000
12259 2443 13104 1 149.00000 418.400000
12259 2444 13607 1 149.00000 418.400000
12259 2445 14462 1 149.00000 418.400000
12260 2446 12594 1 149.00000 418.400000
12260 2447 12997 1 149.00000 418.400000
12260 2448 14950 1 149.00000 418.400000
12260 2449 14244 1 149.00000 418.400000
15121 2450 17311 1 149.00000 418.400000
13338 2451 17311 1 149.00000 418.400000
16822 2452 17311 1 149.00000 418.400000
12261 2453 12769 1 149.00000 418.400000
12261 2454 12908 1 149.00000 418.400000
12261 2455 15136 1 149.00000 418.400000
12262 2456 16726 1 149.00000 418.400000
12262 2457 16796 1 149.00000 418.400000
12263 2458 15161 1 149.00000 418.400000
12263 2459 15768 1 149.00000 418.400000
12263 2460 12557 1 149.00000 418.400000
12263 2461 16859 1 149.00000 418.400000
12264 2462 16858 1 149.00000 418.400000
12264 2463 12782 1 149.00000 418.400000
12265 2464 13913 1 149.00000 418.400000
12265 2465 14254 1 149.00000 418.400000
12265 2466 17029 1 149.00000 418.400000
12265 2467 14012 1 149.00000 418.400000
12266 2468 12282 1 149.00000 418.400000
12266 2469 15221 1 149.00000 418.400000
12266 2470 13774 1 149.00000 418.400000
12266 2471 15438 1 149.00000 418.400000
12267 2472 15742 1 149.00000 418.400000
12267 2473 14892 1 149.00000 418.400000
12267 2474 15658 1 149.00000 418.400000
12267 2475 13240 1 149.00000 418.400000
12268 2476 16166 1 149.00000 418.400000
12268 2477 17039 1 149.00000 418.400000
12268 2478 15929 1 149.00000 418.400000
12664 2479 17039 1 149.00000 418.400000
12269 2480 13325 1 149.00000 418.400000
12269 2481 16814 1 149.00000 418.400000
12269 2482 12965 1 149.00000 418.400000
12270 2483 12865 1 149.00000 418.400000
12270 2484 14285 1 149.00000 418.400000
12270 2485 15064 1 149.00000 418.400000
12271 2486 16065 1 149.00000 418.400000
12271 2487 12868 1 149.00000 418.400000
12271 2488 12419 1 149.00000 418.400000
12271 2489 14806 1 149.00000 418.400000
12839 2490 17896 1 149.00000 418.400000
15530 2491 16304 1 149.00000 418.400000
12839 2492 15530 1 149.00000 418.400000
12272 2493 16241 1 149.00000 418.400000
12272 2494 14410 1 149.00000 418.400000
12272 2495 17515 1 149.00000 418.400000
12273 2496 12309 1 149.00000 418.400000
12273 2497 12947 1 149.00000 418.400000
12273 2498 15074 1 149.00000 418.400000
12273 2499 15313 1 149.00000 418.400000
16772 2500 18024 1 149.00000 418.400000
14004 2501 18024 1 149.00000 418.400000
12274 2502 15373 1 149.00000 418.400000
12274 2503 14870 1 149.00000 418.400000
12274 2504 12424 1 149.00000 418.400000
14811 2505 17314 1 149.00000 418.400000
12396 2506 17314 1 149.00000 418.400000
14811 2507 16318 1 149.00000 418.400000
12275 2508 14979 1 149.00000 418.400000
12275 2509 16156 1 149.00000 418.400000
12275 2510 13766 1 149.00000 418.400000
12275 2511 16949 1 149.00000 418.400000
12276 2512 14486 1 149.00000 418.400000
12276 2513 12549 1 149.00000 418.400000
12276 2514 13172 1 149.00000 418.400000
12276 2515 13604 1 149.00000 418.400000
12277 2516 16250 1 149.00000 418.400000
12277 2517 17407 1 149.00000 418.400000
12277 2518 16601 1 149.00000 418.400000
12277 2519 16495 1 149.00000 418.400000
12278 2520 16952 1 149.00000 418.400000
12278 2521 14395 1 149.00000 418.400000
12278 2522 16766 1 149.00000 418.400000
12278 2523 16400 1 149.00000 418.400000
12279 2524 12646 1 149.00000 418.400000
12279 2525 14797 1 149.00000 418.400000
12279 2526 12707 1 149.00000 418.400000
12279 2527 13199 1 149.00000 418.400000
12280 2528 15665 1 149.00000 418.400000
12280 2529 12845 1 149.00000 418.400000
12280 2530 14494 1 149.00000 418.400000
12280 2531 12727 1 149.00000 418.400000
12281 2532 15621 1 149.00000 418.400000
12281 2533 14943 1 149.00000 418.400000
12281 2534 14670 1 149.00000 418.400000
12281 2535 15608 1 149.00000 418.400000
12282 2536 16585 1 149.00000 418.400000
12282 2537 16206 1 149.00000 418.400000
12282 2538 16994 1 149.00000 418.400000
12283 2539 16677 1 149.00000 418.400000
12283 2540 17533 1 149.00000 418.400000
12283 2541 13988 1 149.00000 418.400000
12284 2542 12918 1 149.00000 418.400000
12284 2543 15805 1 149.00000 418.400000
12284 2544 15886 1 149.00000 418.400000
12285 2545 14828 1 149.00000 418.400000
12285 2546 16409 1 149.00000 418.400000
12285 2547 13974 1 149.00000 418.400000
12285 2548 16269 1 149.00000 418.400000
12286 2549 15272 1 149.00000 418.400000
12286 2550 12378 1 149.00000 418.400000
12286 2551 13811 1 149.00000 418.400000
12286 2552 15536 1 149.00000 418.400000
12287 2553 13685 1 149.00000 418.400000
12287 2554 13734 1 149.00000 418.400000
12287 2555 15463 1 149.00000 418.400000
12287 2556 17102 1 149.00000 418.400000
13518 2557 16935 1 149.00000 418.400000
12288 2558 16176 1 149.00000 418.400000
12288 2559 12384 1 149.00000 418.400000
12288 2560 13518 1 149.00000 418.400000
12289 2561 12931 1 149.00000 418.400000
12289 2562 13977 1 149.00000 418.400000
12289 2563 13632 1 149.00000 418.400000
12290 2564 16745 1 149.00000 418.400000
12290 2565 12958 1 149.00000 418.400000
12290 2566 15382 1 149.00000 418.400000
12291 2567 13910 1 149.00000 418.400000
12291 2568 15918 1 149.00000 418.400000
12291 2569 17869 1 149.00000 418.400000
12291 2570 15016 1 149.00000 418.400000
12292 2571 16159 1 149.00000 418.400000
12292 2572 12645 1 149.00000 418.400000
12645 2573 15555 1 149.00000 418.400000
11806 2574 12293 1 149.00000 418.400000
12293 2575 13721 1 149.00000 418.400000
12293 2576 14162 1 149.00000 418.400000
12293 2577 13245 1 149.00000 418.400000
12294 2578 15684 1 149.00000 418.400000
12294 2579 14698 1 149.00000 418.400000
12294 2580 14007 1 149.00000 418.400000
12295 2581 14250 1 149.00000 418.400000
12295 2582 15546 1 149.00000 418.400000
12329 2583 15760 1 149.00000 418.400000
12296 2584 12610 1 149.00000 418.400000
12296 2585 15760 1 149.00000 418.400000
12296 2586 13384 1 149.00000 418.400000
12297 2587 14344 1 149.00000 418.400000
12297 2588 15984 1 149.00000 418.400000
12298 2589 13971 1 149.00000 418.400000
12298 2590 12781 1 149.00000 418.400000
12298 2591 15431 1 149.00000 418.400000
12299 2592 13111 1 149.00000 418.400000
12299 2593 14902 1 149.00000 418.400000
12299 2594 12949 1 149.00000 418.400000
12300 2595 17069 1 149.00000 418.400000
12300 2596 15216 1 149.00000 418.400000
12300 2597 12430 1 149.00000 418.400000
12301 2598 17082 1 149.00000 418.400000
12301 2599 16608 1 149.00000 418.400000
12301 2600 13721 1 149.00000 418.400000
12301 2601 13063 1 149.00000 418.400000
16519 2602 17317 1 149.00000 418.400000
15237 2603 17317 1 149.00000 418.400000
12302 2604 17323 1 149.00000 418.400000
14632 2605 17323 1 149.00000 418.400000
12303 2606 17133 1 149.00000 418.400000
15248 2607 17133 1 149.00000 418.400000
12303 2608 17047 1 149.00000 418.400000
12303 2609 16230 1 149.00000 418.400000
12304 2610 16826 1 149.00000 418.400000
12304 2611 13343 1 149.00000 418.400000
12304 2612 14239 1 149.00000 418.400000
12305 2613 12938 1 149.00000 418.400000
12305 2614 12898 1 149.00000 418.400000
12305 2615 13545 1 149.00000 418.400000
12306 2616 13498 1 149.00000 418.400000
12306 2617 13779 1 149.00000 418.400000
12306 2618 14932 1 149.00000 418.400000
12307 2619 17002 1 149.00000 418.400000
12307 2620 13448 1 149.00000 418.400000
12307 2621 16656 1 149.00000 418.400000
12307 2622 14569 1 149.00000 418.400000
12397 2623 17320 1 149.00000 418.400000
17320 2624 18114 1 149.00000 418.400000
13218 2625 13689 1 149.00000 418.400000
12308 2626 15707 1 149.00000 418.400000
12308 2627 13689 1 149.00000 418.400000
12308 2628 13650 1 149.00000 418.400000
12309 2629 16461 1 149.00000 418.400000
12309 2630 15678 1 149.00000 418.400000
12309 2631 13422 1 149.00000 418.400000
12310 2632 16509 1 149.00000 418.400000
12310 2633 13022 1 149.00000 418.400000
12310 2634 17041 1 149.00000 418.400000
12310 2635 16236 1 149.00000 418.400000
12311 2636 16317 1 149.00000 418.400000
12311 2637 13763 1 149.00000 418.400000
12311 2638 15805 1 149.00000 418.400000
12311 2639 16529 1 149.00000 418.400000
12312 2640 13711 1 149.00000 418.400000
12312 2641 16305 1 149.00000 418.400000
12312 2642 14173 1 149.00000 418.400000
12312 2643 13670 1 149.00000 418.400000
12313 2644 17184 1 149.00000 418.400000
12313 2645 13754 1 149.00000 418.400000
12313 2646 12967 1 149.00000 418.400000
12314 2647 13799 1 149.00000 418.400000
12314 2648 16983 1 149.00000 418.400000
16264 2649 16983 1 149.00000 418.400000
12314 2650 14707 1 149.00000 418.400000
12315 2651 13925 1 149.00000 418.400000
12315 2652 17151 1 149.00000 418.400000
12315 2653 17127 1 149.00000 418.400000
12316 2654 13928 1 149.00000 418.400000
12316 2655 14575 1 149.00000 418.400000
12316 2656 15294 1 149.00000 418.400000
12316 2657 17078 1 149.00000 418.400000
12317 2658 15358 1 149.00000 418.400000
12317 2659 12457 1 149.00000 418.400000
12318 2660 13784 1 149.00000 418.400000
12318 2661 13750 1 149.00000 418.400000
12318 2662 14067 1 149.00000 418.400000
12318 2663 17179 1 149.00000 418.400000
12319 2664 14912 1 149.00000 418.400000
12319 2665 14268 1 149.00000 418.400000
12320 2666 14721 1 149.00000 418.400000
12320 2667 17785 1 149.00000 418.400000
12321 2668 14979 1 149.00000 418.400000
12321 2669 14891 1 149.00000 418.400000
12321 2670 13208 1 149.00000 418.400000
12321 2671 12552 1 149.00000 418.400000
12322 2672 13596 1 149.00000 418.400000
12322 2673 13781 1 149.00000 418.400000
12322 2674 14583 1 149.00000 418.400000
12322 2675 12444 1 149.00000 418.400000
12323 2676 13011 1 149.00000 418.400000
12323 2677 15566 1 149.00000 418.400000
12323 2678 16845 1 149.00000 418.400000
12323 2679 14351 1 149.00000 418.400000
12324 2680 13801 1 149.00000 418.400000
12324 2681 13890 1 149.00000 418.400000
12324 2682 16301 1 149.00000 418.400000
15138 2683 16301 1 149.00000 418.400000
12325 2684 12777 1 149.00000 418.400000
12325 2685 12940 1 149.00000 418.400000
12325 2686 13586 1 149.00000 418.400000
12325 2687 16720 1 149.00000 418.400000
12326 2688 16262 1 149.00000 418.400000
12326 2689 16300 1 149.00000 418.400000
12326 2690 13925 1 149.00000 418.400000
12326 2691 14296 1 149.00000 418.400000
12327 2692 15837 1 149.00000 418.400000
12327 2693 14673 1 149.00000 418.400000
12327 2694 16893 1 149.00000 418.400000
12327 2695 13186 1 149.00000 418.400000
12328 2696 13624 1 149.00000 418.400000
12328 2697 12635 1 149.00000 418.400000
12328 2698 15409 1 149.00000 418.400000
12329 2699 15964 1 149.00000 418.400000
12329 2700 17770 1 149.00000 418.400000
12329 2701 13951 1 149.00000 418.400000
12330 2702 16261 1 149.00000 418.400000
12330 2703 14751 1 149.00000 418.400000
12330 2704 13930 1 149.00000 418.400000
12330 2705 14699 1 149.00000 418.400000
12331 2706 13627 1 149.00000 418.400000
12331 2707 12498 1 149.00000 418.400000
12331 2708 16796 1 149.00000 418.400000
12332 2709 13598 1 149.00000 418.400000
12332 2710 16925 1 149.00000 418.400000
12332 2711 16960 1 149.00000 418.400000
12332 2712 13468 1 149.00000 418.400000
12333 2713 14206 1 149.00000 418.400000
12333 2714 13953 1 149.00000 418.400000
12333 2715 12745 1 149.00000 418.400000
12333 2716 13242 1 149.00000 418.400000
12334 2717 17077 1 149.00000 418.400000
12334 2718 15111 1 149.00000 418.400000
12334 2719 13524 1 149.00000 418.400000
12334 2720 15415 1 149.00000 418.400000
12335 2721 17191 1 149.00000 418.400000
12335 2722 14965 1 149.00000 418.400000
12335 2723 12668 1 149.00000 418.400000
12335 2724 16668 1 149.00000 418.400000
12336 2725 17112 1 149.00000 418.400000
12336 2726 14048 1 149.00000 418.400000
12336 2727 15802 1 149.00000 418.400000
12336 2728 13773 1 149.00000 418.400000
12337 2729 16129 1 149.00000 418.400000
12337 2730 13537 1 149.00000 418.400000
12337 2731 13567 1 149.00000 418.400000
12338 2732 12978 1 149.00000 418.400000
12338 2733 14485 1 149.00000 418.400000
12338 2734 15087 1 149.00000 418.400000
12339 2735 13516 1 149.00000 418.400000
12339 2736 13926 1 149.00000 418.400000
12339 2737 16552 1 149.00000 418.400000
12340 2738 12562 1 149.00000 418.400000
12340 2739 14042 1 149.00000 418.400000
12340 2740 15314 1 149.00000 418.400000
12340 2741 15276 1 149.00000 418.400000
12341 2742 16633 1 149.00000 418.400000
12341 2743 17144 1 149.00000 418.400000
12341 2744 16250 1 149.00000 418.400000
12341 2745 12931 1 149.00000 418.400000
12342 2746 13990 1 149.00000 418.400000
12342 2747 17779 1 149.00000 418.400000
12342 2748 17130 1 149.00000 418.400000
12343 2749 13367 1 149.00000 418.400000
12343 2750 14855 1 149.00000 418.400000
12343 2751 16316 1 149.00000 418.400000
12343 2752 13002 1 149.00000 418.400000
12344 2753 14521 1 149.00000 418.400000
15069 2754 16227 1 149.00000 418.400000
12344 2755 15120 1 149.00000 418.400000
12344 2756 15069 1 149.00000 418.400000
12345 2757 12763 1 149.00000 418.400000
12345 2758 13475 1 149.00000 418.400000
12345 2759 14020 1 149.00000 418.400000
12345 2760 13777 1 149.00000 418.400000
12346 2761 15734 1 149.00000 418.400000
12346 2762 15046 1 149.00000 418.400000
12346 2763 14611 1 149.00000 418.400000
12347 2764 13153 1 149.00000 418.400000
12347 2765 15990 1 149.00000 418.400000
12347 2766 14439 1 149.00000 418.400000
12347 2767 14945 1 149.00000 418.400000
12348 2768 16467 1 149.00000 418.400000
12348 2769 16383 1 149.00000 418.400000
12348 2770 12393 1 149.00000 418.400000
12349 2771 17121 1 149.00000 418.400000
14089 2772 14588 1 149.00000 418.400000
12349 2773 14089 1 149.00000 418.400000
12349 2774 15492 1 149.00000 418.400000
12350 2775 15480 1 149.00000 418.400000
12350 2776 16049 1 149.00000 418.400000
12351 2777 16044 1 149.00000 418.400000
12351 2778 12849 1 149.00000 418.400000
12351 2779 16259 1 149.00000 418.400000
12352 2780 17971 1 149.00000 418.400000
12352 2781 13729 1 149.00000 418.400000
12352 2782 14850 1 149.00000 418.400000
12352 2783 14952 1 149.00000 418.400000
12353 2784 16193 1 149.00000 418.400000
12353 2785 14702 1 149.00000 418.400000
12353 2786 14606 1 149.00000 418.400000
12353 2787 13647 1 149.00000 418.400000
12354 2788 14377 1 149.00000 418.400000
12354 2789 13141 1 149.00000 418.400000
12354 2790 16374 1 149.00000 418.400000
12355 2791 12980 1 149.00000 418.400000
12355 2792 14426 1 149.00000 418.400000
12980 2793 13332 1 149.00000 418.400000
12356 2794 17193 1 149.00000 418.400000
12356 2795 16017 1 149.00000 418.400000
12356 2796 15429 1 149.00000 418.400000
14396 2797 16017 1 149.00000 418.400000
12357 2798 16779 1 149.00000 418.400000
12357 2799 16374 1 149.00000 418.400000
12358 2800 14718 1 149.00000 418.400000
12358 2801 15486 1 149.00000 418.400000
13314 2802 14718 1 149.00000 418.400000
12359 2803 14964 1 149.00000 418.400000
12359 2804 15295 1 149.00000 418.400000
12359 2805 14932 1 149.00000 418.400000
12360 2806 13086 1 149.00000 418.400000
12360 2807 14668 1 149.00000 418.400000
12360 2808 16283 1 149.00000 418.400000
12360 2809 13436 1 149.00000 418.400000
12361 2810 14536 1 149.00000 418.400000
12361 2811 14759 1 149.00000 418.400000
12361 2812 15994 1 149.00000 418.400000
12361 2813 15535 1 149.00000 418.400000
12362 2814 15339 1 149.00000 418.400000
14195 2815 14259 1 149.00000 418.400000
12362 2816 16478 1 149.00000 418.400000
11715 2817 14195 1 149.00000 418.400000
12363 2818 12649 1 149.00000 418.400000
12363 2819 14349 1 149.00000 418.400000
12363 2820 16629 1 149.00000 418.400000
12363 2821 13979 1 149.00000 418.400000
12364 2822 16466 1 149.00000 418.400000
12364 2823 17177 1 149.00000 418.400000
12364 2824 16705 1 149.00000 418.400000
12365 2825 16152 1 149.00000 418.400000
12365 2826 17080 1 149.00000 418.400000
12365 2827 14801 1 149.00000 418.400000
12365 2828 17042 1 149.00000 418.400000
12366 2829 16843 1 149.00000 418.400000
12366 2830 16659 1 149.00000 418.400000
12366 2831 14379 1 149.00000 418.400000
12367 2832 12549 1 149.00000 418.400000
12367 2833 12943 1 149.00000 418.400000
12368 2834 12395 1 149.00000 418.400000
12368 2835 15077 1 149.00000 418.400000
12368 2836 12820 1 149.00000 418.400000
12369 2837 15959 1 149.00000 418.400000
12369 2838 16122 1 149.00000 418.400000
12369 2839 15940 1 149.00000 418.400000
12370 2840 13335 1 149.00000 418.400000
12370 2841 15157 1 149.00000 418.400000
12370 2842 13324 1 149.00000 418.400000
12370 2843 12908 1 149.00000 418.400000
12371 2844 14575 1 149.00000 418.400000
12371 2845 12613 1 149.00000 418.400000
12371 2846 15090 1 149.00000 418.400000
12371 2847 13902 1 149.00000 418.400000
12372 2848 14294 1 149.00000 418.400000
12372 2849 15717 1 149.00000 418.400000
12372 2850 12581 1 149.00000 418.400000
12373 2851 13175 1 149.00000 418.400000
12373 2852 13107 1 149.00000 418.400000
12373 2853 14541 1 149.00000 418.400000
12374 2854 16492 1 149.00000 418.400000
12374 2855 14242 1 149.00000 418.400000
12374 2856 14544 1 149.00000 418.400000
12375 2857 12623 1 149.00000 418.400000
12376 2858 14079 1 149.00000 418.400000
12376 2859 13839 1 149.00000 418.400000
12376 2860 15849 1 149.00000 418.400000
14079 2861 15727 1 149.00000 418.400000
12377 2862 14041 1 149.00000 418.400000
12377 2863 16957 1 149.00000 418.400000
12378 2864 12911 1 149.00000 418.400000
12378 2865 12998 1 149.00000 418.400000
12998 2866 16058 1 149.00000 418.400000
12379 2867 15742 1 149.00000 418.400000
12379 2868 16871 1 149.00000 418.400000
12379 2869 14817 1 149.00000 418.400000
12379 2870 13822 1 149.00000 418.400000
12380 2871 16327 1 149.00000 418.400000
12380 2872 13233 1 149.00000 418.400000
12380 2873 14652 1 149.00000 418.400000
12381 2874 14565 1 149.00000 418.400000
12381 2875 14044 1 149.00000 418.400000
12381 2876 14705 1 149.00000 418.400000
12382 2877 14218 1 149.00000 418.400000
12382 2878 12453 1 149.00000 418.400000
12382 2879 12882 1 149.00000 418.400000
12383 2880 12484 1 149.00000 418.400000
12383 2881 14805 1 149.00000 418.400000
12383 2882 13280 1 149.00000 418.400000
12383 2883 13053 1 149.00000 418.400000
12384 2884 16196 1 149.00000 418.400000
12384 2885 13870 1 149.00000 418.400000
12385 2886 16121 1 149.00000 418.400000
12385 2887 17150 1 149.00000 418.400000
12385 2888 14332 1 149.00000 418.400000
12386 2889 14981 1 149.00000 418.400000
12386 2890 15502 1 149.00000 418.400000
12386 2891 15203 1 149.00000 418.400000
12387 2892 13570 1 149.00000 418.400000
12387 2893 16696 1 149.00000 418.400000
12694 2894 15042 1 149.00000 418.400000
12387 2895 15042 1 149.00000 418.400000
12388 2896 13446 1 149.00000 418.400000
12388 2897 13484 1 149.00000 418.400000
12388 2898 15458 1 149.00000 418.400000
12388 2899 14188 1 149.00000 418.400000
12389 2900 15525 1 149.00000 418.400000
12389 2901 13890 1 149.00000 418.400000
12389 2902 15335 1 149.00000 418.400000
12390 2903 13399 1 149.00000 418.400000
12390 2904 16655 1 149.00000 418.400000
12390 2905 16193 1 149.00000 418.400000
12391 2906 14176 1 149.00000 418.400000
13776 2907 16716 1 149.00000 418.400000
12391 2908 16716 1 149.00000 418.400000
12392 2909 15609 1 149.00000 418.400000
12392 2910 14829 1 149.00000 418.400000
12392 2911 14843 1 149.00000 418.400000
12393 2912 15563 1 149.00000 418.400000
12393 2913 15409 1 149.00000 418.400000
12393 2914 16916 1 149.00000 418.400000
12394 2915 16707 1 149.00000 418.400000
12394 2916 16205 1 149.00000 418.400000
12394 2917 12902 1 149.00000 418.400000
12395 2918 15544 1 149.00000 418.400000
12395 2919 12525 1 149.00000 418.400000
12395 2920 17152 1 149.00000 418.400000
12396 2921 16772 1 149.00000 418.400000
12396 2922 15113 1 149.00000 418.400000
12398 2923 17181 1 149.00000 418.400000
12398 2924 16160 1 149.00000 418.400000
12398 2925 16968 1 149.00000 418.400000
12398 2926 16624 1 149.00000 418.400000
12399 2927 16353 1 149.00000 418.400000
12399 2928 16935 1 149.00000 418.400000
12399 2929 16731 1 149.00000 418.400000
12399 2930 16103 1 149.00000 418.400000
12400 2931 14537 1 149.00000 418.400000
12400 2932 13313 1 149.00000 418.400000
12400 2933 14042 1 149.00000 418.400000
12401 2934 17000 1 149.00000 418.400000
12401 2935 12457 1 149.00000 418.400000
12401 2936 14570 1 149.00000 418.400000
12402 2937 13097 1 149.00000 418.400000
12402 2938 15506 1 149.00000 418.400000
12402 2939 15481 1 149.00000 418.400000
12403 2940 17008 1 149.00000 418.400000
12403 2941 12743 1 149.00000 418.400000
11871 2942 12403 1 149.00000 418.400000
12743 2943 14545 1 149.00000 418.400000
12404 2944 14323 1 149.00000 418.400000
12404 2945 15255 1 149.00000 418.400000
12404 2946 16631 1 149.00000 418.400000
12405 2947 16076 1 149.00000 418.400000
12405 2948 13691 1 149.00000 418.400000
12405 2949 16251 1 149.00000 418.400000
12405 2950 16892 1 149.00000 418.400000
16969 2951 17063 1 149.00000 418.400000
16969 2952 17536 1 149.00000 418.400000
12406 2953 16969 1 149.00000 418.400000
14700 2954 16969 1 149.00000 418.400000
12407 2955 15470 1 149.00000 418.400000
12407 2956 16857 1 149.00000 418.400000
12407 2957 14291 1 149.00000 418.400000
12408 2958 15723 1 149.00000 418.400000
12408 2959 16135 1 149.00000 418.400000
12408 2960 15073 1 149.00000 418.400000
12408 2961 16458 1 149.00000 418.400000
12409 2962 13618 1 149.00000 418.400000
12409 2963 16793 1 149.00000 418.400000
12409 2964 13491 1 149.00000 418.400000
12409 2965 16054 1 149.00000 418.400000
12410 2966 14082 1 149.00000 418.400000
12410 2967 13531 1 149.00000 418.400000
12410 2968 14999 1 149.00000 418.400000
12410 2969 16371 1 149.00000 418.400000
12411 2970 16276 1 149.00000 418.400000
12411 2971 12975 1 149.00000 418.400000
12653 2972 12975 1 149.00000 418.400000
12411 2973 14446 1 149.00000 418.400000
12412 2974 12666 1 149.00000 418.400000
12412 2975 13663 1 149.00000 418.400000
12412 2976 14062 1 149.00000 418.400000
12412 2977 14841 1 149.00000 418.400000
12413 2978 14903 1 149.00000 418.400000
12413 2979 13417 1 149.00000 418.400000
12413 2980 17038 1 149.00000 418.400000
12413 2981 16973 1 149.00000 418.400000
12414 2982 14232 1 149.00000 418.400000
12414 2983 13452 1 149.00000 418.400000
12414 2984 13712 1 149.00000 418.400000
12414 2985 13101 1 149.00000 418.400000
12415 2986 17716 1 149.00000 418.400000
12415 2987 15500 1 149.00000 418.400000
12415 2988 15230 1 149.00000 418.400000
12302 2989 17067 1 149.00000 418.400000
12302 2990 17809 1 149.00000 418.400000
15003 2991 17323 1 149.00000 418.400000
15662 2992 16253 1 149.00000 418.400000
12696 2993 16253 1 149.00000 418.400000
13103 2994 16253 1 149.00000 418.400000
12416 2995 16253 1 149.00000 418.400000
12417 2996 15893 1 149.00000 418.400000
12417 2997 13080 1 149.00000 418.400000
12418 2998 15412 1 149.00000 418.400000
12418 2999 17074 1 149.00000 418.400000
12418 3000 15658 1 149.00000 418.400000
12418 3001 12970 1 149.00000 418.400000
12419 3002 12589 1 149.00000 418.400000
12419 3003 15261 1 149.00000 418.400000
12420 3004 14233 1 149.00000 418.400000
12420 3005 13350 1 149.00000 418.400000
12420 3006 14608 1 149.00000 418.400000
12421 3007 16780 1 149.00000 418.400000
14090 3008 14279 1 149.00000 418.400000
12421 3009 14888 1 149.00000 418.400000
12421 3010 14279 1 149.00000 418.400000
12423 3011 17183 1 149.00000 418.400000
12423 3012 13735 1 149.00000 418.400000
12423 3013 17161 1 149.00000 418.400000
12423 3014 16463 1 149.00000 418.400000
12424 3015 13002 1 149.00000 418.400000
12424 3016 17101 1 149.00000 418.400000
12424 3017 14750 1 149.00000 418.400000
12425 3018 14833 1 149.00000 418.400000
12425 3019 15420 1 149.00000 418.400000
12425 3020 14638 1 149.00000 418.400000
12425 3021 16620 1 149.00000 418.400000
12426 3022 14529 1 149.00000 418.400000
12426 3023 12546 1 149.00000 418.400000
12426 3024 15808 1 149.00000 418.400000
12427 3025 14300 1 149.00000 418.400000
12427 3026 12736 1 149.00000 418.400000
12427 3027 16976 1 149.00000 418.400000
12427 3028 14292 1 149.00000 418.400000
12428 3029 16368 1 149.00000 418.400000
12428 3030 16086 1 149.00000 418.400000
12428 3031 12901 1 149.00000 418.400000
12428 3032 12616 1 149.00000 418.400000
12429 3033 16550 1 149.00000 418.400000
12429 3034 13165 1 149.00000 418.400000
12429 3035 14054 1 149.00000 418.400000
12430 3036 16119 1 149.00000 418.400000
12430 3037 13195 1 149.00000 418.400000
12430 3038 12527 1 149.00000 418.400000
12431 3039 17857 1 149.00000 418.400000
12431 3040 15362 1 149.00000 418.400000
12431 3041 16375 1 149.00000 418.400000
12432 3042 14996 1 149.00000 418.400000
12433 3043 16420 1 149.00000 418.400000
12433 3044 15587 1 149.00000 418.400000
12433 3045 13297 1 149.00000 418.400000
15749 3046 16420 1 149.00000 418.400000
12434 3047 17094 1 149.00000 418.400000
12434 3048 17134 1 149.00000 418.400000
12435 3049 14668 1 149.00000 418.400000
12435 3050 16282 1 149.00000 418.400000
12435 3051 13360 1 149.00000 418.400000
12435 3052 16844 1 149.00000 418.400000
12436 3053 16131 1 149.00000 418.400000
11647 3054 12436 1 149.00000 418.400000
12436 3055 15596 1 149.00000 418.400000
12039 3056 13243 1 149.00000 418.400000
11891 3057 15674 1 149.00000 418.400000
12438 3058 14715 1 149.00000 418.400000
12438 3059 16676 1 149.00000 418.400000
12438 3060 16385 1 149.00000 418.400000
12439 3061 13626 1 149.00000 418.400000
12439 3062 16997 1 149.00000 418.400000
12440 3063 12670 1 149.00000 418.400000
12440 3064 14263 1 149.00000 418.400000
12440 3065 14092 1 149.00000 418.400000
12440 3066 16887 1 149.00000 418.400000
12441 3067 14609 1 149.00000 418.400000
12441 3068 15083 1 149.00000 418.400000
12441 3069 17152 1 149.00000 418.400000
12442 3070 14919 1 149.00000 418.400000
12442 3071 17845 1 149.00000 418.400000
12442 3072 15507 1 149.00000 418.400000
12442 3073 16957 1 149.00000 418.400000
12443 3074 13330 1 149.00000 418.400000
12443 3075 16476 1 149.00000 418.400000
12443 3076 14463 1 149.00000 418.400000
12444 3077 13871 1 149.00000 418.400000
12444 3078 16727 1 149.00000 418.400000
12444 3079 16055 1 149.00000 418.400000
12445 3080 16565 1 149.00000 418.400000
12445 3081 17039 1 149.00000 418.400000
12446 3082 16741 1 149.00000 418.400000
12446 3083 16847 1 149.00000 418.400000
13883 3084 15261 1 149.00000 418.400000
12447 3085 16559 1 149.00000 418.400000
12447 3086 13883 1 149.00000 418.400000
12448 3087 14017 1 149.00000 418.400000
12448 3088 12840 1 149.00000 418.400000
12448 3089 15114 1 149.00000 418.400000
12449 3090 13527 1 149.00000 418.400000
12449 3091 13276 1 149.00000 418.400000
12449 3092 14530 1 149.00000 418.400000
12449 3093 12492 1 149.00000 418.400000
12450 3094 15170 1 149.00000 418.400000
12450 3095 13106 1 149.00000 418.400000
12450 3096 15279 1 149.00000 418.400000
12451 3097 14085 1 149.00000 418.400000
12451 3098 14181 1 149.00000 418.400000
12451 3099 16324 1 149.00000 418.400000
12452 3100 16601 1 149.00000 418.400000
12452 3101 14893 1 149.00000 418.400000
12453 3102 14914 1 149.00000 418.400000
12453 3103 13279 1 149.00000 418.400000
15174 3104 17329 1 149.00000 418.400000
15889 3105 17329 1 149.00000 418.400000
13994 3106 17329 1 149.00000 418.400000
15867 3107 16785 1 149.00000 418.400000
12807 3108 15867 1 149.00000 418.400000
12454 3109 17335 1 149.00000 418.400000
12455 3110 16939 1 149.00000 418.400000
12455 3111 13839 1 149.00000 418.400000
12455 3112 14656 1 149.00000 418.400000
12456 3113 14563 1 149.00000 418.400000
12456 3114 17070 1 149.00000 418.400000
12456 3115 13212 1 149.00000 418.400000
12456 3116 16989 1 149.00000 418.400000
12457 3117 13526 1 149.00000 418.400000
12457 3118 14566 1 149.00000 418.400000
12458 3119 17737 1 149.00000 418.400000
12458 3120 15274 1 149.00000 418.400000
12458 3121 15869 1 149.00000 418.400000
12459 3122 15246 1 149.00000 418.400000
12459 3123 15395 1 149.00000 418.400000
12459 3124 15782 1 149.00000 418.400000
12459 3125 15888 1 149.00000 418.400000
12460 3126 15008 1 149.00000 418.400000
12460 3127 16168 1 149.00000 418.400000
12460 3128 17002 1 149.00000 418.400000
12460 3129 17086 1 149.00000 418.400000
12461 3130 14922 1 149.00000 418.400000
12461 3131 13939 1 149.00000 418.400000
12461 3132 12546 1 149.00000 418.400000
14455 3133 16172 1 149.00000 418.400000
12462 3134 14455 1 149.00000 418.400000
14455 3135 15610 1 149.00000 418.400000
12462 3136 16072 1 149.00000 418.400000
12463 3137 16491 1 149.00000 418.400000
12463 3138 15648 1 149.00000 418.400000
12463 3139 13859 1 149.00000 418.400000
12464 3140 16708 1 149.00000 418.400000
12464 3141 15842 1 149.00000 418.400000
12464 3142 13440 1 149.00000 418.400000
12464 3143 14307 1 149.00000 418.400000
12465 3144 14465 1 149.00000 418.400000
12465 3145 15273 1 149.00000 418.400000
12465 3146 13708 1 149.00000 418.400000
16162 3147 17332 1 149.00000 418.400000
12466 3148 17560 1 149.00000 418.400000
12466 3149 16384 1 149.00000 418.400000
12467 3150 14291 1 149.00000 418.400000
12467 3151 13699 1 149.00000 418.400000
12467 3152 12516 1 149.00000 418.400000
12467 3153 13354 1 149.00000 418.400000
12468 3154 16136 1 149.00000 418.400000
12468 3155 16665 1 149.00000 418.400000
12468 3156 13616 1 149.00000 418.400000
12469 3157 14253 1 149.00000 418.400000
12469 3158 16328 1 149.00000 418.400000
12469 3159 16681 1 149.00000 418.400000
12469 3160 15527 1 149.00000 418.400000
17149 3161 17335 1 149.00000 418.400000
12470 3162 16940 1 149.00000 418.400000
12470 3163 15476 1 149.00000 418.400000
12470 3164 12817 1 149.00000 418.400000
12471 3165 14207 1 149.00000 418.400000
12471 3166 14174 1 149.00000 418.400000
12471 3167 12509 1 149.00000 418.400000
12471 3168 12765 1 149.00000 418.400000
12472 3169 15201 1 149.00000 418.400000
12472 3170 15426 1 149.00000 418.400000
12472 3171 13309 1 149.00000 418.400000
12472 3172 13319 1 149.00000 418.400000
12473 3173 14041 1 149.00000 418.400000
12473 3174 14713 1 149.00000 418.400000
12473 3175 13298 1 149.00000 418.400000
12473 3176 13228 1 149.00000 418.400000
12474 3177 13862 1 149.00000 418.400000
12474 3178 15369 1 149.00000 418.400000
12474 3179 14247 1 149.00000 418.400000
12474 3180 13094 1 149.00000 418.400000
12475 3181 13738 1 149.00000 418.400000
12475 3182 13942 1 149.00000 418.400000
12475 3183 15931 1 149.00000 418.400000
15084 3184 17200 1 149.00000 418.400000
12476 3185 16837 1 149.00000 418.400000
12476 3186 13249 1 149.00000 418.400000
12476 3187 14846 1 149.00000 418.400000
12477 3188 15114 1 149.00000 418.400000
12477 3189 17584 1 149.00000 418.400000
12478 3190 14722 1 149.00000 418.400000
12478 3191 14158 1 149.00000 418.400000
12478 3192 16441 1 149.00000 418.400000
12478 3193 12742 1 149.00000 418.400000
12479 3194 16729 1 149.00000 418.400000
12479 3195 17968 1 149.00000 418.400000
12659 3196 16729 1 149.00000 418.400000
12479 3197 14377 1 149.00000 418.400000
12480 3198 16982 1 149.00000 418.400000
12480 3199 13727 1 149.00000 418.400000
12480 3200 13920 1 149.00000 418.400000
12480 3201 17193 1 149.00000 418.400000
12481 3202 14210 1 149.00000 418.400000
12481 3203 13859 1 149.00000 418.400000
12481 3204 15410 1 149.00000 418.400000
12481 3205 14793 1 149.00000 418.400000
12482 3206 16478 1 149.00000 418.400000
12482 3207 16549 1 149.00000 418.400000
12482 3208 14521 1 149.00000 418.400000
12483 3209 15619 1 149.00000 418.400000
12483 3210 14631 1 149.00000 418.400000
12483 3211 16323 1 149.00000 418.400000
12483 3212 15636 1 149.00000 418.400000
12484 3213 12539 1 149.00000 418.400000
12570 3214 15402 1 149.00000 418.400000
12484 3215 12570 1 149.00000 418.400000
12485 3216 13362 1 149.00000 418.400000
12485 3217 12498 1 149.00000 418.400000
12485 3218 15026 1 149.00000 418.400000
12486 3219 17389 1 149.00000 418.400000
12486 3220 14895 1 149.00000 418.400000
12486 3221 17944 1 149.00000 418.400000
12486 3222 12498 1 149.00000 418.400000
17686 3223 18029 1 149.00000 418.400000
16512 3224 18029 1 149.00000 418.400000
12487 3225 16835 1 149.00000 418.400000
12487 3226 14534 1 149.00000 418.400000
12487 3227 13551 1 149.00000 418.400000
12487 3228 13914 1 149.00000 418.400000
12488 3229 15969 1 149.00000 418.400000
12488 3230 13951 1 149.00000 418.400000
12488 3231 12893 1 149.00000 418.400000
12488 3232 12772 1 149.00000 418.400000
12489 3233 13363 1 149.00000 418.400000
11960 3234 12784 1 149.00000 418.400000
11960 3235 14284 1 149.00000 418.400000
12490 3236 13469 1 149.00000 418.400000
12490 3237 15641 1 149.00000 418.400000
12490 3238 17197 1 149.00000 418.400000
12490 3239 13556 1 149.00000 418.400000
12491 3240 14275 1 149.00000 418.400000
12491 3241 15513 1 149.00000 418.400000
12491 3242 16533 1 149.00000 418.400000
12492 3243 16079 1 149.00000 418.400000
12492 3244 13827 1 149.00000 418.400000
12492 3245 13194 1 149.00000 418.400000
12493 3246 13319 1 149.00000 418.400000
12493 3247 14017 1 149.00000 418.400000
12477 3248 12493 1 149.00000 418.400000
12493 3249 12703 1 149.00000 418.400000
12494 3250 12685 1 149.00000 418.400000
12494 3251 14666 1 149.00000 418.400000
12494 3252 14220 1 149.00000 418.400000
12495 3253 13290 1 149.00000 418.400000
12495 3254 16274 1 149.00000 418.400000
12495 3255 13372 1 149.00000 418.400000
12496 3256 16797 1 149.00000 418.400000
12496 3257 14639 1 149.00000 418.400000
12496 3258 15999 1 149.00000 418.400000
12496 3259 12612 1 149.00000 418.400000
12497 3260 14179 1 149.00000 418.400000
12497 3261 14083 1 149.00000 418.400000
12497 3262 13951 1 149.00000 418.400000
12497 3263 14297 1 149.00000 418.400000
12498 3264 14582 1 149.00000 418.400000
12499 3265 13440 1 149.00000 418.400000
12499 3266 12881 1 149.00000 418.400000
12499 3267 13308 1 149.00000 418.400000
12499 3268 13783 1 149.00000 418.400000
12500 3269 16109 1 149.00000 418.400000
12500 3270 13999 1 149.00000 418.400000
12500 3271 12870 1 149.00000 418.400000
12500 3272 14907 1 149.00000 418.400000
12501 3273 13727 1 149.00000 418.400000
12501 3274 12621 1 149.00000 418.400000
12501 3275 17165 1 149.00000 418.400000
12501 3276 16237 1 149.00000 418.400000
12502 3277 15965 1 149.00000 418.400000
12502 3278 15410 1 149.00000 418.400000
12503 3279 12702 1 149.00000 418.400000
12503 3280 15874 1 149.00000 418.400000
12503 3281 13914 1 149.00000 418.400000
12504 3282 17083 1 149.00000 418.400000
12504 3283 17177 1 149.00000 418.400000
12505 3284 12781 1 149.00000 418.400000
12505 3285 15334 1 149.00000 418.400000
12506 3286 13504 1 149.00000 418.400000
12506 3287 16285 1 149.00000 418.400000
12507 3288 13956 1 149.00000 418.400000
12507 3289 13720 1 149.00000 418.400000
12507 3290 13563 1 149.00000 418.400000
13237 3291 13857 1 149.00000 418.400000
12508 3292 13834 1 149.00000 418.400000
12508 3293 13237 1 149.00000 418.400000
12508 3294 13695 1 149.00000 418.400000
12509 3295 13881 1 149.00000 418.400000
12509 3296 15396 1 149.00000 418.400000
12509 3297 14372 1 149.00000 418.400000
13576 3298 14189 1 149.00000 418.400000
12510 3299 13033 1 149.00000 418.400000
12510 3300 13576 1 149.00000 418.400000
12510 3301 13180 1 149.00000 418.400000
12511 3302 13552 1 149.00000 418.400000
12511 3303 17380 1 149.00000 418.400000
12511 3304 15905 1 149.00000 418.400000
12512 3305 15859 1 149.00000 418.400000
12512 3306 14658 1 149.00000 418.400000
12512 3307 15577 1 149.00000 418.400000
12512 3308 12729 1 149.00000 418.400000
12324 3309 12513 1 149.00000 418.400000
12513 3310 13051 1 149.00000 418.400000
12513 3311 14065 1 149.00000 418.400000
12513 3312 16745 1 149.00000 418.400000
12514 3313 16418 1 149.00000 418.400000
12514 3314 16555 1 149.00000 418.400000
12514 3315 12646 1 149.00000 418.400000
12514 3316 16746 1 149.00000 418.400000
12515 3317 14753 1 149.00000 418.400000
12515 3318 16449 1 149.00000 418.400000
12515 3319 14851 1 149.00000 418.400000
12516 3320 16099 1 149.00000 418.400000
12516 3321 16732 1 149.00000 418.400000
12516 3322 14025 1 149.00000 418.400000
12517 3323 15179 1 149.00000 418.400000
12517 3324 13460 1 149.00000 418.400000
12518 3325 13747 1 149.00000 418.400000
12518 3326 14798 1 149.00000 418.400000
12518 3327 13916 1 149.00000 418.400000
13443 3328 14798 1 149.00000 418.400000
12519 3329 14044 1 149.00000 418.400000
12519 3330 13740 1 149.00000 418.400000
12519 3331 13156 1 149.00000 418.400000
12519 3332 14881 1 149.00000 418.400000
12520 3333 17671 1 149.00000 418.400000
12520 3334 14449 1 149.00000 418.400000
12520 3335 14411 1 149.00000 418.400000
12521 3336 15911 1 149.00000 418.400000
12521 3337 12978 1 149.00000 418.400000
16130 3338 17338 1 149.00000 418.400000
16538 3339 17338 1 149.00000 418.400000
12522 3340 13986 1 149.00000 418.400000
12522 3341 13574 1 149.00000 418.400000
12522 3342 13684 1 149.00000 418.400000
12522 3343 16353 1 149.00000 418.400000
12523 3344 14160 1 149.00000 418.400000
12523 3345 15472 1 149.00000 418.400000
12523 3346 12907 1 149.00000 418.400000
12523 3347 17923 1 149.00000 418.400000
12524 3348 15191 1 149.00000 418.400000
12524 3349 14922 1 149.00000 418.400000
12524 3350 12869 1 149.00000 418.400000
14198 3351 17341 1 149.00000 418.400000
15686 3352 17341 1 149.00000 418.400000
17341 3353 17977 1 149.00000 418.400000
12525 3354 15040 1 149.00000 418.400000
12525 3355 16742 1 149.00000 418.400000
12525 3356 15083 1 149.00000 418.400000
14446 3357 17189 1 149.00000 418.400000
12526 3358 13386 1 149.00000 418.400000
12526 3359 14446 1 149.00000 418.400000
12526 3360 12750 1 149.00000 418.400000
12527 3361 14977 1 149.00000 418.400000
12527 3362 16878 1 149.00000 418.400000
12527 3363 13365 1 149.00000 418.400000
12528 3364 12784 1 149.00000 418.400000
12528 3365 17380 1 149.00000 418.400000
13888 3366 16981 1 149.00000 418.400000
12528 3367 13888 1 149.00000 418.400000
12529 3368 13508 1 149.00000 418.400000
12529 3369 13520 1 149.00000 418.400000
12529 3370 16286 1 149.00000 418.400000
13733 3371 17344 1 149.00000 418.400000
12530 3372 13889 1 149.00000 418.400000
12530 3373 13498 1 149.00000 418.400000
12530 3374 12549 1 149.00000 418.400000
12530 3375 15882 1 149.00000 418.400000
12531 3376 15029 1 149.00000 418.400000
12531 3377 15845 1 149.00000 418.400000
12531 3378 15800 1 149.00000 418.400000
13718 3379 17347 1 149.00000 418.400000
15951 3380 17347 1 149.00000 418.400000
12532 3381 15220 1 149.00000 418.400000
12532 3382 15096 1 149.00000 418.400000
12532 3383 13046 1 149.00000 418.400000
12532 3384 14417 1 149.00000 418.400000
12533 3385 15422 1 149.00000 418.400000
12533 3386 13103 1 149.00000 418.400000
12533 3387 13818 1 149.00000 418.400000
12534 3388 16444 1 149.00000 418.400000
12534 3389 13430 1 149.00000 418.400000
12534 3390 14833 1 149.00000 418.400000
12534 3391 14031 1 149.00000 418.400000
12535 3392 14659 1 149.00000 418.400000
12535 3393 13205 1 149.00000 418.400000
12535 3394 17112 1 149.00000 418.400000
12535 3395 14003 1 149.00000 418.400000
12536 3396 12812 1 149.00000 418.400000
12536 3397 14581 1 149.00000 418.400000
12536 3398 17066 1 149.00000 418.400000
12537 3399 16587 1 149.00000 418.400000
12537 3400 13814 1 149.00000 418.400000
12537 3401 14246 1 149.00000 418.400000
12538 3402 15226 1 149.00000 418.400000
12538 3403 14104 1 149.00000 418.400000
12538 3404 15753 1 149.00000 418.400000
12538 3405 14584 1 149.00000 418.400000
12539 3406 16756 1 149.00000 418.400000
12854 3407 15343 1 149.00000 418.400000
12540 3408 12854 1 149.00000 418.400000
12540 3409 15712 1 149.00000 418.400000
12541 3410 16816 1 149.00000 418.400000
12541 3411 17007 1 149.00000 418.400000
12541 3412 14868 1 149.00000 418.400000
12541 3413 16902 1 149.00000 418.400000
12542 3414 13369 1 149.00000 418.400000
13369 3415 14456 1 149.00000 418.400000
12542 3416 13171 1 149.00000 418.400000
15100 3417 17350 1 149.00000 418.400000
16838 3418 17350 1 149.00000 418.400000
17350 3419 17530 1 149.00000 418.400000
12543 3420 15060 1 149.00000 418.400000
12543 3421 15539 1 149.00000 418.400000
12543 3422 16134 1 149.00000 418.400000
12543 3423 16175 1 149.00000 418.400000
12544 3424 16117 1 149.00000 418.400000
12544 3425 14156 1 149.00000 418.400000
12545 3426 15971 1 149.00000 418.400000
12545 3427 14382 1 149.00000 418.400000
12545 3428 16523 1 149.00000 418.400000
12545 3429 15093 1 149.00000 418.400000
15776 3430 17353 1 149.00000 418.400000
14813 3431 17353 1 149.00000 418.400000
12394 3432 12546 1 149.00000 418.400000
12546 3433 14448 1 149.00000 418.400000
12559 3434 17326 1 149.00000 418.400000
12547 3435 15125 1 149.00000 418.400000
12547 3436 12590 1 149.00000 418.400000
12547 3437 15328 1 149.00000 418.400000
12547 3438 15056 1 149.00000 418.400000
12548 3439 13205 1 149.00000 418.400000
12548 3440 13262 1 149.00000 418.400000
12548 3441 16979 1 149.00000 418.400000
12548 3442 15949 1 149.00000 418.400000
12549 3443 14756 1 149.00000 418.400000
12550 3444 13345 1 149.00000 418.400000
12550 3445 13780 1 149.00000 418.400000
12550 3446 14050 1 149.00000 418.400000
12550 3447 13845 1 149.00000 418.400000
12551 3448 13221 1 149.00000 418.400000
12551 3449 14951 1 149.00000 418.400000
12484 3450 12551 1 149.00000 418.400000
12551 3451 16164 1 149.00000 418.400000
12552 3452 14976 1 149.00000 418.400000
12552 3453 13575 1 149.00000 418.400000
12553 3454 15105 1 149.00000 418.400000
12553 3455 12587 1 149.00000 418.400000
12553 3456 16236 1 149.00000 418.400000
12554 3457 16740 1 149.00000 418.400000
15130 3458 17120 1 149.00000 418.400000
12554 3459 13172 1 149.00000 418.400000
12555 3460 16124 1 149.00000 418.400000
12555 3461 14635 1 149.00000 418.400000
12555 3462 16350 1 149.00000 418.400000
12555 3463 17986 1 149.00000 418.400000
11790 3464 12556 1 149.00000 418.400000
12556 3465 15181 1 149.00000 418.400000
12556 3466 15582 1 149.00000 418.400000
12556 3467 16513 1 149.00000 418.400000
12557 3468 16430 1 149.00000 418.400000
12557 3469 14439 1 149.00000 418.400000
12557 3470 16602 1 149.00000 418.400000
12558 3471 13900 1 149.00000 418.400000
12558 3472 15381 1 149.00000 418.400000
12558 3473 15373 1 149.00000 418.400000
12558 3474 13702 1 149.00000 418.400000
12559 3475 16094 1 149.00000 418.400000
12559 3476 14697 1 149.00000 418.400000
12560 3477 12642 1 149.00000 418.400000
12560 3478 14540 1 149.00000 418.400000
12560 3479 17572 1 149.00000 418.400000
12561 3480 13705 1 149.00000 418.400000
12561 3481 16439 1 149.00000 418.400000
12561 3482 14559 1 149.00000 418.400000
12561 3483 14256 1 149.00000 418.400000
12562 3484 15336 1 149.00000 418.400000
12562 3485 17188 1 149.00000 418.400000
12563 3486 15928 1 149.00000 418.400000
12563 3487 13700 1 149.00000 418.400000
12563 3488 15236 1 149.00000 418.400000
12564 3489 17013 1 149.00000 418.400000
12422 3490 12564 1 149.00000 418.400000
12564 3491 13473 1 149.00000 418.400000
13771 3492 15679 1 149.00000 418.400000
13771 3493 15895 1 149.00000 418.400000
14684 3494 16704 1 149.00000 418.400000
12565 3495 14014 1 149.00000 418.400000
12565 3496 15552 1 149.00000 418.400000
12565 3497 16331 1 149.00000 418.400000
12565 3498 15324 1 149.00000 418.400000
12566 3499 16832 1 149.00000 418.400000
12566 3500 12775 1 149.00000 418.400000
12566 3501 14226 1 149.00000 418.400000
12566 3502 15287 1 149.00000 418.400000
12567 3503 13832 1 149.00000 418.400000
12567 3504 13935 1 149.00000 418.400000
12567 3505 16656 1 149.00000 418.400000
12568 3506 14669 1 149.00000 418.400000
12568 3507 15485 1 149.00000 418.400000
12568 3508 15320 1 149.00000 418.400000
12568 3509 16401 1 149.00000 418.400000
12569 3510 14179 1 149.00000 418.400000
12569 3511 14193 1 149.00000 418.400000
12569 3512 15491 1 149.00000 418.400000
12569 3513 16903 1 149.00000 418.400000
12570 3514 15371 1 149.00000 418.400000
12570 3515 16427 1 149.00000 418.400000
12571 3516 15859 1 149.00000 418.400000
12571 3517 12904 1 149.00000 418.400000
12572 3518 14572 1 149.00000 418.400000
12572 3519 13932 1 149.00000 418.400000
12572 3520 13327 1 149.00000 418.400000
12573 3521 16363 1 149.00000 418.400000
12573 3522 13701 1 149.00000 418.400000
12573 3523 16491 1 149.00000 418.400000
12573 3524 16484 1 149.00000 418.400000
14662 3525 17356 1 149.00000 418.400000
15915 3526 17356 1 149.00000 418.400000
15618 3527 17356 1 149.00000 418.400000
12574 3528 17049 1 149.00000 418.400000
12574 3529 16754 1 149.00000 418.400000
12574 3530 16170 1 149.00000 418.400000
12575 3531 14272 1 149.00000 418.400000
12575 3532 13582 1 149.00000 418.400000
12575 3533 14065 1 149.00000 418.400000
12575 3534 16301 1 149.00000 418.400000
12576 3535 13069 1 149.00000 418.400000
12576 3536 17188 1 149.00000 418.400000
12576 3537 16518 1 149.00000 418.400000
12577 3538 17108 1 149.00000 418.400000
12577 3539 13225 1 149.00000 418.400000
12577 3540 14834 1 149.00000 418.400000
12577 3541 14525 1 149.00000 418.400000
12578 3542 12769 1 149.00000 418.400000
12578 3543 16834 1 149.00000 418.400000
12578 3544 14746 1 149.00000 418.400000
12578 3545 14969 1 149.00000 418.400000
12579 3546 16525 1 149.00000 418.400000
12579 3547 12957 1 149.00000 418.400000
12579 3548 15214 1 149.00000 418.400000
12580 3549 17596 1 149.00000 418.400000
12580 3550 15137 1 149.00000 418.400000
12580 3551 15270 1 149.00000 418.400000
12580 3552 15980 1 149.00000 418.400000
12581 3553 14686 1 149.00000 418.400000
12581 3554 14137 1 149.00000 418.400000
12582 3555 16896 1 149.00000 418.400000
12582 3556 12828 1 149.00000 418.400000
12582 3557 16946 1 149.00000 418.400000
12582 3558 15521 1 149.00000 418.400000
15692 3559 17359 1 149.00000 418.400000
15825 3560 17359 1 149.00000 418.400000
14160 3561 17359 1 149.00000 418.400000
16432 3562 17109 1 149.00000 418.400000
12583 3563 12678 1 149.00000 418.400000
12583 3564 16432 1 149.00000 418.400000
13245 3565 16432 1 149.00000 418.400000
12584 3566 13995 1 149.00000 418.400000
12584 3567 16218 1 149.00000 418.400000
12584 3568 15607 1 149.00000 418.400000
12585 3569 17992 1 149.00000 418.400000
12585 3570 16405 1 149.00000 418.400000
12586 3571 15057 1 149.00000 418.400000
12586 3572 13698 1 149.00000 418.400000
12586 3573 14889 1 149.00000 418.400000
12586 3574 12840 1 149.00000 418.400000
12587 3575 13223 1 149.00000 418.400000
12587 3576 16879 1 149.00000 418.400000
12039 3577 13705 1 149.00000 418.400000
12588 3578 13831 1 149.00000 418.400000
12588 3579 14559 1 149.00000 418.400000
12589 3580 16830 1 149.00000 418.400000
12589 3581 16214 1 149.00000 418.400000
12589 3582 15954 1 149.00000 418.400000
12590 3583 14810 1 149.00000 418.400000
12591 3584 15702 1 149.00000 418.400000
12591 3585 16154 1 149.00000 418.400000
12591 3586 13343 1 149.00000 418.400000
13486 3587 16909 1 149.00000 418.400000
12592 3588 13486 1 149.00000 418.400000
12592 3589 17014 1 149.00000 418.400000
12592 3590 13610 1 149.00000 418.400000
12593 3591 16083 1 149.00000 418.400000
12593 3592 12941 1 149.00000 418.400000
12593 3593 13328 1 149.00000 418.400000
12593 3594 15709 1 149.00000 418.400000
12594 3595 14211 1 149.00000 418.400000
12594 3596 16538 1 149.00000 418.400000
12594 3597 14849 1 149.00000 418.400000
12595 3598 15437 1 149.00000 418.400000
12595 3599 12785 1 149.00000 418.400000
12595 3600 12690 1 149.00000 418.400000
12596 3601 15242 1 149.00000 418.400000
12597 3602 15086 1 149.00000 418.400000
12597 3603 13394 1 149.00000 418.400000
12597 3604 13392 1 149.00000 418.400000
12598 3605 14781 1 149.00000 418.400000
12598 3606 14390 1 149.00000 418.400000
12598 3607 14820 1 149.00000 418.400000
12598 3608 14693 1 149.00000 418.400000
12599 3609 15654 1 149.00000 418.400000
12599 3610 14614 1 149.00000 418.400000
12599 3611 16654 1 149.00000 418.400000
12599 3612 15847 1 149.00000 418.400000
12600 3613 15340 1 149.00000 418.400000
12600 3614 13040 1 149.00000 418.400000
12600 3615 15468 1 149.00000 418.400000
12600 3616 13657 1 149.00000 418.400000
11999 3617 15576 1 149.00000 418.400000
12601 3618 14083 1 149.00000 418.400000
12601 3619 13305 1 149.00000 418.400000
12602 3620 15743 1 149.00000 418.400000
12602 3621 14934 1 149.00000 418.400000
12602 3622 16210 1 149.00000 418.400000
12603 3623 12928 1 149.00000 418.400000
12603 3624 16257 1 149.00000 418.400000
16257 3625 17434 1 149.00000 418.400000
12603 3626 16966 1 149.00000 418.400000
12604 3627 17419 1 149.00000 418.400000
13346 3628 14956 1 149.00000 418.400000
12605 3629 14136 1 149.00000 418.400000
14136 3630 16110 1 149.00000 418.400000
12605 3631 15715 1 149.00000 418.400000
12606 3632 13131 1 149.00000 418.400000
12606 3633 17099 1 149.00000 418.400000
12606 3634 14077 1 149.00000 418.400000
15467 3635 17099 1 149.00000 418.400000
12607 3636 16546 1 149.00000 418.400000
12607 3637 14433 1 149.00000 418.400000
12608 3638 16203 1 149.00000 418.400000
12608 3639 16224 1 149.00000 418.400000
12608 3640 16805 1 149.00000 418.400000
12608 3641 14571 1 149.00000 418.400000
12609 3642 16064 1 149.00000 418.400000
12609 3643 15508 1 149.00000 418.400000
12610 3644 17767 1 149.00000 418.400000
12610 3645 17473 1 149.00000 418.400000
12611 3646 14667 1 149.00000 418.400000
12611 3647 13803 1 149.00000 418.400000
12611 3648 13245 1 149.00000 418.400000
12612 3649 13572 1 149.00000 418.400000
12612 3650 15723 1 149.00000 418.400000
12613 3651 16379 1 149.00000 418.400000
12613 3652 12743 1 149.00000 418.400000
12613 3653 16847 1 149.00000 418.400000
12614 3654 13500 1 149.00000 418.400000
12165 3655 14219 1 149.00000 418.400000
12614 3656 14403 1 149.00000 418.400000
12614 3657 14219 1 149.00000 418.400000
12615 3658 16856 1 149.00000 418.400000
12615 3659 15495 1 149.00000 418.400000
12615 3660 15583 1 149.00000 418.400000
12616 3661 15268 1 149.00000 418.400000
12616 3662 16210 1 149.00000 418.400000
12616 3663 15495 1 149.00000 418.400000
12617 3664 12842 1 149.00000 418.400000
12617 3665 13657 1 149.00000 418.400000
12617 3666 14210 1 149.00000 418.400000
12617 3667 14431 1 149.00000 418.400000
12618 3668 15229 1 149.00000 418.400000
12618 3669 15087 1 149.00000 418.400000
12618 3670 12707 1 149.00000 418.400000
12618 3671 16664 1 149.00000 418.400000
12619 3672 13472 1 149.00000 418.400000
12619 3673 14879 1 149.00000 418.400000
12619 3674 14593 1 149.00000 418.400000
12619 3675 14933 1 149.00000 418.400000
16943 3676 17362 1 149.00000 418.400000
15289 3677 17362 1 149.00000 418.400000
12620 3678 15988 1 149.00000 418.400000
12620 3679 13034 1 149.00000 418.400000
12620 3680 16134 1 149.00000 418.400000
12621 3681 16072 1 149.00000 418.400000
12621 3682 14213 1 149.00000 418.400000
12622 3683 16494 1 149.00000 418.400000
12622 3684 16745 1 149.00000 418.400000
12622 3685 16023 1 149.00000 418.400000
12623 3686 13099 1 149.00000 418.400000
12623 3687 12809 1 149.00000 418.400000
12624 3688 13103 1 149.00000 418.400000
12624 3689 16217 1 149.00000 418.400000
12624 3690 16524 1 149.00000 418.400000
12625 3691 14799 1 149.00000 418.400000
12625 3692 15836 1 149.00000 418.400000
12625 3693 13452 1 149.00000 418.400000
12626 3694 16965 1 149.00000 418.400000
11776 3695 12626 1 149.00000 418.400000
12626 3696 15233 1 149.00000 418.400000
12626 3697 16985 1 149.00000 418.400000
12627 3698 14106 1 149.00000 418.400000
12627 3699 14048 1 149.00000 418.400000
12627 3700 15623 1 149.00000 418.400000
12627 3701 12886 1 149.00000 418.400000
12628 3702 13687 1 149.00000 418.400000
12628 3703 14256 1 149.00000 418.400000
12629 3704 15337 1 149.00000 418.400000
12629 3705 16435 1 149.00000 418.400000
12629 3706 12695 1 149.00000 418.400000
12629 3707 13982 1 149.00000 418.400000
13434 3708 14457 1 149.00000 418.400000
12630 3709 13434 1 149.00000 418.400000
12630 3710 17132 1 149.00000 418.400000
12630 3711 16592 1 149.00000 418.400000
12631 3712 13692 1 149.00000 418.400000
12631 3713 13053 1 149.00000 418.400000
13692 3714 14434 1 149.00000 418.400000
12631 3715 15602 1 149.00000 418.400000
12632 3716 16465 1 149.00000 418.400000
12632 3717 13125 1 149.00000 418.400000
12632 3718 16732 1 149.00000 418.400000
12632 3719 13735 1 149.00000 418.400000
12633 3720 13948 1 149.00000 418.400000
12633 3721 12861 1 149.00000 418.400000
12633 3722 14400 1 149.00000 418.400000
12634 3723 14672 1 149.00000 418.400000
12634 3724 14345 1 149.00000 418.400000
12634 3725 12985 1 149.00000 418.400000
12635 3726 15983 1 149.00000 418.400000
12635 3727 15939 1 149.00000 418.400000
12636 3728 13766 1 149.00000 418.400000
13589 3729 13766 1 149.00000 418.400000
12636 3730 15793 1 149.00000 418.400000
12636 3731 16786 1 149.00000 418.400000
12637 3732 17048 1 149.00000 418.400000
12637 3733 13263 1 149.00000 418.400000
12637 3734 14775 1 149.00000 418.400000
12637 3735 17089 1 149.00000 418.400000
12638 3736 17998 1 149.00000 418.400000
12638 3737 16462 1 149.00000 418.400000
12639 3738 17147 1 149.00000 418.400000
12526 3739 12639 1 149.00000 418.400000
12639 3740 15901 1 149.00000 418.400000
12640 3741 14739 1 149.00000 418.400000
12640 3742 16647 1 149.00000 418.400000
12640 3743 13214 1 149.00000 418.400000
12640 3744 16048 1 149.00000 418.400000
12641 3745 15357 1 149.00000 418.400000
12641 3746 17137 1 149.00000 418.400000
12641 3747 13390 1 149.00000 418.400000
12641 3748 17076 1 149.00000 418.400000
12642 3749 13240 1 149.00000 418.400000
12642 3750 17090 1 149.00000 418.400000
12643 3751 17431 1 149.00000 418.400000
12643 3752 17025 1 149.00000 418.400000
12643 3753 13057 1 149.00000 418.400000
12643 3754 12691 1 149.00000 418.400000
12644 3755 14005 1 149.00000 418.400000
12644 3756 14646 1 149.00000 418.400000
12644 3757 16744 1 149.00000 418.400000
12644 3758 12933 1 149.00000 418.400000
12292 3759 12894 1 149.00000 418.400000
12645 3760 15350 1 149.00000 418.400000
12645 3761 16876 1 149.00000 418.400000
12646 3762 13717 1 149.00000 418.400000
12646 3763 16664 1 149.00000 418.400000
12647 3764 14579 1 149.00000 418.400000
12647 3765 16568 1 149.00000 418.400000
12648 3766 14071 1 149.00000 418.400000
12648 3767 14316 1 149.00000 418.400000
12648 3768 15617 1 149.00000 418.400000
12648 3769 15140 1 149.00000 418.400000
11850 3770 16145 1 149.00000 418.400000
17365 3771 17566 1 149.00000 418.400000
17365 3772 17674 1 149.00000 418.400000
12650 3773 17647 1 149.00000 418.400000
12650 3774 14012 1 149.00000 418.400000
12650 3775 16880 1 149.00000 418.400000
12651 3776 17145 1 149.00000 418.400000
12651 3777 13102 1 149.00000 418.400000
12651 3778 13120 1 149.00000 418.400000
12651 3779 17524 1 149.00000 418.400000
12652 3780 16011 1 149.00000 418.400000
12652 3781 14659 1 149.00000 418.400000
12652 3782 16105 1 149.00000 418.400000
12652 3783 12923 1 149.00000 418.400000
12653 3784 16861 1 149.00000 418.400000
12653 3785 16542 1 149.00000 418.400000
12653 3786 13878 1 149.00000 418.400000
12654 3787 13628 1 149.00000 418.400000
12654 3788 12659 1 149.00000 418.400000
12654 3789 13311 1 149.00000 418.400000
12655 3790 13417 1 149.00000 418.400000
12655 3791 15602 1 149.00000 418.400000
12655 3792 14982 1 149.00000 418.400000
12656 3793 15071 1 149.00000 418.400000
12656 3794 13162 1 149.00000 418.400000
12656 3795 16589 1 149.00000 418.400000
11972 3796 12656 1 149.00000 418.400000
12657 3797 13731 1 149.00000 418.400000
12657 3798 12855 1 149.00000 418.400000
12657 3799 13572 1 149.00000 418.400000
12657 3800 16870 1 149.00000 418.400000
12658 3801 16446 1 149.00000 418.400000
12658 3802 13332 1 149.00000 418.400000
12658 3803 14024 1 149.00000 418.400000
12658 3804 14044 1 149.00000 418.400000
12654 3805 12679 1 149.00000 418.400000
12659 3806 13179 1 149.00000 418.400000
12659 3807 15571 1 149.00000 418.400000
12660 3808 15556 1 149.00000 418.400000
12660 3809 15227 1 149.00000 418.400000
12660 3810 13003 1 149.00000 418.400000
12660 3811 14461 1 149.00000 418.400000
14954 3812 17144 1 149.00000 418.400000
12661 3813 13550 1 149.00000 418.400000
12661 3814 16995 1 149.00000 418.400000
12661 3815 14954 1 149.00000 418.400000
12662 3816 14859 1 149.00000 418.400000
12662 3817 14146 1 149.00000 418.400000
12662 3818 13668 1 149.00000 418.400000
12663 3819 14360 1 149.00000 418.400000
12663 3820 15060 1 149.00000 418.400000
12663 3821 14324 1 149.00000 418.400000
12663 3822 15487 1 149.00000 418.400000
12664 3823 15593 1 149.00000 418.400000
12664 3824 14941 1 149.00000 418.400000
12664 3825 15154 1 149.00000 418.400000
12665 3826 16427 1 149.00000 418.400000
12665 3827 14364 1 149.00000 418.400000
12665 3828 13280 1 149.00000 418.400000
12666 3829 16903 1 149.00000 418.400000
12666 3830 15577 1 149.00000 418.400000
12666 3831 15166 1 149.00000 418.400000
12667 3832 17290 1 149.00000 418.400000
14553 3833 17058 1 149.00000 418.400000
12667 3834 15505 1 149.00000 418.400000
12668 3835 16134 1 149.00000 418.400000
12668 3836 14375 1 149.00000 418.400000
12668 3837 17011 1 149.00000 418.400000
12669 3838 14623 1 149.00000 418.400000
12669 3839 14026 1 149.00000 418.400000
12669 3840 14338 1 149.00000 418.400000
12669 3841 16782 1 149.00000 418.400000
12670 3842 13272 1 149.00000 418.400000
12670 3843 15261 1 149.00000 418.400000
12670 3844 16454 1 149.00000 418.400000
12671 3845 17677 1 149.00000 418.400000
12671 3846 15833 1 149.00000 418.400000
12671 3847 13246 1 149.00000 418.400000
12671 3848 16762 1 149.00000 418.400000
12672 3849 14016 1 149.00000 418.400000
12672 3850 13026 1 149.00000 418.400000
12672 3851 13349 1 149.00000 418.400000
12673 3852 13756 1 149.00000 418.400000
12673 3853 15439 1 149.00000 418.400000
12673 3854 16827 1 149.00000 418.400000
12674 3855 16480 1 149.00000 418.400000
12674 3856 14909 1 149.00000 418.400000
12674 3857 16611 1 149.00000 418.400000
12674 3858 14059 1 149.00000 418.400000
12675 3859 13712 1 149.00000 418.400000
12675 3860 16873 1 149.00000 418.400000
12675 3861 16688 1 149.00000 418.400000
12675 3862 14343 1 149.00000 418.400000
12676 3863 14522 1 149.00000 418.400000
12676 3864 16079 1 149.00000 418.400000
12676 3865 17053 1 149.00000 418.400000
12676 3866 16100 1 149.00000 418.400000
12677 3867 13731 1 149.00000 418.400000
12677 3868 15920 1 149.00000 418.400000
12678 3869 16183 1 149.00000 418.400000
12679 3870 16682 1 149.00000 418.400000
12679 3871 13716 1 149.00000 418.400000
12679 3872 13391 1 149.00000 418.400000
12680 3873 13702 1 149.00000 418.400000
12680 3874 15051 1 149.00000 418.400000
12680 3875 15601 1 149.00000 418.400000
12680 3876 13223 1 149.00000 418.400000
12681 3877 13327 1 149.00000 418.400000
12681 3878 16027 1 149.00000 418.400000
15816 3879 17368 1 149.00000 418.400000
14803 3880 17368 1 149.00000 418.400000
15926 3881 17368 1 149.00000 418.400000
12682 3882 15319 1 149.00000 418.400000
12682 3883 14420 1 149.00000 418.400000
12682 3884 13698 1 149.00000 418.400000
12682 3885 15133 1 149.00000 418.400000
12683 3886 15268 1 149.00000 418.400000
12683 3887 16086 1 149.00000 418.400000
12683 3888 16525 1 149.00000 418.400000
12684 3889 16404 1 149.00000 418.400000
12684 3890 13730 1 149.00000 418.400000
12684 3891 14740 1 149.00000 418.400000
12685 3892 13838 1 149.00000 418.400000
12685 3893 12807 1 149.00000 418.400000
12685 3894 16030 1 149.00000 418.400000
12686 3895 16279 1 149.00000 418.400000
12686 3896 15020 1 149.00000 418.400000
12686 3897 15040 1 149.00000 418.400000
12686 3898 15952 1 149.00000 418.400000
12687 3899 16054 1 149.00000 418.400000
12687 3900 13666 1 149.00000 418.400000
12687 3901 17124 1 149.00000 418.400000
12688 3902 14741 1 149.00000 418.400000
12688 3903 14231 1 149.00000 418.400000
12688 3904 17398 1 149.00000 418.400000
12688 3905 12715 1 149.00000 418.400000
12689 3906 15321 1 149.00000 418.400000
12689 3907 13841 1 149.00000 418.400000
12689 3908 15691 1 149.00000 418.400000
12689 3909 12997 1 149.00000 418.400000
12690 3910 15824 1 149.00000 418.400000
12690 3911 14819 1 149.00000 418.400000
12690 3912 12993 1 149.00000 418.400000
12691 3913 15128 1 149.00000 418.400000
12691 3914 14458 1 149.00000 418.400000
12692 3915 14927 1 149.00000 418.400000
12692 3916 15868 1 149.00000 418.400000
12692 3917 13262 1 149.00000 418.400000
12692 3918 17176 1 149.00000 418.400000
14319 3919 14884 1 149.00000 418.400000
12693 3920 14319 1 149.00000 418.400000
12693 3921 17107 1 149.00000 418.400000
14689 3922 17602 1 149.00000 418.400000
12694 3923 14689 1 149.00000 418.400000
12695 3924 15898 1 149.00000 418.400000
12695 3925 15720 1 149.00000 418.400000
12695 3926 14506 1 149.00000 418.400000
12696 3927 15671 1 149.00000 418.400000
12696 3928 15081 1 149.00000 418.400000
12697 3929 13671 1 149.00000 418.400000
12697 3930 17671 1 149.00000 418.400000
12698 3931 14991 1 149.00000 418.400000
12698 3932 16068 1 149.00000 418.400000
12698 3933 15047 1 149.00000 418.400000
12698 3934 14307 1 149.00000 418.400000
13660 3935 15679 1 149.00000 418.400000
12699 3936 13660 1 149.00000 418.400000
12700 3937 13720 1 149.00000 418.400000
12700 3938 14166 1 149.00000 418.400000
12701 3939 15421 1 149.00000 418.400000
12701 3940 13388 1 149.00000 418.400000
12701 3941 14424 1 149.00000 418.400000
12701 3942 16164 1 149.00000 418.400000
12702 3943 14142 1 149.00000 418.400000
12702 3944 13544 1 149.00000 418.400000
12702 3945 15769 1 149.00000 418.400000
12703 3946 15937 1 149.00000 418.400000
12704 3947 14281 1 149.00000 418.400000
12704 3948 13864 1 149.00000 418.400000
12704 3949 15273 1 149.00000 418.400000
12705 3950 13109 1 149.00000 418.400000
12705 3951 15167 1 149.00000 418.400000
12705 3952 13483 1 149.00000 418.400000
12705 3953 14116 1 149.00000 418.400000
12706 3954 13949 1 149.00000 418.400000
12706 3955 14434 1 149.00000 418.400000
13949 3956 17749 1 149.00000 418.400000
12706 3957 13692 1 149.00000 418.400000
12707 3958 14974 1 149.00000 418.400000
12707 3959 15154 1 149.00000 418.400000
12708 3960 14805 1 149.00000 418.400000
12708 3961 12882 1 149.00000 418.400000
12709 3962 14153 1 149.00000 418.400000
12709 3963 15222 1 149.00000 418.400000
12709 3964 13502 1 149.00000 418.400000
12709 3965 15571 1 149.00000 418.400000
12710 3966 14669 1 149.00000 418.400000
12710 3967 15832 1 149.00000 418.400000
12710 3968 14768 1 149.00000 418.400000
12710 3969 14112 1 149.00000 418.400000
12711 3970 15942 1 149.00000 418.400000
12711 3971 12724 1 149.00000 418.400000
12017 3972 13931 1 149.00000 418.400000
12712 3973 13450 1 149.00000 418.400000
12712 3974 16854 1 149.00000 418.400000
12712 3975 15414 1 149.00000 418.400000
12712 3976 15897 1 149.00000 418.400000
12713 3977 15020 1 149.00000 418.400000
12713 3978 16042 1 149.00000 418.400000
12714 3979 14390 1 149.00000 418.400000
12714 3980 13598 1 149.00000 418.400000
12714 3981 15085 1 149.00000 418.400000
12715 3982 17047 1 149.00000 418.400000
12715 3983 14733 1 149.00000 418.400000
12715 3984 14154 1 149.00000 418.400000
12716 3985 14910 1 149.00000 418.400000
12716 3986 17184 1 149.00000 418.400000
12716 3987 16486 1 149.00000 418.400000
12716 3988 15247 1 149.00000 418.400000
12717 3989 16033 1 149.00000 418.400000
12717 3990 13661 1 149.00000 418.400000
12717 3991 14664 1 149.00000 418.400000
12717 3992 15043 1 149.00000 418.400000
12718 3993 16277 1 149.00000 418.400000
12718 3994 13530 1 149.00000 418.400000
12718 3995 15595 1 149.00000 418.400000
12718 3996 13447 1 149.00000 418.400000
12719 3997 17074 1 149.00000 418.400000
12719 3998 14682 1 149.00000 418.400000
12719 3999 14560 1 149.00000 418.400000
12720 4000 15038 1 149.00000 418.400000
12720 4001 15044 1 149.00000 418.400000
12720 4002 16078 1 149.00000 418.400000
12721 4003 16391 1 149.00000 418.400000
12721 4004 16776 1 149.00000 418.400000
12722 4005 14043 1 149.00000 418.400000
12722 4006 16374 1 149.00000 418.400000
12722 4007 14975 1 149.00000 418.400000
12722 4008 15004 1 149.00000 418.400000
12723 4009 16034 1 149.00000 418.400000
12411 4010 12723 1 149.00000 418.400000
12723 4011 14476 1 149.00000 418.400000
12724 4012 14068 1 149.00000 418.400000
12724 4013 13300 1 149.00000 418.400000
12725 4014 17749 1 149.00000 418.400000
12725 4015 13573 1 149.00000 418.400000
12725 4016 13853 1 149.00000 418.400000
12726 4017 15259 1 149.00000 418.400000
12726 4018 17851 1 149.00000 418.400000
12727 4019 15130 1 149.00000 418.400000
12727 4020 15428 1 149.00000 418.400000
12727 4021 16919 1 149.00000 418.400000
13110 4022 16685 1 149.00000 418.400000
12728 4023 17608 1 149.00000 418.400000
12728 4024 13170 1 149.00000 418.400000
12728 4025 16685 1 149.00000 418.400000
12729 4026 13568 1 149.00000 418.400000
13568 4027 16920 1 149.00000 418.400000
12730 4028 13670 1 149.00000 418.400000
12730 4029 16836 1 149.00000 418.400000
11834 4030 15348 1 149.00000 418.400000
12731 4031 16412 1 149.00000 418.400000
12731 4032 12984 1 149.00000 418.400000
15918 4033 17371 1 149.00000 418.400000
14329 4034 17371 1 149.00000 418.400000
12732 4035 14933 1 149.00000 418.400000
13778 4036 16089 1 149.00000 418.400000
12732 4037 17141 1 149.00000 418.400000
12732 4038 16089 1 149.00000 418.400000
12733 4039 15729 1 149.00000 418.400000
12733 4040 14633 1 149.00000 418.400000
12734 4041 17914 1 149.00000 418.400000
12734 4042 16116 1 149.00000 418.400000
12735 4043 15948 1 149.00000 418.400000
12735 4044 12755 1 149.00000 418.400000
12735 4045 16800 1 149.00000 418.400000
12736 4046 12929 1 149.00000 418.400000
12736 4047 13512 1 149.00000 418.400000
12736 4048 14126 1 149.00000 418.400000
12737 4049 15563 1 149.00000 418.400000
12737 4050 17848 1 149.00000 418.400000
12737 4051 17797 1 149.00000 418.400000
12737 4052 15194 1 149.00000 418.400000
12738 4053 15422 1 149.00000 418.400000
12738 4054 13880 1 149.00000 418.400000
12738 4055 15228 1 149.00000 418.400000
12739 4056 14251 1 149.00000 418.400000
12739 4057 15771 1 149.00000 418.400000
12739 4058 16038 1 149.00000 418.400000
12740 4059 14071 1 149.00000 418.400000
12740 4060 17716 1 149.00000 418.400000
12740 4061 13089 1 149.00000 418.400000
12741 4062 16061 1 149.00000 418.400000
12741 4063 16190 1 149.00000 418.400000
12741 4064 14246 1 149.00000 418.400000
12741 4065 12786 1 149.00000 418.400000
12742 4066 16292 1 149.00000 418.400000
12247 4067 16292 1 149.00000 418.400000
12742 4068 15115 1 149.00000 418.400000
12743 4069 14602 1 149.00000 418.400000
12744 4070 15789 1 149.00000 418.400000
12744 4071 15879 1 149.00000 418.400000
12744 4072 12970 1 149.00000 418.400000
12744 4073 15238 1 149.00000 418.400000
12745 4074 16774 1 149.00000 418.400000
12745 4075 12816 1 149.00000 418.400000
12745 4076 15173 1 149.00000 418.400000
12746 4077 15735 1 149.00000 418.400000
12746 4078 16140 1 149.00000 418.400000
12746 4079 13251 1 149.00000 418.400000
12746 4080 16512 1 149.00000 418.400000
12053 4081 15174 1 149.00000 418.400000
12747 4082 17851 1 149.00000 418.400000
12747 4083 12949 1 149.00000 418.400000
12748 4084 14206 1 149.00000 418.400000
12748 4085 13215 1 149.00000 418.400000
12749 4086 15732 1 149.00000 418.400000
12749 4087 16652 1 149.00000 418.400000
12749 4088 15106 1 149.00000 418.400000
12750 4089 12843 1 149.00000 418.400000
12750 4090 14252 1 149.00000 418.400000
12750 4091 13976 1 149.00000 418.400000
12751 4092 14317 1 149.00000 418.400000
12751 4093 13798 1 149.00000 418.400000
12751 4094 13436 1 149.00000 418.400000
12751 4095 15475 1 149.00000 418.400000
12752 4096 13822 1 149.00000 418.400000
12752 4097 15746 1 149.00000 418.400000
12752 4098 13924 1 149.00000 418.400000
12752 4099 15870 1 149.00000 418.400000
12753 4100 13760 1 149.00000 418.400000
13760 4101 16675 1 149.00000 418.400000
12754 4102 17707 1 149.00000 418.400000
12754 4103 13587 1 149.00000 418.400000
12755 4104 13703 1 149.00000 418.400000
12755 4105 17021 1 149.00000 418.400000
12755 4106 16767 1 149.00000 418.400000
13340 4107 17030 1 149.00000 418.400000
12756 4108 13340 1 149.00000 418.400000
12756 4109 17137 1 149.00000 418.400000
12756 4110 15914 1 149.00000 418.400000
13334 4111 13462 1 149.00000 418.400000
12757 4112 12959 1 149.00000 418.400000
12757 4113 14537 1 149.00000 418.400000
12758 4114 15037 1 149.00000 418.400000
12758 4115 15295 1 149.00000 418.400000
12758 4116 16990 1 149.00000 418.400000
12758 4117 16697 1 149.00000 418.400000
12759 4118 15607 1 149.00000 418.400000
12759 4119 17062 1 149.00000 418.400000
12760 4120 17042 1 149.00000 418.400000
12760 4121 15183 1 149.00000 418.400000
12760 4122 15950 1 149.00000 418.400000
12760 4123 14687 1 149.00000 418.400000
12761 4124 16050 1 149.00000 418.400000
12761 4125 16918 1 149.00000 418.400000
12761 4126 14237 1 149.00000 418.400000
12761 4127 16521 1 149.00000 418.400000
12762 4128 13681 1 149.00000 418.400000
12762 4129 16204 1 149.00000 418.400000
12763 4130 16036 1 149.00000 418.400000
12763 4131 13507 1 149.00000 418.400000
12764 4132 15262 1 149.00000 418.400000
12764 4133 12965 1 149.00000 418.400000
12764 4134 15186 1 149.00000 418.400000
12765 4135 14206 1 149.00000 418.400000
12765 4136 14236 1 149.00000 418.400000
12765 4137 12821 1 149.00000 418.400000
12766 4138 14929 1 149.00000 418.400000
12766 4139 16473 1 149.00000 418.400000
12766 4140 15157 1 149.00000 418.400000
12767 4141 15554 1 149.00000 418.400000
12767 4142 15929 1 149.00000 418.400000
12767 4143 12838 1 149.00000 418.400000
12767 4144 12958 1 149.00000 418.400000
12768 4145 16920 1 149.00000 418.400000
12768 4146 13873 1 149.00000 418.400000
12768 4147 15859 1 149.00000 418.400000
12768 4148 15355 1 149.00000 418.400000
12769 4149 16096 1 149.00000 418.400000
12769 4150 17890 1 149.00000 418.400000
12770 4151 15503 1 149.00000 418.400000
12770 4152 13699 1 149.00000 418.400000
12770 4153 14025 1 149.00000 418.400000
12771 4154 14585 1 149.00000 418.400000
12771 4155 16382 1 149.00000 418.400000
12771 4156 13871 1 149.00000 418.400000
12771 4157 14600 1 149.00000 418.400000
12772 4158 16329 1 149.00000 418.400000
12772 4159 16291 1 149.00000 418.400000
12773 4160 16821 1 149.00000 418.400000
12773 4161 15730 1 149.00000 418.400000
12773 4162 15560 1 149.00000 418.400000
12774 4163 15351 1 149.00000 418.400000
12774 4164 14586 1 149.00000 418.400000
12774 4165 16632 1 149.00000 418.400000
12774 4166 14096 1 149.00000 418.400000
11727 4167 12775 1 149.00000 418.400000
11727 4168 16950 1 149.00000 418.400000
12776 4169 14989 1 149.00000 418.400000
12776 4170 15917 1 149.00000 418.400000
12776 4171 14202 1 149.00000 418.400000
12777 4172 14717 1 149.00000 418.400000
12778 4173 14937 1 149.00000 418.400000
12778 4174 15410 1 149.00000 418.400000
12778 4175 12783 1 149.00000 418.400000
12779 4176 16653 1 149.00000 418.400000
12779 4177 15187 1 149.00000 418.400000
12779 4178 13995 1 149.00000 418.400000
12780 4179 12920 1 149.00000 418.400000
12780 4180 16037 1 149.00000 418.400000
12780 4181 13952 1 149.00000 418.400000
12781 4182 13065 1 149.00000 418.400000
12781 4183 16083 1 149.00000 418.400000
12782 4184 13265 1 149.00000 418.400000
12782 4185 15737 1 149.00000 418.400000
12783 4186 15648 1 149.00000 418.400000
12783 4187 15486 1 149.00000 418.400000
12783 4188 15965 1 149.00000 418.400000
12784 4189 13700 1 149.00000 418.400000
12784 4190 16573 1 149.00000 418.400000
12785 4191 13054 1 149.00000 418.400000
12785 4192 14646 1 149.00000 418.400000
12785 4193 13100 1 149.00000 418.400000
12786 4194 13021 1 149.00000 418.400000
12786 4195 16933 1 149.00000 418.400000
12786 4196 14082 1 149.00000 418.400000
12787 4197 14103 1 149.00000 418.400000
12787 4198 16247 1 149.00000 418.400000
12787 4199 14023 1 149.00000 418.400000
12787 4200 16361 1 149.00000 418.400000
12788 4201 14715 1 149.00000 418.400000
12788 4202 16154 1 149.00000 418.400000
12788 4203 15647 1 149.00000 418.400000
12788 4204 16826 1 149.00000 418.400000
12789 4205 16998 1 149.00000 418.400000
12789 4206 13643 1 149.00000 418.400000
12789 4207 17605 1 149.00000 418.400000
12790 4208 16828 1 149.00000 418.400000
12790 4209 17905 1 149.00000 418.400000
12791 4210 13148 1 149.00000 418.400000
12791 4211 13479 1 149.00000 418.400000
12791 4212 14477 1 149.00000 418.400000
12792 4213 14164 1 149.00000 418.400000
12792 4214 14760 1 149.00000 418.400000
12792 4215 16821 1 149.00000 418.400000
12792 4216 14249 1 149.00000 418.400000
12793 4217 16574 1 149.00000 418.400000
12793 4218 17126 1 149.00000 418.400000
12793 4219 14789 1 149.00000 418.400000
12793 4220 14341 1 149.00000 418.400000
12794 4221 16530 1 149.00000 418.400000
12794 4222 13075 1 149.00000 418.400000
12794 4223 13521 1 149.00000 418.400000
12794 4224 17464 1 149.00000 418.400000
12795 4225 14027 1 149.00000 418.400000
12795 4226 14461 1 149.00000 418.400000
12795 4227 13893 1 149.00000 418.400000
12795 4228 13722 1 149.00000 418.400000
12796 4229 13977 1 149.00000 418.400000
12796 4230 15342 1 149.00000 418.400000
12796 4231 14064 1 149.00000 418.400000
12797 4232 13045 1 149.00000 418.400000
12797 4233 14988 1 149.00000 418.400000
12797 4234 15566 1 149.00000 418.400000
12797 4235 16131 1 149.00000 418.400000
14270 4236 17374 1 149.00000 418.400000
12798 4237 13631 1 149.00000 418.400000
12798 4238 17962 1 149.00000 418.400000
12798 4239 13643 1 149.00000 418.400000
12798 4240 16424 1 149.00000 418.400000
12799 4241 15443 1 149.00000 418.400000
12799 4242 14408 1 149.00000 418.400000
12799 4243 16503 1 149.00000 418.400000
12800 4244 13036 1 149.00000 418.400000
12800 4245 12850 1 149.00000 418.400000
12800 4246 15981 1 149.00000 418.400000
12800 4247 15286 1 149.00000 418.400000
12801 4248 15871 1 149.00000 418.400000
12801 4249 14561 1 149.00000 418.400000
12801 4250 14266 1 149.00000 418.400000
12801 4251 16933 1 149.00000 418.400000
12802 4252 15766 1 149.00000 418.400000
12802 4253 13436 1 149.00000 418.400000
12802 4254 13778 1 149.00000 418.400000
12803 4255 15601 1 149.00000 418.400000
12803 4256 14681 1 149.00000 418.400000
12803 4257 16879 1 149.00000 418.400000
12803 4258 16575 1 149.00000 418.400000
12804 4259 13961 1 149.00000 418.400000
12804 4260 14116 1 149.00000 418.400000
12804 4261 15180 1 149.00000 418.400000
12805 4262 12945 1 149.00000 418.400000
12805 4263 15425 1 149.00000 418.400000
12805 4264 17153 1 149.00000 418.400000
12805 4265 16485 1 149.00000 418.400000
12806 4266 14725 1 149.00000 418.400000
12806 4267 13649 1 149.00000 418.400000
12806 4268 15820 1 149.00000 418.400000
12806 4269 15484 1 149.00000 418.400000
12807 4270 14342 1 149.00000 418.400000
12807 4271 14222 1 149.00000 418.400000
12808 4272 12813 1 149.00000 418.400000
12808 4273 15953 1 149.00000 418.400000
12808 4274 15714 1 149.00000 418.400000
12808 4275 15793 1 149.00000 418.400000
12809 4276 15423 1 149.00000 418.400000
12809 4277 17064 1 149.00000 418.400000
12810 4278 17491 1 149.00000 418.400000
12810 4279 16407 1 149.00000 418.400000
12810 4280 14183 1 149.00000 418.400000
12810 4281 17653 1 149.00000 418.400000
12811 4282 15958 1 149.00000 418.400000
12811 4283 17031 1 149.00000 418.400000
12812 4284 15416 1 149.00000 418.400000
12867 4285 15416 1 149.00000 418.400000
12812 4286 13450 1 149.00000 418.400000
12813 4287 15390 1 149.00000 418.400000
12813 4288 12963 1 149.00000 418.400000
12813 4289 14983 1 149.00000 418.400000
12814 4290 17188 1 149.00000 418.400000
12814 4291 13331 1 149.00000 418.400000
12814 4292 16764 1 149.00000 418.400000
12814 4293 13457 1 149.00000 418.400000
12815 4294 14360 1 149.00000 418.400000
11774 4295 14208 1 149.00000 418.400000
12815 4296 14967 1 149.00000 418.400000
12816 4297 13714 1 149.00000 418.400000
12816 4298 16631 1 149.00000 418.400000
12817 4299 14829 1 149.00000 418.400000
12817 4300 17052 1 149.00000 418.400000
12817 4301 15419 1 149.00000 418.400000
12818 4302 12899 1 149.00000 418.400000
12899 4303 15360 1 149.00000 418.400000
12818 4304 14632 1 149.00000 418.400000
12819 4305 15656 1 149.00000 418.400000
12819 4306 13914 1 149.00000 418.400000
12819 4307 13966 1 149.00000 418.400000
12819 4308 16223 1 149.00000 418.400000
12820 4309 12856 1 149.00000 418.400000
12820 4310 14966 1 149.00000 418.400000
12820 4311 16080 1 149.00000 418.400000
12821 4312 13374 1 149.00000 418.400000
12821 4313 16774 1 149.00000 418.400000
12822 4314 15820 1 149.00000 418.400000
12822 4315 14413 1 149.00000 418.400000
12822 4316 16684 1 149.00000 418.400000
12823 4317 16687 1 149.00000 418.400000
12823 4318 15023 1 149.00000 418.400000
12823 4319 14107 1 149.00000 418.400000
14107 4320 17008 1 149.00000 418.400000
12824 4321 13938 1 149.00000 418.400000
12824 4322 12971 1 149.00000 418.400000
12824 4323 15209 1 149.00000 418.400000
12824 4324 14131 1 149.00000 418.400000
12825 4325 14458 1 149.00000 418.400000
12825 4326 17025 1 149.00000 418.400000
12826 4327 13156 1 149.00000 418.400000
12826 4328 15477 1 149.00000 418.400000
12826 4329 15199 1 149.00000 418.400000
12826 4330 14604 1 149.00000 418.400000
12827 4331 15462 1 149.00000 418.400000
12614 4332 12827 1 149.00000 418.400000
12827 4333 16335 1 149.00000 418.400000
12827 4334 15615 1 149.00000 418.400000
12828 4335 14854 1 149.00000 418.400000
12828 4336 13983 1 149.00000 418.400000
12828 4337 16792 1 149.00000 418.400000
12829 4338 17461 1 149.00000 418.400000
12829 4339 16570 1 149.00000 418.400000
12829 4340 17677 1 149.00000 418.400000
12830 4341 15710 1 149.00000 418.400000
12830 4342 17107 1 149.00000 418.400000
12830 4343 15284 1 149.00000 418.400000
12830 4344 15009 1 149.00000 418.400000
12831 4345 15368 1 149.00000 418.400000
12831 4346 14396 1 149.00000 418.400000
12831 4347 14651 1 149.00000 418.400000
12831 4348 15923 1 149.00000 418.400000
12832 4349 13435 1 149.00000 418.400000
12832 4350 14900 1 149.00000 418.400000
12832 4351 15938 1 149.00000 418.400000
12832 4352 15586 1 149.00000 418.400000
12833 4353 13870 1 149.00000 418.400000
12833 4354 13249 1 149.00000 418.400000
12833 4355 15236 1 149.00000 418.400000
12833 4356 14737 1 149.00000 418.400000
12834 4357 16616 1 149.00000 418.400000
12834 4358 15892 1 149.00000 418.400000
12834 4359 13738 1 149.00000 418.400000
12834 4360 16582 1 149.00000 418.400000
12835 4361 16473 1 149.00000 418.400000
12835 4362 14094 1 149.00000 418.400000
12835 4363 17791 1 149.00000 418.400000
12835 4364 12908 1 149.00000 418.400000
12836 4365 16909 1 149.00000 418.400000
12836 4366 13815 1 149.00000 418.400000
12836 4367 16057 1 149.00000 418.400000
12836 4368 13339 1 149.00000 418.400000
12837 4369 15706 1 149.00000 418.400000
12837 4370 15786 1 149.00000 418.400000
12837 4371 12889 1 149.00000 418.400000
12838 4372 16231 1 149.00000 418.400000
12838 4373 16748 1 149.00000 418.400000
12839 4374 13649 1 149.00000 418.400000
12840 4375 14795 1 149.00000 418.400000
12840 4376 14103 1 149.00000 418.400000
12841 4377 15362 1 149.00000 418.400000
12841 4378 14857 1 149.00000 418.400000
12841 4379 16293 1 149.00000 418.400000
12842 4380 16571 1 149.00000 418.400000
12842 4381 13040 1 149.00000 418.400000
12843 4382 14004 1 149.00000 418.400000
12843 4383 13964 1 149.00000 418.400000
12843 4384 17147 1 149.00000 418.400000
12844 4385 16810 1 149.00000 418.400000
12844 4386 16610 1 149.00000 418.400000
12844 4387 15470 1 149.00000 418.400000
12844 4388 15775 1 149.00000 418.400000
12845 4389 16408 1 149.00000 418.400000
12845 4390 15130 1 149.00000 418.400000
12846 4391 17692 1 149.00000 418.400000
12996 4392 17692 1 149.00000 418.400000
12846 4393 13638 1 149.00000 418.400000
12847 4394 16065 1 149.00000 418.400000
12847 4395 14494 1 149.00000 418.400000
12847 4396 15246 1 149.00000 418.400000
12847 4397 14598 1 149.00000 418.400000
12848 4398 16579 1 149.00000 418.400000
12848 4399 14525 1 149.00000 418.400000
12848 4400 15132 1 149.00000 418.400000
12849 4401 15404 1 149.00000 418.400000
12849 4402 14447 1 149.00000 418.400000
12849 4403 16353 1 149.00000 418.400000
12850 4404 16862 1 149.00000 418.400000
12850 4405 15315 1 149.00000 418.400000
12850 4406 14322 1 149.00000 418.400000
12851 4407 14020 1 149.00000 418.400000
12851 4408 15103 1 149.00000 418.400000
12851 4409 15428 1 149.00000 418.400000
12852 4410 16585 1 149.00000 418.400000
12852 4411 13569 1 149.00000 418.400000
12852 4412 13789 1 149.00000 418.400000
12853 4413 17076 1 149.00000 418.400000
12853 4414 17005 1 149.00000 418.400000
12853 4415 15298 1 149.00000 418.400000
12853 4416 16603 1 149.00000 418.400000
12854 4417 13960 1 149.00000 418.400000
12854 4418 12919 1 149.00000 418.400000
12540 4419 17656 1 149.00000 418.400000
12855 4420 12921 1 149.00000 418.400000
12855 4421 14871 1 149.00000 418.400000
12855 4422 12935 1 149.00000 418.400000
12856 4423 16725 1 149.00000 418.400000
12856 4424 15710 1 149.00000 418.400000
12857 4425 15036 1 149.00000 418.400000
12857 4426 15644 1 149.00000 418.400000
12857 4427 13192 1 149.00000 418.400000
12858 4428 14785 1 149.00000 418.400000
12858 4429 13313 1 149.00000 418.400000
12858 4430 13554 1 149.00000 418.400000
12858 4431 17197 1 149.00000 418.400000
12859 4432 16854 1 149.00000 418.400000
12859 4433 13762 1 149.00000 418.400000
12859 4434 14826 1 149.00000 418.400000
13548 4435 17377 1 149.00000 418.400000
12860 4436 14533 1 149.00000 418.400000
12860 4437 16457 1 149.00000 418.400000
12860 4438 15879 1 149.00000 418.400000
12860 4439 15986 1 149.00000 418.400000
12861 4440 14971 1 149.00000 418.400000
12861 4441 13489 1 149.00000 418.400000
12862 4442 14472 1 149.00000 418.400000
12862 4443 13447 1 149.00000 418.400000
11705 4444 12862 1 149.00000 418.400000
12862 4445 17052 1 149.00000 418.400000
12863 4446 15721 1 149.00000 418.400000
12863 4447 15772 1 149.00000 418.400000
12863 4448 17185 1 149.00000 418.400000
12863 4449 13321 1 149.00000 418.400000
12864 4450 16249 1 149.00000 418.400000
12864 4451 15804 1 149.00000 418.400000
12864 4452 16980 1 149.00000 418.400000
12865 4453 14483 1 149.00000 418.400000
12865 4454 17413 1 149.00000 418.400000
12865 4455 13868 1 149.00000 418.400000
12866 4456 15642 1 149.00000 418.400000
12866 4457 13370 1 149.00000 418.400000
12866 4458 13020 1 149.00000 418.400000
12867 4459 13219 1 149.00000 418.400000
12867 4460 13965 1 149.00000 418.400000
12868 4461 14598 1 149.00000 418.400000
12868 4462 12900 1 149.00000 418.400000
11836 4463 12868 1 149.00000 418.400000
12869 4464 13391 1 149.00000 418.400000
12869 4465 16682 1 149.00000 418.400000
12870 4466 13417 1 149.00000 418.400000
12870 4467 14825 1 149.00000 418.400000
12870 4468 13612 1 149.00000 418.400000
12871 4469 16677 1 149.00000 418.400000
12871 4470 14741 1 149.00000 418.400000
12871 4471 15875 1 149.00000 418.400000
12871 4472 14943 1 149.00000 418.400000
12872 4473 14977 1 149.00000 418.400000
12872 4474 15319 1 149.00000 418.400000
12872 4475 14889 1 149.00000 418.400000
12873 4476 15926 1 149.00000 418.400000
12873 4477 17156 1 149.00000 418.400000
12873 4478 16676 1 149.00000 418.400000
12874 4479 15937 1 149.00000 418.400000
14816 4480 16721 1 149.00000 418.400000
12874 4481 16721 1 149.00000 418.400000
12875 4482 14006 1 149.00000 418.400000
12875 4483 14161 1 149.00000 418.400000
12875 4484 14769 1 149.00000 418.400000
12875 4485 16959 1 149.00000 418.400000
12876 4486 15981 1 149.00000 418.400000
12876 4487 15634 1 149.00000 418.400000
12876 4488 14010 1 149.00000 418.400000
12876 4489 17104 1 149.00000 418.400000
12877 4490 14538 1 149.00000 418.400000
12877 4491 16710 1 149.00000 418.400000
12877 4492 13374 1 149.00000 418.400000
12877 4493 15035 1 149.00000 418.400000
12878 4494 17776 1 149.00000 418.400000
15039 4495 16512 1 149.00000 418.400000
12878 4496 15039 1 149.00000 418.400000
12878 4497 16294 1 149.00000 418.400000
12879 4498 13806 1 149.00000 418.400000
12879 4499 13467 1 149.00000 418.400000
12879 4500 16060 1 149.00000 418.400000
12880 4501 16265 1 149.00000 418.400000
12880 4502 17093 1 149.00000 418.400000
12880 4503 17032 1 149.00000 418.400000
12881 4504 16531 1 149.00000 418.400000
12881 4505 16686 1 149.00000 418.400000
12881 4506 15465 1 149.00000 418.400000
12882 4507 16761 1 149.00000 418.400000
12882 4508 17003 1 149.00000 418.400000
12883 4509 15162 1 149.00000 418.400000
12883 4510 16128 1 149.00000 418.400000
13552 4511 17383 1 149.00000 418.400000
14415 4512 17383 1 149.00000 418.400000
17383 4513 17497 1 149.00000 418.400000
13851 4514 17542 1 149.00000 418.400000
14887 4515 17386 1 149.00000 418.400000
14337 4516 17386 1 149.00000 418.400000
17386 4517 17950 1 149.00000 418.400000
12884 4518 16181 1 149.00000 418.400000
12884 4519 16854 1 149.00000 418.400000
12884 4520 17056 1 149.00000 418.400000
12884 4521 13131 1 149.00000 418.400000
12885 4522 15442 1 149.00000 418.400000
12885 4523 15717 1 149.00000 418.400000
12886 4524 15936 1 149.00000 418.400000
12886 4525 14647 1 149.00000 418.400000
12887 4526 13732 1 149.00000 418.400000
12887 4527 16267 1 149.00000 418.400000
11892 4528 12887 1 149.00000 418.400000
12887 4529 16390 1 149.00000 418.400000
12888 4530 16894 1 149.00000 418.400000
12889 4531 16948 1 149.00000 418.400000
12889 4532 17023 1 149.00000 418.400000
12232 4533 12889 1 149.00000 418.400000
12890 4534 15848 1 149.00000 418.400000
12890 4535 14749 1 149.00000 418.400000
12891 4536 15650 1 149.00000 418.400000
12891 4537 15526 1 149.00000 418.400000
12891 4538 16714 1 149.00000 418.400000
12892 4539 15313 1 149.00000 418.400000
12893 4540 15049 1 149.00000 418.400000
12893 4541 16389 1 149.00000 418.400000
12893 4542 15576 1 149.00000 418.400000
12894 4543 14364 1 149.00000 418.400000
12894 4544 14424 1 149.00000 418.400000
12894 4545 13070 1 149.00000 418.400000
12895 4546 14704 1 149.00000 418.400000
12895 4547 13616 1 149.00000 418.400000
12895 4548 14644 1 149.00000 418.400000
12895 4549 16964 1 149.00000 418.400000
12896 4550 16178 1 149.00000 418.400000
12896 4551 14886 1 149.00000 418.400000
12896 4552 15733 1 149.00000 418.400000
14464 4553 15145 1 149.00000 418.400000
12897 4554 13496 1 149.00000 418.400000
12897 4555 16979 1 149.00000 418.400000
12897 4556 15145 1 149.00000 418.400000
12898 4557 12953 1 149.00000 418.400000
12898 4558 16715 1 149.00000 418.400000
12898 4559 14277 1 149.00000 418.400000
12818 4560 17067 1 149.00000 418.400000
12899 4561 17083 1 149.00000 418.400000
12899 4562 15250 1 149.00000 418.400000
12900 4563 14589 1 149.00000 418.400000
12900 4564 13650 1 149.00000 418.400000
12901 4565 16163 1 149.00000 418.400000
12901 4566 15972 1 149.00000 418.400000
12902 4567 16037 1 149.00000 418.400000
12903 4568 14688 1 149.00000 418.400000
12903 4569 13690 1 149.00000 418.400000
12903 4570 17139 1 149.00000 418.400000
12903 4571 13061 1 149.00000 418.400000
12904 4572 15491 1 149.00000 418.400000
12904 4573 16252 1 149.00000 418.400000
12904 4574 15577 1 149.00000 418.400000
12905 4575 15712 1 149.00000 418.400000
12905 4576 17542 1 149.00000 418.400000
12905 4577 17656 1 149.00000 418.400000
12905 4578 13482 1 149.00000 418.400000
12906 4579 13944 1 149.00000 418.400000
12906 4580 15829 1 149.00000 418.400000
12906 4581 15108 1 149.00000 418.400000
12906 4582 15975 1 149.00000 418.400000
12907 4583 13658 1 149.00000 418.400000
13658 4584 15893 1 149.00000 418.400000
12908 4585 16630 1 149.00000 418.400000
12909 4586 15149 1 149.00000 418.400000
12909 4587 17971 1 149.00000 418.400000
12909 4588 14862 1 149.00000 418.400000
13209 4589 15865 1 149.00000 418.400000
13405 4590 15865 1 149.00000 418.400000
12910 4591 15865 1 149.00000 418.400000
14114 4592 15865 1 149.00000 418.400000
15134 4593 15613 1 149.00000 418.400000
12911 4594 15439 1 149.00000 418.400000
12911 4595 15613 1 149.00000 418.400000
12912 4596 13264 1 149.00000 418.400000
12912 4597 16101 1 149.00000 418.400000
12912 4598 16017 1 149.00000 418.400000
12913 4599 14271 1 149.00000 418.400000
12913 4600 13038 1 149.00000 418.400000
12913 4601 15712 1 149.00000 418.400000
12913 4602 15687 1 149.00000 418.400000
16796 4603 17389 1 149.00000 418.400000
16795 4604 17389 1 149.00000 418.400000
12914 4605 16520 1 149.00000 418.400000
12914 4606 12966 1 149.00000 418.400000
14241 4607 16850 1 149.00000 418.400000
14241 4608 16015 1 149.00000 418.400000
12915 4609 13749 1 149.00000 418.400000
12915 4610 15915 1 149.00000 418.400000
12915 4611 16221 1 149.00000 418.400000
12915 4612 16266 1 149.00000 418.400000
12916 4613 16514 1 149.00000 418.400000
12916 4614 14639 1 149.00000 418.400000
12916 4615 15388 1 149.00000 418.400000
12916 4616 15920 1 149.00000 418.400000
12917 4617 17410 1 149.00000 418.400000
12917 4618 15363 1 149.00000 418.400000
12917 4619 15975 1 149.00000 418.400000
12918 4620 16317 1 149.00000 418.400000
12918 4621 13845 1 149.00000 418.400000
12918 4622 14865 1 149.00000 418.400000
12919 4623 15651 1 149.00000 418.400000
11738 4624 12919 1 149.00000 418.400000
12780 4625 14809 1 149.00000 418.400000
12920 4626 15243 1 149.00000 418.400000
12920 4627 13419 1 149.00000 418.400000
12921 4628 15757 1 149.00000 418.400000
12921 4629 14186 1 149.00000 418.400000
12922 4630 13785 1 149.00000 418.400000
12922 4631 15738 1 149.00000 418.400000
12922 4632 13471 1 149.00000 418.400000
12922 4633 15046 1 149.00000 418.400000
12923 4634 14192 1 149.00000 418.400000
12923 4635 16332 1 149.00000 418.400000
12924 4636 17111 1 149.00000 418.400000
12924 4637 13863 1 149.00000 418.400000
12924 4638 13314 1 149.00000 418.400000
11744 4639 16941 1 149.00000 418.400000
11744 4640 14279 1 149.00000 418.400000
12926 4641 16691 1 149.00000 418.400000
12926 4642 15853 1 149.00000 418.400000
12926 4643 15442 1 149.00000 418.400000
12926 4644 13905 1 149.00000 418.400000
12927 4645 14612 1 149.00000 418.400000
12927 4646 16524 1 149.00000 418.400000
12927 4647 17165 1 149.00000 418.400000
12928 4648 12944 1 149.00000 418.400000
12928 4649 12941 1 149.00000 418.400000
12928 4650 13366 1 149.00000 418.400000
12929 4651 16717 1 149.00000 418.400000
12929 4652 17008 1 149.00000 418.400000
12929 4653 13395 1 149.00000 418.400000
12930 4654 13154 1 149.00000 418.400000
12930 4655 14443 1 149.00000 418.400000
12930 4656 13640 1 149.00000 418.400000
12930 4657 16281 1 149.00000 418.400000
12931 4658 14064 1 149.00000 418.400000
12931 4659 15638 1 149.00000 418.400000
12932 4660 17140 1 149.00000 418.400000
12932 4661 17187 1 149.00000 418.400000
12932 4662 16426 1 149.00000 418.400000
12932 4663 13406 1 149.00000 418.400000
12933 4664 14242 1 149.00000 418.400000
12933 4665 16161 1 149.00000 418.400000
12933 4666 15903 1 149.00000 418.400000
12934 4667 17097 1 149.00000 418.400000
12934 4668 16839 1 149.00000 418.400000
12934 4669 15938 1 149.00000 418.400000
12934 4670 13329 1 149.00000 418.400000
12935 4671 15324 1 149.00000 418.400000
12935 4672 14771 1 149.00000 418.400000
12935 4673 16243 1 149.00000 418.400000
12936 4674 14663 1 149.00000 418.400000
12936 4675 13968 1 149.00000 418.400000
14318 4676 15813 1 149.00000 418.400000
12936 4677 15813 1 149.00000 418.400000
12937 4678 13184 1 149.00000 418.400000
12937 4679 13953 1 149.00000 418.400000
12937 4680 16774 1 149.00000 418.400000
12937 4681 16766 1 149.00000 418.400000
12938 4682 16883 1 149.00000 418.400000
12938 4683 16965 1 149.00000 418.400000
12939 4684 14627 1 149.00000 418.400000
12939 4685 13459 1 149.00000 418.400000
12939 4686 14798 1 149.00000 418.400000
12939 4687 13412 1 149.00000 418.400000
12940 4688 15374 1 149.00000 418.400000
12940 4689 15211 1 149.00000 418.400000
12940 4690 13066 1 149.00000 418.400000
14836 4691 17392 1 149.00000 418.400000
13978 4692 17392 1 149.00000 418.400000
15463 4693 17392 1 149.00000 418.400000
12941 4694 16345 1 149.00000 418.400000
12941 4695 16689 1 149.00000 418.400000
12942 4696 13626 1 149.00000 418.400000
12942 4697 16377 1 149.00000 418.400000
12943 4698 15668 1 149.00000 418.400000
12943 4699 15980 1 149.00000 418.400000
12944 4700 14365 1 149.00000 418.400000
12944 4701 14648 1 149.00000 418.400000
12945 4702 16058 1 149.00000 418.400000
12945 4703 13645 1 149.00000 418.400000
12945 4704 14584 1 149.00000 418.400000
12946 4705 14185 1 149.00000 418.400000
12946 4706 15669 1 149.00000 418.400000
12946 4707 14347 1 149.00000 418.400000
12947 4708 14194 1 149.00000 418.400000
12947 4709 17422 1 149.00000 418.400000
12947 4710 15540 1 149.00000 418.400000
12948 4711 15064 1 149.00000 418.400000
12948 4712 14483 1 149.00000 418.400000
12948 4713 12964 1 149.00000 418.400000
12948 4714 15514 1 149.00000 418.400000
12949 4715 13412 1 149.00000 418.400000
12949 4716 14876 1 149.00000 418.400000
12950 4717 13526 1 149.00000 418.400000
12950 4718 16884 1 149.00000 418.400000
12950 4719 16119 1 149.00000 418.400000
12950 4720 14223 1 149.00000 418.400000
12951 4721 13849 1 149.00000 418.400000
12951 4722 13007 1 149.00000 418.400000
12951 4723 12961 1 149.00000 418.400000
12951 4724 14007 1 149.00000 418.400000
12952 4725 16699 1 149.00000 418.400000
12952 4726 17057 1 149.00000 418.400000
12952 4727 16472 1 149.00000 418.400000
12952 4728 15299 1 149.00000 418.400000
12953 4729 13632 1 149.00000 418.400000
12953 4730 13550 1 149.00000 418.400000
12953 4731 14585 1 149.00000 418.400000
12954 4732 14716 1 149.00000 418.400000
12954 4733 17172 1 149.00000 418.400000
12954 4734 13083 1 149.00000 418.400000
12954 4735 16678 1 149.00000 418.400000
12955 4736 14500 1 149.00000 418.400000
12955 4737 17614 1 149.00000 418.400000
12956 4738 15213 1 149.00000 418.400000
12956 4739 16184 1 149.00000 418.400000
12956 4740 16720 1 149.00000 418.400000
12956 4741 13586 1 149.00000 418.400000
12957 4742 14563 1 149.00000 418.400000
12957 4743 14306 1 149.00000 418.400000
12957 4744 13027 1 149.00000 418.400000
12958 4745 16735 1 149.00000 418.400000
12958 4746 13453 1 149.00000 418.400000
12959 4747 14899 1 149.00000 418.400000
12959 4748 16769 1 149.00000 418.400000
12959 4749 15979 1 149.00000 418.400000
12960 4750 13219 1 149.00000 418.400000
12960 4751 14041 1 149.00000 418.400000
12961 4752 14035 1 149.00000 418.400000
12961 4753 15626 1 149.00000 418.400000
12961 4754 16645 1 149.00000 418.400000
14349 4755 16645 1 149.00000 418.400000
12962 4756 13208 1 149.00000 418.400000
12962 4757 16585 1 149.00000 418.400000
12962 4758 15067 1 149.00000 418.400000
12963 4759 16550 1 149.00000 418.400000
14274 4760 14770 1 149.00000 418.400000
12963 4761 14770 1 149.00000 418.400000
12964 4762 14060 1 149.00000 418.400000
12964 4763 16690 1 149.00000 418.400000
12964 4764 13268 1 149.00000 418.400000
12965 4765 15525 1 149.00000 418.400000
12966 4766 15632 1 149.00000 418.400000
12966 4767 15869 1 149.00000 418.400000
12966 4768 15900 1 149.00000 418.400000
12967 4769 14516 1 149.00000 418.400000
12967 4770 14751 1 149.00000 418.400000
14148 4771 17395 1 149.00000 418.400000
14392 4772 17395 1 149.00000 418.400000
12968 4773 15239 1 149.00000 418.400000
12968 4774 13232 1 149.00000 418.400000
12968 4775 13486 1 149.00000 418.400000
12968 4776 15271 1 149.00000 418.400000
12969 4777 13592 1 149.00000 418.400000
12969 4778 13680 1 149.00000 418.400000
12969 4779 17965 1 149.00000 418.400000
12969 4780 13032 1 149.00000 418.400000
12970 4781 16238 1 149.00000 418.400000
12970 4782 15742 1 149.00000 418.400000
14139 4783 16238 1 149.00000 418.400000
12971 4784 16694 1 149.00000 418.400000
12971 4785 13990 1 149.00000 418.400000
12972 4786 16946 1 149.00000 418.400000
12972 4787 13274 1 149.00000 418.400000
12972 4788 14854 1 149.00000 418.400000
12667 4789 12973 1 149.00000 418.400000
12974 4790 16621 1 149.00000 418.400000
12974 4791 13988 1 149.00000 418.400000
12974 4792 17398 1 149.00000 418.400000
12975 4793 14252 1 149.00000 418.400000
12975 4794 13580 1 149.00000 418.400000
12976 4795 13438 1 149.00000 418.400000
12977 4796 15512 1 149.00000 418.400000
12977 4797 14123 1 149.00000 418.400000
12977 4798 15856 1 149.00000 418.400000
12977 4799 15353 1 149.00000 418.400000
12978 4800 16664 1 149.00000 418.400000
12979 4801 13453 1 149.00000 418.400000
13453 4802 16823 1 149.00000 418.400000
12979 4803 15512 1 149.00000 418.400000
12980 4804 16446 1 149.00000 418.400000
12980 4805 15281 1 149.00000 418.400000
12355 4806 13356 1 149.00000 418.400000
12981 4807 13967 1 149.00000 418.400000
12981 4808 15142 1 149.00000 418.400000
12981 4809 15671 1 149.00000 418.400000
12982 4810 14320 1 149.00000 418.400000
14320 4811 15006 1 149.00000 418.400000
12982 4812 15914 1 149.00000 418.400000
12983 4813 15207 1 149.00000 418.400000
12983 4814 13782 1 149.00000 418.400000
15763 4815 18034 1 149.00000 418.400000
15237 4816 18034 1 149.00000 418.400000
12984 4817 17635 1 149.00000 418.400000
12985 4818 16493 1 149.00000 418.400000
12985 4819 13867 1 149.00000 418.400000
12985 4820 15884 1 149.00000 418.400000
12986 4821 13112 1 149.00000 418.400000
12986 4822 14353 1 149.00000 418.400000
12986 4823 14451 1 149.00000 418.400000
12986 4824 15492 1 149.00000 418.400000
12987 4825 16395 1 149.00000 418.400000
12987 4826 16356 1 149.00000 418.400000
12987 4827 14839 1 149.00000 418.400000
12988 4828 14425 1 149.00000 418.400000
12988 4829 13319 1 149.00000 418.400000
12988 4830 16038 1 149.00000 418.400000
12989 4831 16906 1 149.00000 418.400000
12989 4832 15298 1 149.00000 418.400000
12989 4833 16262 1 149.00000 418.400000
12989 4834 13347 1 149.00000 418.400000
12990 4835 15434 1 149.00000 418.400000
12990 4836 17155 1 149.00000 418.400000
12990 4837 13657 1 149.00000 418.400000
12991 4838 14315 1 149.00000 418.400000
12991 4839 13651 1 149.00000 418.400000
12991 4840 15355 1 149.00000 418.400000
12992 4841 14271 1 149.00000 418.400000
12992 4842 15349 1 149.00000 418.400000
12992 4843 14971 1 149.00000 418.400000
12992 4844 13546 1 149.00000 418.400000
12993 4845 13433 1 149.00000 418.400000
12993 4846 14109 1 149.00000 418.400000
12993 4847 15260 1 149.00000 418.400000
16288 4848 16466 1 149.00000 418.400000
12994 4849 16466 1 149.00000 418.400000
12995 4850 15047 1 149.00000 418.400000
12995 4851 14404 1 149.00000 418.400000
12995 4852 16593 1 149.00000 418.400000
12996 4853 16457 1 149.00000 418.400000
12996 4854 14892 1 149.00000 418.400000
12996 4855 15412 1 149.00000 418.400000
12997 4856 16517 1 149.00000 418.400000
12997 4857 16416 1 149.00000 418.400000
12998 4858 16752 1 149.00000 418.400000
12998 4859 13724 1 149.00000 418.400000
12378 4860 15281 1 149.00000 418.400000
12999 4861 13642 1 149.00000 418.400000
12999 4862 13548 1 149.00000 418.400000
13000 4863 16541 1 149.00000 418.400000
13000 4864 16845 1 149.00000 418.400000
13000 4865 15081 1 149.00000 418.400000
13000 4866 17196 1 149.00000 418.400000
13001 4867 15415 1 149.00000 418.400000
13001 4868 15718 1 149.00000 418.400000
13001 4869 15702 1 149.00000 418.400000
13840 4870 17401 1 149.00000 418.400000
15366 4871 17401 1 149.00000 418.400000
13002 4872 15524 1 149.00000 418.400000
13003 4873 14134 1 149.00000 418.400000
13003 4874 15528 1 149.00000 418.400000
13003 4875 14747 1 149.00000 418.400000
13004 4876 13063 1 149.00000 418.400000
13004 4877 16111 1 149.00000 418.400000
13004 4878 13821 1 149.00000 418.400000
13005 4879 16318 1 149.00000 418.400000
13006 4880 13963 1 149.00000 418.400000
13006 4881 16871 1 149.00000 418.400000
13006 4882 13931 1 149.00000 418.400000
13007 4883 14130 1 149.00000 418.400000
13007 4884 14228 1 149.00000 418.400000
13007 4885 15098 1 149.00000 418.400000
15454 4886 17404 1 149.00000 418.400000
13008 4887 17160 1 149.00000 418.400000
13008 4888 13381 1 149.00000 418.400000
13008 4889 16517 1 149.00000 418.400000
13008 4890 15367 1 149.00000 418.400000
13009 4891 13206 1 149.00000 418.400000
13009 4892 14876 1 149.00000 418.400000
13009 4893 14798 1 149.00000 418.400000
14654 4894 17407 1 149.00000 418.400000
13010 4895 13741 1 149.00000 418.400000
13010 4896 17644 1 149.00000 418.400000
13011 4897 15989 1 149.00000 418.400000
13011 4898 14257 1 149.00000 418.400000
14624 4899 16605 1 149.00000 418.400000
13012 4900 14624 1 149.00000 418.400000
13012 4901 13166 1 149.00000 418.400000
13013 4902 13554 1 149.00000 418.400000
13013 4903 15498 1 149.00000 418.400000
13013 4904 14773 1 149.00000 418.400000
13013 4905 13633 1 149.00000 418.400000
13014 4906 14492 1 149.00000 418.400000
13014 4907 14175 1 149.00000 418.400000
13014 4908 13545 1 149.00000 418.400000
13014 4909 15907 1 149.00000 418.400000
13015 4910 16941 1 149.00000 418.400000
13015 4911 16898 1 149.00000 418.400000
13015 4912 13764 1 149.00000 418.400000
13015 4913 15298 1 149.00000 418.400000
13016 4914 15577 1 149.00000 418.400000
13016 4915 14021 1 149.00000 418.400000
13016 4916 16937 1 149.00000 418.400000
13016 4917 15985 1 149.00000 418.400000
13017 4918 14669 1 149.00000 418.400000
13017 4919 15815 1 149.00000 418.400000
13017 4920 13917 1 149.00000 418.400000
13017 4921 16060 1 149.00000 418.400000
13018 4922 13765 1 149.00000 418.400000
13019 4923 15639 1 149.00000 418.400000
13019 4924 13175 1 149.00000 418.400000
13019 4925 14970 1 149.00000 418.400000
13020 4926 14125 1 149.00000 418.400000
13020 4927 13248 1 149.00000 418.400000
13020 4928 13290 1 149.00000 418.400000
16280 4929 17410 1 149.00000 418.400000
17410 4930 17491 1 149.00000 418.400000
13021 4931 17050 1 149.00000 418.400000
13022 4932 14615 1 149.00000 418.400000
13023 4933 14110 1 149.00000 418.400000
13023 4934 15278 1 149.00000 418.400000
13023 4935 14961 1 149.00000 418.400000
13023 4936 16507 1 149.00000 418.400000
13591 4937 15474 1 149.00000 418.400000
13024 4938 17539 1 149.00000 418.400000
13024 4939 15474 1 149.00000 418.400000
16482 4940 16799 1 149.00000 418.400000
13025 4941 13431 1 149.00000 418.400000
13025 4942 16799 1 149.00000 418.400000
13025 4943 15195 1 149.00000 418.400000
13026 4944 16204 1 149.00000 418.400000
13026 4945 14539 1 149.00000 418.400000
13026 4946 15416 1 149.00000 418.400000
13027 4947 13390 1 149.00000 418.400000
13027 4948 16898 1 149.00000 418.400000
13027 4949 13707 1 149.00000 418.400000
13028 4950 16092 1 149.00000 418.400000
13028 4951 16050 1 149.00000 418.400000
13028 4952 15472 1 149.00000 418.400000
13028 4953 15845 1 149.00000 418.400000
13029 4954 15646 1 149.00000 418.400000
13029 4955 17932 1 149.00000 418.400000
13029 4956 13165 1 149.00000 418.400000
13030 4957 16083 1 149.00000 418.400000
13030 4958 15605 1 149.00000 418.400000
13030 4959 13984 1 149.00000 418.400000
13030 4960 14676 1 149.00000 418.400000
16719 4961 17413 1 149.00000 418.400000
13031 4962 14930 1 149.00000 418.400000
13031 4963 15109 1 149.00000 418.400000
13032 4964 14623 1 149.00000 418.400000
13032 4965 16503 1 149.00000 418.400000
13032 4966 15509 1 149.00000 418.400000
13033 4967 16509 1 149.00000 418.400000
13033 4968 16286 1 149.00000 418.400000
13034 4969 16811 1 149.00000 418.400000
13034 4970 16668 1 149.00000 418.400000
13034 4971 18039 1 149.00000 418.400000
13035 4972 15810 1 149.00000 418.400000
13035 4973 13507 1 149.00000 418.400000
13035 4974 14693 1 149.00000 418.400000
13035 4975 15672 1 149.00000 418.400000
13036 4976 16960 1 149.00000 418.400000
13036 4977 17079 1 149.00000 418.400000
13036 4978 16925 1 149.00000 418.400000
13037 4979 16301 1 149.00000 418.400000
13037 4980 14640 1 149.00000 418.400000
13796 4981 17416 1 149.00000 418.400000
13858 4982 17416 1 149.00000 418.400000
13038 4983 15338 1 149.00000 418.400000
13038 4984 14529 1 149.00000 418.400000
13038 4985 13939 1 149.00000 418.400000
13039 4986 13866 1 149.00000 418.400000
13039 4987 13914 1 149.00000 418.400000
13039 4988 16752 1 149.00000 418.400000
13040 4989 14769 1 149.00000 418.400000
16589 4990 17419 1 149.00000 418.400000
13667 4991 17419 1 149.00000 418.400000
13041 4992 16897 1 149.00000 418.400000
13041 4993 14429 1 149.00000 418.400000
13042 4994 17770 1 149.00000 418.400000
13042 4995 13718 1 149.00000 418.400000
13043 4996 15014 1 149.00000 418.400000
13043 4997 13080 1 149.00000 418.400000
13044 4998 14363 1 149.00000 418.400000
13044 4999 14830 1 149.00000 418.400000
13044 5000 13493 1 149.00000 418.400000
13044 5001 16059 1 149.00000 418.400000
13045 5002 14137 1 149.00000 418.400000
13045 5003 15769 1 149.00000 418.400000
13045 5004 13866 1 149.00000 418.400000
13046 5005 14609 1 149.00000 418.400000
13046 5006 14314 1 149.00000 418.400000
13046 5007 13556 1 149.00000 418.400000
13047 5008 13109 1 149.00000 418.400000
13047 5009 15025 1 149.00000 418.400000
13048 5010 14108 1 149.00000 418.400000
14108 5011 15774 1 149.00000 418.400000
16890 5012 16993 1 149.00000 418.400000
13048 5013 16890 1 149.00000 418.400000
13049 5014 14681 1 149.00000 418.400000
13049 5015 17006 1 149.00000 418.400000
13049 5016 15746 1 149.00000 418.400000
13049 5017 15455 1 149.00000 418.400000
13050 5018 13385 1 149.00000 418.400000
13050 5019 13160 1 149.00000 418.400000
13050 5020 15489 1 149.00000 418.400000
13051 5021 15517 1 149.00000 418.400000
13052 5022 15866 1 149.00000 418.400000
13052 5023 14209 1 149.00000 418.400000
13052 5024 17106 1 149.00000 418.400000
13052 5025 13558 1 149.00000 418.400000
13053 5026 14951 1 149.00000 418.400000
13053 5027 13549 1 149.00000 418.400000
14072 5028 14547 1 149.00000 418.400000
13054 5029 14072 1 149.00000 418.400000
13055 5030 13416 1 149.00000 418.400000
13055 5031 14012 1 149.00000 418.400000
13056 5032 15372 1 149.00000 418.400000
13056 5033 13993 1 149.00000 418.400000
13056 5034 14336 1 149.00000 418.400000
13056 5035 14847 1 149.00000 418.400000
13057 5036 16167 1 149.00000 418.400000
13057 5037 14759 1 149.00000 418.400000
13058 5038 15614 1 149.00000 418.400000
13059 5039 13835 1 149.00000 418.400000
13059 5040 14450 1 149.00000 418.400000
13059 5041 17593 1 149.00000 418.400000
13059 5042 14792 1 149.00000 418.400000
13060 5043 16793 1 149.00000 418.400000
13060 5044 15450 1 149.00000 418.400000
13061 5045 16862 1 149.00000 418.400000
13061 5046 14382 1 149.00000 418.400000
13061 5047 14067 1 149.00000 418.400000
13062 5048 16043 1 149.00000 418.400000
16392 5049 17142 1 149.00000 418.400000
13062 5050 17142 1 149.00000 418.400000
13062 5051 13694 1 149.00000 418.400000
13063 5052 14162 1 149.00000 418.400000
13063 5053 14667 1 149.00000 418.400000
13064 5054 17665 1 149.00000 418.400000
13064 5055 13972 1 149.00000 418.400000
13065 5056 13901 1 149.00000 418.400000
13065 5057 16912 1 149.00000 418.400000
13065 5058 16598 1 149.00000 418.400000
15837 5059 16913 1 149.00000 418.400000
13066 5060 16006 1 149.00000 418.400000
13066 5061 15837 1 149.00000 418.400000
13067 5062 13345 1 149.00000 418.400000
13067 5063 13258 1 149.00000 418.400000
13067 5064 16804 1 149.00000 418.400000
13068 5065 15091 1 149.00000 418.400000
13068 5066 14437 1 149.00000 418.400000
13068 5067 13555 1 149.00000 418.400000
13069 5068 14455 1 149.00000 418.400000
13069 5069 14880 1 149.00000 418.400000
13069 5070 14638 1 149.00000 418.400000
13070 5071 17199 1 149.00000 418.400000
13070 5072 16427 1 149.00000 418.400000
13070 5073 13829 1 149.00000 418.400000
13071 5074 14350 1 149.00000 418.400000
13071 5075 16036 1 149.00000 418.400000
13071 5076 14847 1 149.00000 418.400000
13071 5077 16029 1 149.00000 418.400000
13072 5078 14753 1 149.00000 418.400000
13072 5079 15016 1 149.00000 418.400000
13072 5080 16604 1 149.00000 418.400000
13073 5081 17181 1 149.00000 418.400000
13073 5082 16268 1 149.00000 418.400000
13074 5083 14659 1 149.00000 418.400000
13074 5084 14647 1 149.00000 418.400000
13075 5085 16007 1 149.00000 418.400000
13075 5086 14032 1 149.00000 418.400000
13075 5087 15464 1 149.00000 418.400000
13076 5088 13781 1 149.00000 418.400000
13076 5089 16492 1 149.00000 418.400000
13076 5090 16064 1 149.00000 418.400000
13076 5091 16916 1 149.00000 418.400000
13077 5092 17905 1 149.00000 418.400000
13077 5093 13802 1 149.00000 418.400000
13077 5094 14191 1 149.00000 418.400000
13077 5095 13994 1 149.00000 418.400000
13078 5096 16609 1 149.00000 418.400000
13078 5097 14801 1 149.00000 418.400000
13078 5098 14867 1 149.00000 418.400000
13078 5099 15170 1 149.00000 418.400000
13079 5100 16608 1 149.00000 418.400000
13079 5101 14489 1 149.00000 418.400000
13079 5102 15159 1 149.00000 418.400000
13079 5103 16972 1 149.00000 418.400000
13559 5104 17422 1 149.00000 418.400000
13306 5105 17422 1 149.00000 418.400000
13080 5106 17187 1 149.00000 418.400000
12119 5107 13080 1 149.00000 418.400000
13081 5108 15927 1 149.00000 418.400000
13081 5109 15513 1 149.00000 418.400000
13081 5110 14578 1 149.00000 418.400000
13081 5111 16046 1 149.00000 418.400000
13082 5112 13402 1 149.00000 418.400000
13082 5113 13525 1 149.00000 418.400000
13082 5114 14010 1 149.00000 418.400000
13525 5115 14067 1 149.00000 418.400000
13083 5116 16798 1 149.00000 418.400000
13083 5117 17174 1 149.00000 418.400000
13084 5118 15732 1 149.00000 418.400000
13084 5119 15633 1 149.00000 418.400000
13084 5120 14206 1 149.00000 418.400000
13084 5121 14132 1 149.00000 418.400000
13085 5122 14995 1 149.00000 418.400000
13085 5123 13086 1 149.00000 418.400000
13085 5124 13186 1 149.00000 418.400000
13086 5125 14861 1 149.00000 418.400000
13086 5126 16877 1 149.00000 418.400000
13087 5127 14976 1 149.00000 418.400000
13087 5128 15991 1 149.00000 418.400000
13087 5129 16590 1 149.00000 418.400000
13088 5130 15133 1 149.00000 418.400000
13088 5131 14420 1 149.00000 418.400000
13088 5132 13636 1 149.00000 418.400000
13089 5133 14767 1 149.00000 418.400000
13089 5134 13119 1 149.00000 418.400000
13090 5135 15114 1 149.00000 418.400000
13090 5136 13820 1 149.00000 418.400000
13091 5137 15677 1 149.00000 418.400000
12183 5138 13091 1 149.00000 418.400000
13091 5139 16073 1 149.00000 418.400000
13091 5140 14201 1 149.00000 418.400000
17425 5141 17704 1 149.00000 418.400000
17111 5142 17425 1 149.00000 418.400000
15783 5143 17425 1 149.00000 418.400000
13092 5144 14143 1 149.00000 418.400000
13092 5145 16171 1 149.00000 418.400000
13092 5146 13868 1 149.00000 418.400000
13092 5147 15514 1 149.00000 418.400000
13093 5148 15719 1 149.00000 418.400000
13093 5149 14258 1 149.00000 418.400000
13093 5150 14708 1 149.00000 418.400000
13094 5151 14320 1 149.00000 418.400000
13094 5152 15146 1 149.00000 418.400000
13094 5153 16246 1 149.00000 418.400000
13095 5154 14671 1 149.00000 418.400000
13095 5155 13166 1 149.00000 418.400000
13095 5156 13227 1 149.00000 418.400000
11631 5157 13096 1 149.00000 418.400000
13096 5158 13154 1 149.00000 418.400000
13096 5159 13467 1 149.00000 418.400000
13096 5160 14656 1 149.00000 418.400000
11913 5161 16997 1 149.00000 418.400000
13097 5162 16997 1 149.00000 418.400000
13099 5163 13765 1 149.00000 418.400000
13099 5164 15445 1 149.00000 418.400000
13100 5165 16068 1 149.00000 418.400000
13100 5166 13514 1 149.00000 418.400000
13101 5167 16856 1 149.00000 418.400000
13101 5168 17077 1 149.00000 418.400000
13102 5169 15010 1 149.00000 418.400000
13102 5170 16206 1 149.00000 418.400000
13103 5171 13140 1 149.00000 418.400000
13104 5172 13230 1 149.00000 418.400000
17428 5173 17734 1 149.00000 418.400000
15899 5174 17428 1 149.00000 418.400000
13105 5175 17548 1 149.00000 418.400000
13105 5176 16224 1 149.00000 418.400000
13105 5177 16497 1 149.00000 418.400000
13105 5178 17266 1 149.00000 418.400000
13106 5179 15432 1 149.00000 418.400000
13106 5180 15755 1 149.00000 418.400000
13106 5181 13178 1 149.00000 418.400000
13107 5182 14628 1 149.00000 418.400000
13107 5183 14344 1 149.00000 418.400000
13107 5184 15776 1 149.00000 418.400000
13108 5185 15992 1 149.00000 418.400000
13108 5186 16806 1 149.00000 418.400000
13108 5187 13917 1 149.00000 418.400000
16791 5188 17431 1 149.00000 418.400000
15751 5189 17431 1 149.00000 418.400000
13109 5190 16340 1 149.00000 418.400000
13110 5191 14352 1 149.00000 418.400000
13110 5192 14497 1 149.00000 418.400000
13110 5193 14116 1 149.00000 418.400000
13111 5194 15342 1 149.00000 418.400000
13111 5195 16749 1 149.00000 418.400000
13111 5196 14335 1 149.00000 418.400000
11958 5197 13112 1 149.00000 418.400000
13112 5198 17001 1 149.00000 418.400000
13112 5199 14084 1 149.00000 418.400000
13113 5200 17148 1 149.00000 418.400000
13113 5201 13756 1 149.00000 418.400000
13113 5202 13724 1 149.00000 418.400000
13114 5203 14549 1 149.00000 418.400000
11974 5204 13114 1 149.00000 418.400000
13114 5205 13283 1 149.00000 418.400000
13115 5206 14621 1 149.00000 418.400000
13878 5207 14621 1 149.00000 418.400000
13115 5208 14645 1 149.00000 418.400000
13115 5209 16276 1 149.00000 418.400000
13116 5210 14167 1 149.00000 418.400000
13116 5211 15226 1 149.00000 418.400000
13116 5212 14610 1 149.00000 418.400000
13116 5213 16810 1 149.00000 418.400000
13117 5214 13288 1 149.00000 418.400000
13117 5215 17021 1 149.00000 418.400000
13117 5216 17689 1 149.00000 418.400000
13118 5217 13355 1 149.00000 418.400000
13118 5218 13509 1 149.00000 418.400000
13118 5219 13544 1 149.00000 418.400000
13118 5220 16506 1 149.00000 418.400000
13119 5221 17911 1 149.00000 418.400000
13120 5222 16933 1 149.00000 418.400000
14417 5223 15306 1 149.00000 418.400000
13121 5224 14417 1 149.00000 418.400000
13121 5225 16742 1 149.00000 418.400000
13121 5226 16725 1 149.00000 418.400000
13122 5227 16731 1 149.00000 418.400000
13122 5228 15404 1 149.00000 418.400000
13122 5229 13706 1 149.00000 418.400000
13122 5230 15253 1 149.00000 418.400000
15962 5231 16067 1 149.00000 418.400000
13123 5232 13693 1 149.00000 418.400000
13123 5233 15962 1 149.00000 418.400000
13124 5234 13464 1 149.00000 418.400000
13124 5235 14994 1 149.00000 418.400000
13125 5236 14025 1 149.00000 418.400000
13125 5237 16406 1 149.00000 418.400000
13126 5238 16552 1 149.00000 418.400000
15223 5239 16552 1 149.00000 418.400000
13126 5240 15410 1 149.00000 418.400000
13126 5241 14960 1 149.00000 418.400000
13127 5242 14061 1 149.00000 418.400000
13127 5243 15487 1 149.00000 418.400000
13127 5244 16580 1 149.00000 418.400000
13127 5245 13661 1 149.00000 418.400000
13128 5246 13858 1 149.00000 418.400000
13128 5247 14068 1 149.00000 418.400000
13128 5248 13912 1 149.00000 418.400000
13129 5249 14518 1 149.00000 418.400000
13129 5250 14445 1 149.00000 418.400000
13129 5251 13592 1 149.00000 418.400000
16244 5252 16398 1 149.00000 418.400000
13130 5253 16398 1 149.00000 418.400000
13130 5254 15653 1 149.00000 418.400000
13130 5255 16443 1 149.00000 418.400000
14684 5256 17434 1 149.00000 418.400000
17434 5257 17713 1 149.00000 418.400000
13131 5258 14469 1 149.00000 418.400000
13131 5259 15611 1 149.00000 418.400000
16473 5260 17437 1 149.00000 418.400000
14066 5261 17437 1 149.00000 418.400000
13132 5262 17067 1 149.00000 418.400000
13132 5263 16578 1 149.00000 418.400000
13132 5264 15818 1 149.00000 418.400000
13133 5265 14923 1 149.00000 418.400000
13133 5266 17067 1 149.00000 418.400000
13134 5267 14254 1 149.00000 418.400000
13134 5268 13416 1 149.00000 418.400000
13134 5269 16880 1 149.00000 418.400000
13134 5270 16530 1 149.00000 418.400000
13135 5271 14842 1 149.00000 418.400000
13135 5272 15744 1 149.00000 418.400000
13135 5273 13936 1 149.00000 418.400000
13136 5274 15461 1 149.00000 418.400000
13136 5275 14627 1 149.00000 418.400000
13136 5276 13183 1 149.00000 418.400000
13137 5277 13976 1 149.00000 418.400000
13137 5278 16843 1 149.00000 418.400000
13137 5279 16088 1 149.00000 418.400000
13137 5280 15094 1 149.00000 418.400000
13138 5281 14568 1 149.00000 418.400000
13138 5282 16803 1 149.00000 418.400000
13138 5283 13349 1 149.00000 418.400000
13138 5284 14601 1 149.00000 418.400000
13139 5285 17159 1 149.00000 418.400000
13139 5286 16127 1 149.00000 418.400000
13140 5287 15671 1 149.00000 418.400000
13140 5288 13985 1 149.00000 418.400000
13141 5289 16576 1 149.00000 418.400000
13141 5290 13628 1 149.00000 418.400000
13141 5291 14039 1 149.00000 418.400000
13142 5292 14300 1 149.00000 418.400000
13142 5293 13501 1 149.00000 418.400000
13142 5294 15457 1 149.00000 418.400000
13143 5295 15066 1 149.00000 418.400000
13143 5296 13960 1 149.00000 418.400000
13143 5297 15651 1 149.00000 418.400000
13837 5298 17440 1 149.00000 418.400000
14361 5299 17440 1 149.00000 418.400000
11691 5300 13144 1 149.00000 418.400000
13144 5301 15819 1 149.00000 418.400000
13144 5302 15337 1 149.00000 418.400000
13145 5303 14077 1 149.00000 418.400000
13145 5304 14554 1 149.00000 418.400000
13146 5305 14608 1 149.00000 418.400000
13146 5306 15839 1 149.00000 418.400000
13146 5307 14662 1 149.00000 418.400000
13147 5308 13158 1 149.00000 418.400000
13147 5309 14425 1 149.00000 418.400000
13147 5310 14403 1 149.00000 418.400000
13147 5311 14199 1 149.00000 418.400000
13148 5312 13582 1 149.00000 418.400000
13149 5313 14233 1 149.00000 418.400000
13149 5314 14531 1 149.00000 418.400000
13149 5315 14630 1 149.00000 418.400000
13149 5316 16684 1 149.00000 418.400000
13150 5317 13287 1 149.00000 418.400000
13150 5318 13200 1 149.00000 418.400000
13150 5319 13659 1 149.00000 418.400000
13150 5320 16257 1 149.00000 418.400000
13151 5321 15276 1 149.00000 418.400000
13151 5322 13802 1 149.00000 418.400000
13151 5323 14638 1 149.00000 418.400000
13152 5324 16953 1 149.00000 418.400000
13152 5325 17743 1 149.00000 418.400000
13153 5326 14707 1 149.00000 418.400000
13153 5327 15768 1 149.00000 418.400000
13153 5328 14101 1 149.00000 418.400000
13154 5329 14775 1 149.00000 418.400000
13155 5330 14269 1 149.00000 418.400000
13155 5331 15042 1 149.00000 418.400000
13155 5332 16958 1 149.00000 418.400000
13156 5333 15690 1 149.00000 418.400000
13156 5334 15682 1 149.00000 418.400000
14170 5335 16022 1 149.00000 418.400000
13157 5336 14432 1 149.00000 418.400000
14432 5337 16022 1 149.00000 418.400000
14625 5338 16022 1 149.00000 418.400000
13158 5339 16653 1 149.00000 418.400000
13158 5340 13532 1 149.00000 418.400000
13158 5341 16037 1 149.00000 418.400000
13159 5342 16174 1 149.00000 418.400000
13159 5343 16201 1 149.00000 418.400000
13160 5344 14743 1 149.00000 418.400000
13161 5345 13955 1 149.00000 418.400000
13161 5346 13343 1 149.00000 418.400000
13161 5347 15415 1 149.00000 418.400000
13162 5348 14956 1 149.00000 418.400000
13162 5349 16363 1 149.00000 418.400000
13162 5350 14030 1 149.00000 418.400000
13163 5351 13698 1 149.00000 418.400000
13164 5352 14333 1 149.00000 418.400000
13165 5353 16500 1 149.00000 418.400000
13166 5354 15783 1 149.00000 418.400000
13166 5355 13863 1 149.00000 418.400000
16451 5356 17443 1 149.00000 418.400000
13167 5357 13222 1 149.00000 418.400000
13167 5358 17096 1 149.00000 418.400000
12108 5359 13167 1 149.00000 418.400000
13167 5360 14226 1 149.00000 418.400000
13168 5361 17500 1 149.00000 418.400000
13168 5362 16564 1 149.00000 418.400000
13168 5363 14707 1 149.00000 418.400000
13169 5364 15863 1 149.00000 418.400000
13169 5365 16247 1 149.00000 418.400000
13170 5366 16613 1 149.00000 418.400000
13170 5367 14043 1 149.00000 418.400000
13170 5368 16251 1 149.00000 418.400000
13171 5369 14205 1 149.00000 418.400000
13171 5370 13189 1 149.00000 418.400000
13171 5371 16074 1 149.00000 418.400000
13172 5372 15130 1 149.00000 418.400000
13173 5373 16484 1 149.00000 418.400000
13173 5374 14347 1 149.00000 418.400000
13836 5375 14840 1 149.00000 418.400000
13836 5376 16803 1 149.00000 418.400000
13174 5377 16074 1 149.00000 418.400000
13174 5378 15748 1 149.00000 418.400000
13175 5379 16213 1 149.00000 418.400000
12433 5380 13175 1 149.00000 418.400000
13176 5381 16425 1 149.00000 418.400000
13177 5382 14707 1 149.00000 418.400000
13177 5383 14146 1 149.00000 418.400000
13177 5384 13304 1 149.00000 418.400000
13178 5385 16513 1 149.00000 418.400000
13178 5386 13785 1 149.00000 418.400000
13178 5387 14173 1 149.00000 418.400000
13179 5388 14393 1 149.00000 418.400000
13179 5389 13908 1 149.00000 418.400000
13179 5390 13679 1 149.00000 418.400000
13180 5391 15800 1 149.00000 418.400000
13180 5392 15618 1 149.00000 418.400000
12592 5393 17446 1 149.00000 418.400000
16511 5394 17446 1 149.00000 418.400000
13181 5395 13372 1 149.00000 418.400000
13181 5396 13284 1 149.00000 418.400000
13181 5397 13646 1 149.00000 418.400000
13181 5398 15038 1 149.00000 418.400000
13182 5399 17063 1 149.00000 418.400000
13182 5400 16983 1 149.00000 418.400000
13182 5401 13631 1 149.00000 418.400000
13182 5402 14243 1 149.00000 418.400000
13183 5403 13977 1 149.00000 418.400000
13183 5404 13206 1 149.00000 418.400000
13183 5405 15667 1 149.00000 418.400000
13184 5406 14323 1 149.00000 418.400000
13184 5407 13714 1 149.00000 418.400000
13184 5408 13725 1 149.00000 418.400000
13185 5409 16322 1 149.00000 418.400000
12229 5410 13185 1 149.00000 418.400000
13186 5411 16345 1 149.00000 418.400000
13186 5412 15709 1 149.00000 418.400000
13187 5413 16710 1 149.00000 418.400000
13187 5414 15173 1 149.00000 418.400000
13188 5415 17123 1 149.00000 418.400000
13188 5416 14157 1 149.00000 418.400000
13189 5417 16852 1 149.00000 418.400000
13189 5418 17072 1 149.00000 418.400000
13174 5419 13189 1 149.00000 418.400000
13190 5420 15616 1 149.00000 418.400000
13190 5421 14539 1 149.00000 418.400000
13190 5422 13772 1 149.00000 418.400000
13190 5423 16946 1 149.00000 418.400000
13191 5424 17515 1 149.00000 418.400000
13191 5425 15414 1 149.00000 418.400000
13191 5426 16018 1 149.00000 418.400000
13192 5427 17731 1 149.00000 418.400000
13192 5428 15930 1 149.00000 418.400000
13193 5429 14075 1 149.00000 418.400000
13193 5430 15324 1 149.00000 418.400000
13194 5431 13738 1 149.00000 418.400000
13194 5432 14939 1 149.00000 418.400000
13194 5433 13755 1 149.00000 418.400000
13195 5434 14816 1 149.00000 418.400000
13195 5435 17033 1 149.00000 418.400000
13195 5436 17181 1 149.00000 418.400000
13196 5437 17755 1 149.00000 418.400000
13196 5438 14811 1 149.00000 418.400000
13196 5439 13229 1 149.00000 418.400000
14493 5440 17314 1 149.00000 418.400000
13197 5441 15801 1 149.00000 418.400000
13197 5442 16123 1 149.00000 418.400000
13197 5443 13810 1 149.00000 418.400000
13198 5444 14892 1 149.00000 418.400000
14502 5445 16985 1 149.00000 418.400000
13199 5446 14502 1 149.00000 418.400000
13199 5447 16296 1 149.00000 418.400000
13200 5448 17713 1 149.00000 418.400000
13200 5449 16704 1 149.00000 418.400000
11837 5450 13201 1 149.00000 418.400000
12059 5451 15383 1 149.00000 418.400000
12059 5452 15395 1 149.00000 418.400000
13202 5453 15344 1 149.00000 418.400000
13202 5454 16508 1 149.00000 418.400000
13202 5455 16149 1 149.00000 418.400000
13203 5456 17140 1 149.00000 418.400000
13203 5457 16152 1 149.00000 418.400000
13203 5458 15787 1 149.00000 418.400000
13203 5459 14346 1 149.00000 418.400000
13204 5460 17566 1 149.00000 418.400000
13204 5461 15933 1 149.00000 418.400000
13204 5462 15070 1 149.00000 418.400000
13204 5463 14374 1 149.00000 418.400000
13455 5464 13632 1 149.00000 418.400000
13206 5465 13950 1 149.00000 418.400000
13206 5466 13455 1 149.00000 418.400000
13207 5467 15909 1 149.00000 418.400000
13207 5468 16971 1 149.00000 418.400000
13207 5469 13370 1 149.00000 418.400000
13208 5470 14963 1 149.00000 418.400000
13208 5471 16156 1 149.00000 418.400000
13209 5472 18049 1 149.00000 418.400000
13209 5473 16370 1 149.00000 418.400000
13210 5474 15754 1 149.00000 418.400000
13210 5475 13895 1 149.00000 418.400000
11836 5476 16559 1 149.00000 418.400000
13212 5477 16833 1 149.00000 418.400000
13212 5478 15214 1 149.00000 418.400000
13213 5479 16449 1 149.00000 418.400000
13213 5480 16056 1 149.00000 418.400000
13213 5481 16940 1 149.00000 418.400000
13213 5482 14829 1 149.00000 418.400000
13214 5483 16722 1 149.00000 418.400000
13214 5484 14228 1 149.00000 418.400000
13214 5485 13775 1 149.00000 418.400000
13215 5486 14132 1 149.00000 418.400000
13215 5487 17176 1 149.00000 418.400000
13216 5488 15032 1 149.00000 418.400000
13216 5489 15455 1 149.00000 418.400000
13216 5490 14198 1 149.00000 418.400000
13217 5491 14657 1 149.00000 418.400000
13217 5492 14601 1 149.00000 418.400000
13217 5493 16007 1 149.00000 418.400000
13218 5494 14964 1 149.00000 418.400000
13218 5495 14589 1 149.00000 418.400000
16991 5496 17449 1 149.00000 418.400000
15993 5497 17449 1 149.00000 418.400000
17449 5498 17488 1 149.00000 418.400000
13219 5499 15589 1 149.00000 418.400000
13219 5500 16974 1 149.00000 418.400000
13220 5501 13994 1 149.00000 418.400000
13220 5502 15218 1 149.00000 418.400000
13220 5503 16749 1 149.00000 418.400000
13221 5504 14985 1 149.00000 418.400000
13221 5505 16442 1 149.00000 418.400000
13221 5506 17458 1 149.00000 418.400000
13222 5507 16477 1 149.00000 418.400000
13222 5508 15551 1 149.00000 418.400000
13222 5509 16148 1 149.00000 418.400000
13223 5510 13535 1 149.00000 418.400000
13223 5511 14913 1 149.00000 418.400000
13224 5512 16780 1 149.00000 418.400000
13224 5513 17174 1 149.00000 418.400000
13224 5514 14696 1 149.00000 418.400000
13224 5515 15884 1 149.00000 418.400000
13225 5516 16309 1 149.00000 418.400000
13226 5517 17140 1 149.00000 418.400000
13226 5518 14122 1 149.00000 418.400000
13226 5519 13566 1 149.00000 418.400000
13227 5520 15855 1 149.00000 418.400000
13227 5521 13283 1 149.00000 418.400000
13227 5522 15790 1 149.00000 418.400000
13228 5523 14919 1 149.00000 418.400000
13228 5524 14874 1 149.00000 418.400000
13229 5525 16889 1 149.00000 418.400000
13230 5526 14514 1 149.00000 418.400000
13230 5527 17470 1 149.00000 418.400000
13231 5528 14181 1 149.00000 418.400000
13231 5529 15469 1 149.00000 418.400000
13231 5530 13803 1 149.00000 418.400000
13231 5531 14838 1 149.00000 418.400000
13232 5532 13445 1 149.00000 418.400000
13232 5533 13519 1 149.00000 418.400000
13232 5534 13520 1 149.00000 418.400000
13233 5535 14130 1 149.00000 418.400000
13233 5536 16787 1 149.00000 418.400000
13234 5537 17053 1 149.00000 418.400000
13234 5538 13666 1 149.00000 418.400000
13234 5539 15987 1 149.00000 418.400000
17182 5540 18044 1 149.00000 418.400000
14491 5541 18044 1 149.00000 418.400000
13235 5542 16534 1 149.00000 418.400000
13235 5543 15803 1 149.00000 418.400000
13236 5544 16763 1 149.00000 418.400000
14553 5545 16475 1 149.00000 418.400000
13236 5546 14779 1 149.00000 418.400000
13236 5547 16475 1 149.00000 418.400000
13237 5548 16571 1 149.00000 418.400000
13237 5549 14431 1 149.00000 418.400000
12508 5550 16413 1 149.00000 418.400000
16887 5551 17452 1 149.00000 418.400000
14401 5552 17452 1 149.00000 418.400000
13238 5553 16559 1 149.00000 418.400000
13238 5554 15851 1 149.00000 418.400000
13238 5555 14732 1 149.00000 418.400000
13238 5556 13474 1 149.00000 418.400000
13239 5557 15834 1 149.00000 418.400000
13239 5558 15001 1 149.00000 418.400000
13239 5559 14742 1 149.00000 418.400000
13240 5560 16871 1 149.00000 418.400000
13240 5561 17617 1 149.00000 418.400000
13241 5562 14809 1 149.00000 418.400000
13241 5563 15243 1 149.00000 418.400000
13241 5564 14782 1 149.00000 418.400000
13243 5565 16202 1 149.00000 418.400000
13243 5566 17917 1 149.00000 418.400000
13243 5567 16459 1 149.00000 418.400000
13244 5568 14499 1 149.00000 418.400000
13244 5569 14966 1 149.00000 418.400000
13244 5570 13259 1 149.00000 418.400000
13245 5571 13984 1 149.00000 418.400000
13246 5572 14591 1 149.00000 418.400000
13246 5573 16672 1 149.00000 418.400000
13247 5574 16494 1 149.00000 418.400000
13247 5575 14086 1 149.00000 418.400000
13247 5576 16748 1 149.00000 418.400000
12344 5577 16084 1 149.00000 418.400000
16084 5578 17455 1 149.00000 418.400000
13897 5579 17458 1 149.00000 418.400000
15330 5580 16756 1 149.00000 418.400000
15330 5581 17458 1 149.00000 418.400000
13248 5582 13673 1 149.00000 418.400000
13248 5583 16094 1 149.00000 418.400000
13248 5584 14831 1 149.00000 418.400000
13249 5585 16437 1 149.00000 418.400000
13249 5586 13940 1 149.00000 418.400000
13250 5587 14507 1 149.00000 418.400000
13250 5588 15569 1 149.00000 418.400000
13250 5589 13816 1 149.00000 418.400000
13250 5590 17141 1 149.00000 418.400000
13251 5591 17192 1 149.00000 418.400000
13251 5592 17836 1 149.00000 418.400000
13251 5593 14198 1 149.00000 418.400000
13252 5594 14926 1 149.00000 418.400000
13252 5595 13425 1 149.00000 418.400000
13252 5596 16078 1 149.00000 418.400000
13252 5597 16650 1 149.00000 418.400000
13253 5598 16139 1 149.00000 418.400000
13253 5599 13331 1 149.00000 418.400000
13254 5600 16232 1 149.00000 418.400000
13254 5601 14063 1 149.00000 418.400000
13255 5602 14761 1 149.00000 418.400000
13255 5603 14919 1 149.00000 418.400000
13255 5604 14163 1 149.00000 418.400000
13256 5605 14807 1 149.00000 418.400000
13256 5606 15158 1 149.00000 418.400000
13256 5607 14607 1 149.00000 418.400000
13256 5608 13884 1 149.00000 418.400000
13257 5609 14666 1 149.00000 418.400000
13257 5610 15545 1 149.00000 418.400000
13257 5611 17149 1 149.00000 418.400000
13258 5612 16014 1 149.00000 418.400000
13258 5613 15854 1 149.00000 418.400000
13258 5614 16800 1 149.00000 418.400000
13259 5615 14619 1 149.00000 418.400000
13259 5616 16140 1 149.00000 418.400000
13259 5617 15544 1 149.00000 418.400000
13260 5618 16227 1 149.00000 418.400000
13260 5619 14794 1 149.00000 418.400000
13260 5620 14521 1 149.00000 418.400000
13260 5621 14036 1 149.00000 418.400000
13261 5622 15645 1 149.00000 418.400000
13261 5623 17054 1 149.00000 418.400000
13261 5624 14720 1 149.00000 418.400000
13261 5625 14794 1 149.00000 418.400000
13262 5626 16820 1 149.00000 418.400000
13263 5627 16539 1 149.00000 418.400000
13263 5628 15015 1 149.00000 418.400000
13264 5629 14651 1 149.00000 418.400000
13265 5630 14160 1 149.00000 418.400000
13266 5631 14613 1 149.00000 418.400000
15728 5632 16614 1 149.00000 418.400000
13266 5633 16614 1 149.00000 418.400000
13266 5634 13852 1 149.00000 418.400000
13267 5635 16680 1 149.00000 418.400000
13267 5636 16578 1 149.00000 418.400000
13267 5637 13341 1 149.00000 418.400000
13267 5638 14001 1 149.00000 418.400000
13268 5639 15784 1 149.00000 418.400000
13268 5640 13641 1 149.00000 418.400000
13268 5641 16021 1 149.00000 418.400000
13269 5642 15231 1 149.00000 418.400000
13269 5643 16892 1 149.00000 418.400000
13269 5644 14055 1 149.00000 418.400000
13269 5645 15091 1 149.00000 418.400000
13270 5646 14029 1 149.00000 418.400000
13270 5647 15916 1 149.00000 418.400000
13270 5648 15158 1 149.00000 418.400000
13271 5649 17085 1 149.00000 418.400000
13271 5650 14587 1 149.00000 418.400000
13271 5651 15660 1 149.00000 418.400000
13271 5652 17109 1 149.00000 418.400000
14378 5653 15353 1 149.00000 418.400000
13272 5654 14378 1 149.00000 418.400000
13272 5655 14806 1 149.00000 418.400000
13273 5656 14057 1 149.00000 418.400000
13273 5657 14280 1 149.00000 418.400000
13273 5658 15857 1 149.00000 418.400000
13273 5659 16444 1 149.00000 418.400000
16274 5660 17326 1 149.00000 418.400000
13274 5661 13541 1 149.00000 418.400000
13274 5662 16044 1 149.00000 418.400000
13274 5663 14447 1 149.00000 418.400000
13275 5664 14276 1 149.00000 418.400000
13275 5665 13450 1 149.00000 418.400000
13275 5666 13762 1 149.00000 418.400000
13276 5667 15364 1 149.00000 418.400000
13276 5668 17053 1 149.00000 418.400000
13276 5669 14863 1 149.00000 418.400000
13277 5670 14619 1 149.00000 418.400000
13277 5671 16535 1 149.00000 418.400000
13277 5672 13457 1 149.00000 418.400000
13277 5673 16294 1 149.00000 418.400000
13278 5674 14613 1 149.00000 418.400000
13278 5675 13514 1 149.00000 418.400000
13278 5676 13864 1 149.00000 418.400000
13278 5677 13317 1 149.00000 418.400000
13279 5678 15830 1 149.00000 418.400000
13279 5679 14057 1 149.00000 418.400000
13279 5680 16751 1 149.00000 418.400000
13280 5681 17003 1 149.00000 418.400000
13280 5682 14982 1 149.00000 418.400000
13281 5683 15245 1 149.00000 418.400000
13281 5684 14846 1 149.00000 418.400000
13281 5685 16039 1 149.00000 418.400000
13282 5686 16317 1 149.00000 418.400000
13282 5687 14865 1 149.00000 418.400000
13282 5688 14399 1 149.00000 418.400000
13283 5689 14938 1 149.00000 418.400000
13283 5690 15283 1 149.00000 418.400000
13284 5691 16801 1 149.00000 418.400000
13284 5692 14238 1 149.00000 418.400000
13284 5693 15344 1 149.00000 418.400000
12115 5694 13671 1 149.00000 418.400000
13671 5695 16626 1 149.00000 418.400000
13286 5696 15749 1 149.00000 418.400000
13286 5697 15745 1 149.00000 418.400000
13286 5698 16355 1 149.00000 418.400000
13286 5699 16623 1 149.00000 418.400000
13287 5700 13533 1 149.00000 418.400000
13287 5701 16794 1 149.00000 418.400000
13287 5702 16660 1 149.00000 418.400000
13288 5703 15701 1 149.00000 418.400000
13288 5704 13579 1 149.00000 418.400000
13288 5705 16417 1 149.00000 418.400000
13339 5706 14319 1 149.00000 418.400000
13289 5707 15198 1 149.00000 418.400000
13289 5708 13339 1 149.00000 418.400000
13290 5709 15584 1 149.00000 418.400000
13290 5710 13786 1 149.00000 418.400000
13291 5711 14071 1 149.00000 418.400000
13291 5712 14091 1 149.00000 418.400000
13292 5713 14830 1 149.00000 418.400000
13292 5714 17524 1 149.00000 418.400000
13293 5715 14957 1 149.00000 418.400000
13293 5716 13752 1 149.00000 418.400000
13293 5717 14325 1 149.00000 418.400000
13294 5718 15388 1 149.00000 418.400000
13294 5719 14312 1 149.00000 418.400000
13294 5720 16848 1 149.00000 418.400000
13294 5721 16870 1 149.00000 418.400000
13295 5722 15263 1 149.00000 418.400000
13295 5723 15076 1 149.00000 418.400000
13295 5724 15987 1 149.00000 418.400000
13296 5725 16613 1 149.00000 418.400000
13296 5726 14352 1 149.00000 418.400000
13296 5727 17608 1 149.00000 418.400000
13297 5728 15169 1 149.00000 418.400000
13297 5729 14444 1 149.00000 418.400000
13297 5730 15558 1 149.00000 418.400000
13298 5731 15589 1 149.00000 418.400000
13298 5732 14675 1 149.00000 418.400000
13299 5733 13622 1 149.00000 418.400000
13299 5734 13674 1 149.00000 418.400000
13300 5735 16288 1 149.00000 418.400000
13300 5736 13903 1 149.00000 418.400000
16781 5737 17461 1 149.00000 418.400000
13301 5738 16348 1 149.00000 418.400000
13301 5739 13740 1 149.00000 418.400000
13301 5740 16113 1 149.00000 418.400000
13301 5741 15398 1 149.00000 418.400000
13302 5742 16690 1 149.00000 418.400000
13302 5743 13376 1 149.00000 418.400000
15483 5744 16690 1 149.00000 418.400000
13108 5745 13303 1 149.00000 418.400000
13303 5746 14681 1 149.00000 418.400000
13304 5747 15763 1 149.00000 418.400000
13304 5748 14859 1 149.00000 418.400000
13305 5749 15047 1 149.00000 418.400000
13305 5750 14395 1 149.00000 418.400000
13306 5751 14407 1 149.00000 418.400000
13306 5752 14490 1 149.00000 418.400000
13307 5753 13981 1 149.00000 418.400000
13307 5754 13598 1 149.00000 418.400000
13307 5755 16634 1 149.00000 418.400000
13308 5756 14991 1 149.00000 418.400000
13308 5757 14875 1 149.00000 418.400000
13308 5758 14484 1 149.00000 418.400000
13309 5759 15187 1 149.00000 418.400000
15187 5760 17026 1 149.00000 418.400000
13310 5761 15444 1 149.00000 418.400000
13310 5762 13536 1 149.00000 418.400000
13310 5763 16098 1 149.00000 418.400000
15107 5764 15444 1 149.00000 418.400000
13311 5765 13679 1 149.00000 418.400000
13311 5766 16569 1 149.00000 418.400000
13312 5767 16252 1 149.00000 418.400000
13312 5768 14905 1 149.00000 418.400000
13312 5769 15985 1 149.00000 418.400000
13312 5770 14395 1 149.00000 418.400000
13313 5771 15314 1 149.00000 418.400000
13314 5772 16484 1 149.00000 418.400000
13314 5773 15669 1 149.00000 418.400000
13315 5774 14132 1 149.00000 418.400000
13315 5775 14015 1 149.00000 418.400000
13315 5776 16996 1 149.00000 418.400000
13316 5777 13335 1 149.00000 418.400000
13316 5778 13890 1 149.00000 418.400000
13316 5779 15382 1 149.00000 418.400000
13317 5780 14140 1 149.00000 418.400000
13317 5781 14547 1 149.00000 418.400000
13317 5782 14005 1 149.00000 418.400000
13318 5783 15476 1 149.00000 418.400000
13318 5784 13584 1 149.00000 418.400000
13318 5785 15621 1 149.00000 418.400000
13319 5786 16399 1 149.00000 418.400000
13320 5787 14028 1 149.00000 418.400000
13320 5788 16090 1 149.00000 418.400000
13320 5789 14413 1 149.00000 418.400000
13320 5790 16714 1 149.00000 418.400000
15806 5791 16081 1 149.00000 418.400000
13321 5792 15806 1 149.00000 418.400000
13321 5793 15552 1 149.00000 418.400000
13675 5794 14367 1 149.00000 418.400000
13322 5795 14774 1 149.00000 418.400000
13322 5796 14528 1 149.00000 418.400000
13322 5797 14367 1 149.00000 418.400000
13323 5798 14077 1 149.00000 418.400000
11691 5799 13323 1 149.00000 418.400000
13323 5800 14721 1 149.00000 418.400000
13323 5801 14301 1 149.00000 418.400000
13324 5802 13770 1 149.00000 418.400000
13325 5803 15924 1 149.00000 418.400000
13325 5804 15818 1 149.00000 418.400000
13325 5805 16680 1 149.00000 418.400000
13326 5806 16090 1 149.00000 418.400000
13326 5807 15795 1 149.00000 418.400000
13326 5808 15403 1 149.00000 418.400000
13326 5809 16021 1 149.00000 418.400000
13327 5810 16214 1 149.00000 418.400000
13327 5811 15433 1 149.00000 418.400000
13328 5812 13499 1 149.00000 418.400000
13328 5813 14630 1 149.00000 418.400000
13328 5814 13389 1 149.00000 418.400000
13329 5815 17026 1 149.00000 418.400000
13329 5816 16532 1 149.00000 418.400000
13329 5817 13952 1 149.00000 418.400000
13330 5818 16683 1 149.00000 418.400000
13330 5819 16954 1 149.00000 418.400000
13253 5820 14196 1 149.00000 418.400000
13331 5821 14619 1 149.00000 418.400000
13332 5822 15007 1 149.00000 418.400000
13332 5823 16869 1 149.00000 418.400000
13709 5824 15852 1 149.00000 418.400000
13333 5825 15852 1 149.00000 418.400000
13333 5826 15818 1 149.00000 418.400000
13333 5827 14383 1 149.00000 418.400000
14697 5828 14749 1 149.00000 418.400000
14749 5829 17464 1 149.00000 418.400000
13334 5830 13597 1 149.00000 418.400000
13335 5831 15673 1 149.00000 418.400000
13336 5832 15804 1 149.00000 418.400000
13336 5833 14733 1 149.00000 418.400000
13336 5834 17575 1 149.00000 418.400000
13337 5835 14523 1 149.00000 418.400000
13337 5836 15155 1 149.00000 418.400000
14886 5837 15155 1 149.00000 418.400000
14757 5838 15155 1 149.00000 418.400000
13338 5839 16977 1 149.00000 418.400000
15235 5840 16977 1 149.00000 418.400000
16977 5841 17983 1 149.00000 418.400000
16827 5842 16977 1 149.00000 418.400000
13339 5843 15541 1 149.00000 418.400000
13289 5844 17014 1 149.00000 418.400000
13340 5845 18069 1 149.00000 418.400000
13340 5846 13588 1 149.00000 418.400000
13341 5847 14272 1 149.00000 418.400000
13341 5848 17650 1 149.00000 418.400000
13341 5849 15424 1 149.00000 418.400000
13342 5850 16556 1 149.00000 418.400000
13342 5851 14711 1 149.00000 418.400000
13342 5852 15447 1 149.00000 418.400000
13343 5853 16759 1 149.00000 418.400000
13344 5854 17620 1 149.00000 418.400000
13344 5855 14340 1 149.00000 418.400000
13344 5856 15951 1 149.00000 418.400000
13344 5857 16291 1 149.00000 418.400000
13048 5858 13345 1 149.00000 418.400000
13345 5859 13828 1 149.00000 418.400000
13346 5860 16124 1 149.00000 418.400000
15683 5861 16124 1 149.00000 418.400000
13347 5862 16461 1 149.00000 418.400000
14724 5863 15619 1 149.00000 418.400000
13347 5864 15619 1 149.00000 418.400000
13348 5865 15905 1 149.00000 418.400000
13348 5866 17539 1 149.00000 418.400000
13348 5867 16646 1 149.00000 418.400000
13349 5868 14993 1 149.00000 418.400000
13349 5869 16946 1 149.00000 418.400000
13350 5870 15741 1 149.00000 418.400000
13350 5871 14160 1 149.00000 418.400000
13350 5872 16304 1 149.00000 418.400000
13351 5873 13503 1 149.00000 418.400000
13351 5874 15714 1 149.00000 418.400000
13351 5875 14002 1 149.00000 418.400000
13352 5876 13826 1 149.00000 418.400000
13352 5877 14290 1 149.00000 418.400000
13352 5878 13755 1 149.00000 418.400000
11857 5879 13352 1 149.00000 418.400000
13353 5880 14251 1 149.00000 418.400000
13353 5881 14127 1 149.00000 418.400000
13353 5882 14219 1 149.00000 418.400000
13353 5883 16038 1 149.00000 418.400000
13354 5884 15503 1 149.00000 418.400000
13354 5885 13861 1 149.00000 418.400000
13354 5886 16554 1 149.00000 418.400000
13355 5887 17196 1 149.00000 418.400000
13355 5888 15984 1 149.00000 418.400000
13356 5889 13866 1 149.00000 418.400000
13356 5890 14686 1 149.00000 418.400000
13356 5891 15596 1 149.00000 418.400000
13357 5892 13829 1 149.00000 418.400000
12742 5893 13357 1 149.00000 418.400000
13357 5894 15421 1 149.00000 418.400000
13358 5895 14980 1 149.00000 418.400000
13358 5896 16146 1 149.00000 418.400000
13358 5897 15141 1 149.00000 418.400000
13359 5898 16694 1 149.00000 418.400000
13359 5899 16154 1 149.00000 418.400000
13359 5900 15390 1 149.00000 418.400000
13360 5901 14771 1 149.00000 418.400000
13360 5902 13603 1 149.00000 418.400000
13360 5903 14166 1 149.00000 418.400000
13361 5904 13885 1 149.00000 418.400000
13361 5905 15182 1 149.00000 418.400000
13361 5906 16774 1 149.00000 418.400000
13361 5907 14013 1 149.00000 418.400000
13362 5908 16157 1 149.00000 418.400000
12447 5909 13362 1 149.00000 418.400000
13362 5910 13652 1 149.00000 418.400000
13363 5911 14846 1 149.00000 418.400000
13363 5912 13940 1 149.00000 418.400000
13363 5913 15637 1 149.00000 418.400000
13364 5914 15629 1 149.00000 418.400000
13364 5915 15739 1 149.00000 418.400000
13364 5916 13682 1 149.00000 418.400000
13365 5917 13696 1 149.00000 418.400000
13365 5918 14103 1 149.00000 418.400000
13366 5919 16929 1 149.00000 418.400000
11812 5920 13367 1 149.00000 418.400000
13367 5921 15852 1 149.00000 418.400000
13367 5922 13737 1 149.00000 418.400000
13368 5923 16543 1 149.00000 418.400000
13368 5924 16282 1 149.00000 418.400000
13368 5925 13603 1 149.00000 418.400000
13369 5926 14731 1 149.00000 418.400000
12542 5927 13909 1 149.00000 418.400000
13370 5928 16700 1 149.00000 418.400000
13370 5929 15547 1 149.00000 418.400000
13371 5930 14242 1 149.00000 418.400000
13371 5931 16985 1 149.00000 418.400000
13371 5932 14547 1 149.00000 418.400000
13371 5933 14646 1 149.00000 418.400000
13372 5934 14125 1 149.00000 418.400000
13373 5935 15179 1 149.00000 418.400000
13373 5936 14720 1 149.00000 418.400000
13374 5937 14436 1 149.00000 418.400000
13374 5938 13885 1 149.00000 418.400000
13375 5939 14961 1 149.00000 418.400000
13375 5940 13929 1 149.00000 418.400000
13375 5941 15300 1 149.00000 418.400000
13375 5942 14788 1 149.00000 418.400000
16401 5943 16825 1 149.00000 418.400000
14440 5944 16401 1 149.00000 418.400000
13376 5945 16401 1 149.00000 418.400000
13377 5946 15666 1 149.00000 418.400000
13377 5947 15665 1 149.00000 418.400000
13377 5948 13604 1 149.00000 418.400000
13378 5949 17020 1 149.00000 418.400000
13378 5950 14286 1 149.00000 418.400000
13378 5951 13527 1 149.00000 418.400000
13378 5952 13909 1 149.00000 418.400000
13379 5953 14371 1 149.00000 418.400000
13379 5954 16034 1 149.00000 418.400000
13115 5955 13379 1 149.00000 418.400000
13379 5956 16725 1 149.00000 418.400000
13380 5957 14640 1 149.00000 418.400000
13380 5958 14141 1 149.00000 418.400000
13380 5959 13890 1 149.00000 418.400000
13380 5960 15854 1 149.00000 418.400000
13381 5961 13856 1 149.00000 418.400000
13381 5962 14070 1 149.00000 418.400000
14836 5963 15612 1 149.00000 418.400000
13382 5964 13734 1 149.00000 418.400000
13382 5965 14836 1 149.00000 418.400000
13383 5966 16010 1 149.00000 418.400000
13383 5967 15785 1 149.00000 418.400000
13384 5968 14389 1 149.00000 418.400000
13042 5969 13384 1 149.00000 418.400000
13385 5970 14700 1 149.00000 418.400000
13385 5971 14685 1 149.00000 418.400000
13385 5972 13936 1 149.00000 418.400000
13798 5973 14700 1 149.00000 418.400000
13386 5974 17147 1 149.00000 418.400000
13386 5975 13790 1 149.00000 418.400000
13387 5976 14070 1 149.00000 418.400000
13387 5977 15806 1 149.00000 418.400000
13901 5978 14673 1 149.00000 418.400000
15374 5979 17467 1 149.00000 418.400000
13901 5980 17467 1 149.00000 418.400000
13901 5981 15334 1 149.00000 418.400000
13388 5982 14427 1 149.00000 418.400000
13388 5983 13585 1 149.00000 418.400000
13389 5984 16091 1 149.00000 418.400000
13389 5985 14567 1 149.00000 418.400000
13389 5986 13683 1 149.00000 418.400000
13390 5987 17005 1 149.00000 418.400000
13390 5988 16086 1 149.00000 418.400000
13391 5989 16569 1 149.00000 418.400000
13391 5990 15125 1 149.00000 418.400000
13392 5991 15921 1 149.00000 418.400000
13392 5992 13562 1 149.00000 418.400000
13393 5993 15758 1 149.00000 418.400000
13393 5994 13945 1 149.00000 418.400000
13393 5995 16931 1 149.00000 418.400000
13393 5996 15404 1 149.00000 418.400000
13394 5997 18001 1 149.00000 418.400000
13394 5998 14384 1 149.00000 418.400000
13395 5999 16379 1 149.00000 418.400000
15627 6000 17470 1 149.00000 418.400000
17094 6001 17470 1 149.00000 418.400000
13396 6002 15872 1 149.00000 418.400000
13396 6003 14169 1 149.00000 418.400000
13396 6004 13431 1 149.00000 418.400000
13397 6005 16999 1 149.00000 418.400000
13397 6006 15896 1 149.00000 418.400000
13398 6007 16040 1 149.00000 418.400000
13398 6008 13504 1 149.00000 418.400000
13398 6009 16021 1 149.00000 418.400000
13398 6010 14136 1 149.00000 418.400000
13399 6011 16066 1 149.00000 418.400000
13399 6012 16531 1 149.00000 418.400000
13400 6013 13479 1 149.00000 418.400000
13400 6014 15242 1 149.00000 418.400000
13400 6015 15635 1 149.00000 418.400000
13401 6016 17095 1 149.00000 418.400000
13401 6017 15131 1 149.00000 418.400000
13401 6018 15469 1 149.00000 418.400000
13401 6019 16912 1 149.00000 418.400000
11905 6020 13728 1 149.00000 418.400000
11905 6021 16862 1 149.00000 418.400000
13403 6022 15950 1 149.00000 418.400000
13403 6023 14104 1 149.00000 418.400000
13403 6024 14122 1 149.00000 418.400000
13403 6025 15304 1 149.00000 418.400000
13404 6026 17500 1 149.00000 418.400000
13404 6027 15763 1 149.00000 418.400000
13405 6028 14095 1 149.00000 418.400000
13405 6029 15734 1 149.00000 418.400000
13405 6030 16695 1 149.00000 418.400000
16673 6031 18059 1 149.00000 418.400000
16673 6032 17473 1 149.00000 418.400000
13406 6033 14038 1 149.00000 418.400000
13406 6034 14924 1 149.00000 418.400000
13407 6035 13956 1 149.00000 418.400000
13407 6036 17162 1 149.00000 418.400000
13407 6037 14243 1 149.00000 418.400000
13408 6038 13458 1 149.00000 418.400000
13409 6039 14392 1 149.00000 418.400000
13409 6040 16767 1 149.00000 418.400000
13409 6041 14010 1 149.00000 418.400000
13409 6042 16212 1 149.00000 418.400000
13410 6043 16879 1 149.00000 418.400000
13410 6044 14873 1 149.00000 418.400000
13410 6045 16310 1 149.00000 418.400000
13410 6046 16812 1 149.00000 418.400000
13411 6047 16422 1 149.00000 418.400000
13411 6048 14599 1 149.00000 418.400000
13411 6049 16006 1 149.00000 418.400000
13412 6050 17103 1 149.00000 418.400000
14095 6051 18049 1 149.00000 418.400000
13413 6052 15390 1 149.00000 418.400000
13413 6053 16122 1 149.00000 418.400000
13413 6054 15234 1 149.00000 418.400000
13414 6055 15426 1 149.00000 418.400000
13414 6056 14288 1 149.00000 418.400000
13414 6057 17584 1 149.00000 418.400000
13415 6058 15275 1 149.00000 418.400000
13415 6059 16753 1 149.00000 418.400000
13415 6060 16574 1 149.00000 418.400000
13417 6061 17040 1 149.00000 418.400000
13418 6062 13584 1 149.00000 418.400000
13418 6063 15266 1 149.00000 418.400000
13418 6064 16449 1 149.00000 418.400000
13419 6065 13812 1 149.00000 418.400000
13419 6066 17097 1 149.00000 418.400000
13419 6067 16047 1 149.00000 418.400000
13420 6068 16440 1 149.00000 418.400000
13420 6069 13955 1 149.00000 418.400000
13421 6070 16202 1 149.00000 418.400000
13421 6071 15595 1 149.00000 418.400000
13421 6072 16968 1 149.00000 418.400000
13421 6073 14815 1 149.00000 418.400000
13422 6074 14730 1 149.00000 418.400000
13422 6075 14724 1 149.00000 418.400000
13423 6076 17169 1 149.00000 418.400000
13423 6077 15307 1 149.00000 418.400000
13423 6078 16600 1 149.00000 418.400000
13424 6079 14387 1 149.00000 418.400000
13424 6080 15967 1 149.00000 418.400000
13425 6081 15247 1 149.00000 418.400000
13425 6082 15708 1 149.00000 418.400000
13425 6083 14910 1 149.00000 418.400000
13426 6084 14140 1 149.00000 418.400000
13426 6085 14917 1 149.00000 418.400000
13426 6086 13852 1 149.00000 418.400000
13426 6087 15273 1 149.00000 418.400000
13427 6088 17164 1 149.00000 418.400000
13427 6089 15901 1 149.00000 418.400000
13428 6090 15842 1 149.00000 418.400000
13428 6091 16599 1 149.00000 418.400000
13428 6092 14613 1 149.00000 418.400000
13428 6093 14327 1 149.00000 418.400000
13429 6094 15631 1 149.00000 418.400000
13429 6095 16849 1 149.00000 418.400000
13429 6096 13768 1 149.00000 418.400000
13430 6097 13818 1 149.00000 418.400000
13430 6098 13880 1 149.00000 418.400000
14908 6099 17479 1 149.00000 418.400000
17479 6100 17965 1 149.00000 418.400000
14518 6101 17479 1 149.00000 418.400000
13431 6102 15373 1 149.00000 418.400000
13431 6103 17101 1 149.00000 418.400000
13432 6104 16543 1 149.00000 418.400000
13432 6105 13940 1 149.00000 418.400000
13432 6106 14737 1 149.00000 418.400000
13432 6107 15073 1 149.00000 418.400000
16429 6108 17482 1 149.00000 418.400000
16407 6109 17482 1 149.00000 418.400000
15829 6110 17482 1 149.00000 418.400000
13433 6111 14967 1 149.00000 418.400000
15423 6112 15724 1 149.00000 418.400000
13433 6113 15423 1 149.00000 418.400000
16533 6114 16592 1 149.00000 418.400000
13434 6115 16105 1 149.00000 418.400000
12973 6116 13435 1 149.00000 418.400000
13435 6117 16839 1 149.00000 418.400000
13436 6118 16657 1 149.00000 418.400000
13437 6119 16337 1 149.00000 418.400000
13437 6120 13471 1 149.00000 418.400000
13437 6121 14165 1 149.00000 418.400000
13438 6122 16406 1 149.00000 418.400000
13438 6123 14212 1 149.00000 418.400000
13439 6124 15042 1 149.00000 418.400000
13439 6125 16434 1 149.00000 418.400000
13439 6126 15084 1 149.00000 418.400000
13439 6127 13634 1 149.00000 418.400000
13440 6128 13864 1 149.00000 418.400000
12403 6129 13441 1 149.00000 418.400000
13441 6130 17806 1 149.00000 418.400000
13441 6131 14642 1 149.00000 418.400000
13442 6132 13443 1 149.00000 418.400000
13442 6133 13650 1 149.00000 418.400000
13442 6134 15944 1 149.00000 418.400000
13895 6135 15851 1 149.00000 418.400000
13443 6136 13474 1 149.00000 418.400000
13444 6137 15349 1 149.00000 418.400000
13444 6138 13964 1 149.00000 418.400000
13444 6139 14252 1 149.00000 418.400000
13444 6140 16542 1 149.00000 418.400000
13445 6141 13610 1 149.00000 418.400000
13445 6142 16448 1 149.00000 418.400000
13445 6143 14558 1 149.00000 418.400000
13446 6144 16581 1 149.00000 418.400000
14480 6145 15079 1 149.00000 418.400000
13447 6146 14480 1 149.00000 418.400000
14480 6147 16268 1 149.00000 418.400000
13448 6148 13935 1 149.00000 418.400000
13448 6149 16019 1 149.00000 418.400000
13449 6150 17959 1 149.00000 418.400000
13449 6151 17186 1 149.00000 418.400000
13449 6152 16108 1 149.00000 418.400000
13449 6153 15973 1 149.00000 418.400000
13450 6154 14519 1 149.00000 418.400000
13451 6155 14511 1 149.00000 418.400000
13451 6156 14688 1 149.00000 418.400000
13451 6157 14334 1 149.00000 418.400000
13452 6158 16369 1 149.00000 418.400000
13452 6159 14306 1 149.00000 418.400000
13453 6160 14727 1 149.00000 418.400000
12979 6161 13969 1 149.00000 418.400000
13969 6162 16231 1 149.00000 418.400000
13454 6163 13921 1 149.00000 418.400000
13454 6164 14040 1 149.00000 418.400000
13455 6165 14776 1 149.00000 418.400000
13455 6166 14277 1 149.00000 418.400000
14645 6167 16907 1 149.00000 418.400000
13456 6168 16395 1 149.00000 418.400000
13456 6169 15977 1 149.00000 418.400000
13456 6170 14645 1 149.00000 418.400000
13457 6171 15900 1 149.00000 418.400000
13457 6172 17737 1 149.00000 418.400000
13458 6173 14815 1 149.00000 418.400000
13458 6174 14787 1 149.00000 418.400000
16427 6175 17199 1 149.00000 418.400000
13459 6176 13916 1 149.00000 418.400000
13459 6177 16824 1 149.00000 418.400000
12106 6178 17199 1 149.00000 418.400000
13460 6179 15384 1 149.00000 418.400000
13460 6180 13492 1 149.00000 418.400000
13461 6181 16198 1 149.00000 418.400000
13461 6182 16866 1 149.00000 418.400000
13461 6183 14560 1 149.00000 418.400000
13461 6184 14740 1 149.00000 418.400000
13462 6185 14848 1 149.00000 418.400000
13462 6186 17548 1 149.00000 418.400000
13462 6187 16375 1 149.00000 418.400000
13463 6188 13721 1 149.00000 418.400000
13463 6189 16912 1 149.00000 418.400000
13463 6190 14673 1 149.00000 418.400000
13463 6191 13984 1 149.00000 418.400000
13464 6192 14878 1 149.00000 418.400000
13465 6193 14934 1 149.00000 418.400000
13465 6194 14058 1 149.00000 418.400000
13465 6195 15323 1 149.00000 418.400000
13465 6196 14617 1 149.00000 418.400000
16429 6197 17485 1 149.00000 418.400000
15546 6198 17485 1 149.00000 418.400000
14469 6199 14826 1 149.00000 418.400000
13466 6200 16394 1 149.00000 418.400000
13466 6201 15033 1 149.00000 418.400000
13466 6202 13746 1 149.00000 418.400000
13467 6203 13891 1 149.00000 418.400000
13467 6204 13839 1 149.00000 418.400000
13468 6205 14691 1 149.00000 418.400000
13468 6206 16634 1 149.00000 418.400000
13468 6207 15315 1 149.00000 418.400000
13469 6208 14851 1 149.00000 418.400000
13469 6209 14843 1 149.00000 418.400000
13470 6210 15357 1 149.00000 418.400000
13470 6211 16493 1 149.00000 418.400000
13470 6212 14940 1 149.00000 418.400000
13470 6213 16898 1 149.00000 418.400000
13471 6214 13710 1 149.00000 418.400000
13472 6215 14080 1 149.00000 418.400000
13472 6216 13659 1 149.00000 418.400000
13472 6217 14370 1 149.00000 418.400000
13473 6218 15629 1 149.00000 418.400000
13473 6219 15659 1 149.00000 418.400000
13474 6220 16157 1 149.00000 418.400000
13475 6221 17071 1 149.00000 418.400000
13130 6222 13475 1 149.00000 418.400000
13476 6223 16225 1 149.00000 418.400000
13476 6224 14532 1 149.00000 418.400000
13476 6225 16455 1 149.00000 418.400000
13477 6226 15172 1 149.00000 418.400000
13477 6227 16691 1 149.00000 418.400000
13477 6228 14512 1 149.00000 418.400000
15823 6229 17488 1 149.00000 418.400000
13478 6230 17156 1 149.00000 418.400000
13478 6231 14497 1 149.00000 418.400000
13478 6232 17710 1 149.00000 418.400000
17332 6233 17491 1 149.00000 418.400000
12791 6234 14402 1 149.00000 418.400000
13479 6235 17830 1 149.00000 418.400000
13480 6236 14747 1 149.00000 418.400000
13480 6237 13904 1 149.00000 418.400000
13480 6238 15567 1 149.00000 418.400000
13481 6239 16532 1 149.00000 418.400000
13481 6240 14322 1 149.00000 418.400000
13481 6241 17044 1 149.00000 418.400000
13481 6242 17104 1 149.00000 418.400000
13482 6243 14222 1 149.00000 418.400000
13482 6244 15687 1 149.00000 418.400000
13483 6245 16826 1 149.00000 418.400000
13484 6246 15597 1 149.00000 418.400000
13484 6247 16433 1 149.00000 418.400000
13485 6248 16198 1 149.00000 418.400000
13485 6249 14916 1 149.00000 418.400000
13485 6250 13630 1 149.00000 418.400000
13486 6251 17941 1 149.00000 418.400000
13487 6252 16542 1 149.00000 418.400000
13487 6253 14821 1 149.00000 418.400000
13487 6254 14666 1 149.00000 418.400000
13488 6255 14850 1 149.00000 418.400000
14728 6256 15465 1 149.00000 418.400000
13488 6257 13783 1 149.00000 418.400000
13488 6258 14728 1 149.00000 418.400000
13489 6259 14636 1 149.00000 418.400000
13489 6260 16884 1 149.00000 418.400000
13489 6261 16247 1 149.00000 418.400000
13490 6262 17983 1 149.00000 418.400000
13490 6263 15895 1 149.00000 418.400000
13490 6264 14588 1 149.00000 418.400000
13491 6265 13853 1 149.00000 418.400000
11699 6266 16322 1 149.00000 418.400000
13493 6267 17842 1 149.00000 418.400000
13494 6268 16988 1 149.00000 418.400000
13494 6269 16169 1 149.00000 418.400000
13494 6270 15192 1 149.00000 418.400000
13494 6271 16580 1 149.00000 418.400000
13495 6272 16235 1 149.00000 418.400000
13495 6273 16042 1 149.00000 418.400000
13495 6274 15107 1 149.00000 418.400000
14386 6275 15107 1 149.00000 418.400000
13496 6276 14246 1 149.00000 418.400000
13496 6277 14163 1 149.00000 418.400000
13497 6278 17037 1 149.00000 418.400000
13497 6279 15401 1 149.00000 418.400000
13497 6280 16810 1 149.00000 418.400000
13497 6281 15587 1 149.00000 418.400000
13498 6282 17100 1 149.00000 418.400000
12583 6283 13499 1 149.00000 418.400000
13499 6284 16684 1 149.00000 418.400000
13499 6285 15605 1 149.00000 418.400000
13500 6286 16335 1 149.00000 418.400000
13500 6287 16537 1 149.00000 418.400000
13501 6288 16976 1 149.00000 418.400000
13501 6289 16658 1 149.00000 418.400000
13502 6290 16986 1 149.00000 418.400000
13502 6291 16702 1 149.00000 418.400000
13503 6292 14983 1 149.00000 418.400000
13503 6293 15550 1 149.00000 418.400000
13503 6294 14380 1 149.00000 418.400000
13504 6295 16404 1 149.00000 418.400000
13504 6296 16349 1 149.00000 418.400000
13505 6297 16391 1 149.00000 418.400000
13505 6298 16480 1 149.00000 418.400000
13505 6299 15946 1 149.00000 418.400000
13505 6300 16048 1 149.00000 418.400000
13506 6301 14915 1 149.00000 418.400000
13506 6302 16778 1 149.00000 418.400000
13506 6303 16344 1 149.00000 418.400000
13507 6304 16701 1 149.00000 418.400000
13507 6305 16648 1 149.00000 418.400000
13508 6306 14615 1 149.00000 418.400000
13508 6307 15239 1 149.00000 418.400000
13508 6308 16909 1 149.00000 418.400000
13509 6309 15436 1 149.00000 418.400000
13509 6310 17668 1 149.00000 418.400000
13510 6311 14153 1 149.00000 418.400000
13510 6312 14782 1 149.00000 418.400000
13510 6313 13532 1 149.00000 418.400000
13511 6314 15277 1 149.00000 418.400000
13511 6315 15959 1 149.00000 418.400000
13512 6316 16658 1 149.00000 418.400000
13512 6317 16436 1 149.00000 418.400000
13512 6318 14300 1 149.00000 418.400000
13513 6319 15419 1 149.00000 418.400000
13513 6320 15013 1 149.00000 418.400000
13447 6321 13513 1 149.00000 418.400000
13513 6322 16968 1 149.00000 418.400000
13514 6323 14072 1 149.00000 418.400000
13514 6324 15842 1 149.00000 418.400000
13515 6325 17032 1 149.00000 418.400000
13515 6326 14437 1 149.00000 418.400000
13515 6327 13981 1 149.00000 418.400000
13516 6328 17036 1 149.00000 418.400000
13516 6329 17102 1 149.00000 418.400000
13516 6330 16376 1 149.00000 418.400000
13517 6331 15085 1 149.00000 418.400000
13517 6332 16925 1 149.00000 418.400000
13517 6333 15856 1 149.00000 418.400000
13517 6334 14334 1 149.00000 418.400000
13518 6335 17701 1 149.00000 418.400000
13519 6336 14775 1 149.00000 418.400000
14775 6337 16448 1 149.00000 418.400000
13520 6338 14056 1 149.00000 418.400000
13520 6339 16806 1 149.00000 418.400000
13521 6340 17190 1 149.00000 418.400000
13521 6341 17989 1 149.00000 418.400000
13521 6342 15779 1 149.00000 418.400000
13522 6343 16137 1 149.00000 418.400000
16137 6344 16232 1 149.00000 418.400000
13522 6345 16835 1 149.00000 418.400000
13523 6346 13861 1 149.00000 418.400000
13523 6347 15830 1 149.00000 418.400000
13523 6348 17108 1 149.00000 418.400000
13523 6349 13699 1 149.00000 418.400000
14872 6350 17494 1 149.00000 418.400000
17044 6351 17494 1 149.00000 418.400000
13524 6352 16994 1 149.00000 418.400000
13524 6353 16784 1 149.00000 418.400000
13525 6354 13703 1 149.00000 418.400000
13525 6355 17179 1 149.00000 418.400000
13082 6356 16212 1 149.00000 418.400000
13526 6357 14636 1 149.00000 418.400000
13527 6358 14290 1 149.00000 418.400000
13527 6359 15675 1 149.00000 418.400000
13528 6360 16232 1 149.00000 418.400000
14354 6361 16015 1 149.00000 418.400000
13528 6362 15442 1 149.00000 418.400000
13528 6363 14354 1 149.00000 418.400000
13529 6364 14113 1 149.00000 418.400000
13529 6365 14758 1 149.00000 418.400000
13529 6366 16158 1 149.00000 418.400000
13529 6367 15146 1 149.00000 418.400000
13530 6368 13741 1 149.00000 418.400000
12936 6369 13530 1 149.00000 418.400000
13530 6370 14482 1 149.00000 418.400000
13531 6371 15654 1 149.00000 418.400000
13531 6372 15034 1 149.00000 418.400000
13531 6373 15871 1 149.00000 418.400000
13532 6374 16986 1 149.00000 418.400000
13532 6375 16004 1 149.00000 418.400000
13533 6376 15456 1 149.00000 418.400000
13533 6377 15691 1 149.00000 418.400000
13534 6378 16532 1 149.00000 418.400000
13534 6379 14078 1 149.00000 418.400000
13534 6380 14872 1 149.00000 418.400000
13535 6381 16812 1 149.00000 418.400000
13536 6382 15803 1 149.00000 418.400000
13639 6383 17497 1 149.00000 418.400000
17497 6384 17701 1 149.00000 418.400000
13537 6385 14490 1 149.00000 418.400000
13537 6386 17947 1 149.00000 418.400000
13538 6387 14237 1 149.00000 418.400000
13538 6388 14754 1 149.00000 418.400000
13538 6389 15188 1 149.00000 418.400000
13538 6390 16488 1 149.00000 418.400000
13539 6391 16299 1 149.00000 418.400000
13539 6392 13545 1 149.00000 418.400000
13539 6393 16883 1 149.00000 418.400000
13539 6394 17019 1 149.00000 418.400000
13540 6395 13815 1 149.00000 418.400000
13540 6396 16057 1 149.00000 418.400000
13540 6397 14884 1 149.00000 418.400000
13541 6398 13686 1 149.00000 418.400000
13541 6399 16259 1 149.00000 418.400000
13686 6400 15310 1 149.00000 418.400000
15400 6401 16763 1 149.00000 418.400000
13542 6402 14197 1 149.00000 418.400000
13542 6403 15365 1 149.00000 418.400000
13543 6404 17044 1 149.00000 418.400000
13543 6405 15634 1 149.00000 418.400000
13543 6406 13557 1 149.00000 418.400000
13544 6407 13966 1 149.00000 418.400000
13544 6408 16557 1 149.00000 418.400000
13545 6409 15375 1 149.00000 418.400000
13546 6410 13976 1 149.00000 418.400000
13546 6411 16330 1 149.00000 418.400000
15043 6412 16326 1 149.00000 418.400000
15017 6413 16326 1 149.00000 418.400000
13547 6414 16326 1 149.00000 418.400000
13548 6415 15411 1 149.00000 418.400000
13549 6416 16756 1 149.00000 418.400000
16138 6417 16309 1 149.00000 418.400000
13549 6418 16309 1 149.00000 418.400000
13550 6419 13871 1 149.00000 418.400000
13550 6420 16681 1 149.00000 418.400000
13551 6421 14765 1 149.00000 418.400000
13551 6422 16082 1 149.00000 418.400000
13552 6423 13700 1 149.00000 418.400000
13553 6424 14487 1 149.00000 418.400000
13553 6425 16597 1 149.00000 418.400000
13553 6426 14656 1 149.00000 418.400000
13553 6427 17557 1 149.00000 418.400000
13554 6428 16271 1 149.00000 418.400000
13554 6429 14903 1 149.00000 418.400000
13555 6430 15968 1 149.00000 418.400000
13555 6431 13981 1 149.00000 418.400000
13556 6432 16583 1 149.00000 418.400000
13556 6433 13999 1 149.00000 418.400000
13557 6434 15286 1 149.00000 418.400000
13557 6435 15759 1 149.00000 418.400000
13557 6436 15600 1 149.00000 418.400000
15759 6437 16914 1 149.00000 418.400000
13558 6438 14343 1 149.00000 418.400000
13558 6439 14633 1 149.00000 418.400000
13559 6440 15767 1 149.00000 418.400000
13559 6441 16402 1 149.00000 418.400000
13559 6442 16025 1 149.00000 418.400000
13560 6443 14087 1 149.00000 418.400000
13560 6444 13860 1 149.00000 418.400000
13560 6445 13939 1 149.00000 418.400000
13560 6446 14271 1 149.00000 418.400000
13561 6447 13989 1 149.00000 418.400000
13561 6448 14337 1 149.00000 418.400000
13561 6449 14359 1 149.00000 418.400000
13562 6450 13996 1 149.00000 418.400000
13562 6451 15307 1 149.00000 418.400000
13562 6452 16106 1 149.00000 418.400000
13563 6453 14947 1 149.00000 418.400000
13563 6454 16016 1 149.00000 418.400000
13563 6455 16260 1 149.00000 418.400000
13564 6456 14248 1 149.00000 418.400000
13564 6457 13645 1 149.00000 418.400000
13564 6458 14597 1 149.00000 418.400000
13564 6459 16465 1 149.00000 418.400000
13565 6460 14896 1 149.00000 418.400000
13565 6461 14196 1 149.00000 418.400000
13565 6462 14499 1 149.00000 418.400000
13565 6463 15735 1 149.00000 418.400000
13566 6464 14924 1 149.00000 418.400000
13566 6465 15798 1 149.00000 418.400000
13566 6466 16336 1 149.00000 418.400000
13567 6467 15844 1 149.00000 418.400000
12729 6468 14358 1 149.00000 418.400000
13568 6469 14235 1 149.00000 418.400000
12729 6470 15166 1 149.00000 418.400000
13569 6471 14406 1 149.00000 418.400000
13569 6472 14963 1 149.00000 418.400000
13570 6473 16179 1 149.00000 418.400000
13570 6474 15804 1 149.00000 418.400000
13570 6475 16273 1 149.00000 418.400000
13571 6476 13744 1 149.00000 418.400000
13571 6477 15331 1 149.00000 418.400000
13571 6478 16021 1 149.00000 418.400000
13114 6479 13572 1 149.00000 418.400000
13573 6480 16373 1 149.00000 418.400000
13573 6481 14329 1 149.00000 418.400000
13573 6482 15531 1 149.00000 418.400000
13574 6483 15359 1 149.00000 418.400000
13574 6484 16044 1 149.00000 418.400000
13574 6485 14752 1 149.00000 418.400000
14045 6486 17503 1 149.00000 418.400000
14788 6487 17503 1 149.00000 418.400000
14788 6488 17674 1 149.00000 418.400000
13575 6489 15156 1 149.00000 418.400000
13576 6490 14385 1 149.00000 418.400000
13576 6491 15915 1 149.00000 418.400000
12510 6492 17794 1 149.00000 418.400000
13577 6493 14894 1 149.00000 418.400000
13577 6494 16673 1 149.00000 418.400000
13577 6495 16102 1 149.00000 418.400000
12296 6496 13577 1 149.00000 418.400000
13578 6497 14318 1 149.00000 418.400000
13578 6498 15274 1 149.00000 418.400000
13578 6499 14780 1 149.00000 418.400000
13578 6500 17986 1 149.00000 418.400000
13579 6501 15311 1 149.00000 418.400000
13579 6502 13709 1 149.00000 418.400000
13580 6503 14621 1 149.00000 418.400000
13580 6504 16542 1 149.00000 418.400000
13581 6505 16856 1 149.00000 418.400000
13581 6506 13915 1 149.00000 418.400000
13582 6507 16222 1 149.00000 418.400000
13583 6508 15558 1 149.00000 418.400000
13583 6509 15527 1 149.00000 418.400000
13583 6510 13852 1 149.00000 418.400000
13583 6511 15088 1 149.00000 418.400000
13584 6512 16940 1 149.00000 418.400000
13585 6513 16164 1 149.00000 418.400000
13585 6514 15450 1 149.00000 418.400000
13586 6515 14200 1 149.00000 418.400000
13586 6516 16132 1 149.00000 418.400000
13587 6517 17878 1 149.00000 418.400000
13587 6518 13880 1 149.00000 418.400000
15332 6519 17878 1 149.00000 418.400000
13589 6520 16779 1 149.00000 418.400000
13589 6521 14614 1 149.00000 418.400000
13590 6522 13675 1 149.00000 418.400000
13590 6523 15826 1 149.00000 418.400000
13590 6524 14405 1 149.00000 418.400000
13591 6525 16850 1 149.00000 418.400000
13592 6526 14408 1 149.00000 418.400000
13593 6527 13772 1 149.00000 418.400000
13593 6528 14554 1 149.00000 418.400000
13593 6529 17068 1 149.00000 418.400000
13594 6530 16994 1 149.00000 418.400000
13594 6531 16527 1 149.00000 418.400000
13595 6532 14388 1 149.00000 418.400000
13595 6533 15151 1 149.00000 418.400000
13595 6534 13877 1 149.00000 418.400000
13595 6535 13642 1 149.00000 418.400000
13596 6536 14544 1 149.00000 418.400000
13596 6537 14151 1 149.00000 418.400000
13597 6538 17016 1 149.00000 418.400000
13597 6539 14944 1 149.00000 418.400000
13599 6540 15923 1 149.00000 418.400000
13599 6541 16093 1 149.00000 418.400000
13599 6542 14916 1 149.00000 418.400000
13599 6543 16962 1 149.00000 418.400000
13600 6544 13729 1 149.00000 418.400000
13600 6545 14353 1 149.00000 418.400000
14353 6546 14918 1 149.00000 418.400000
11879 6547 14157 1 149.00000 418.400000
11879 6548 16202 1 149.00000 418.400000
11879 6549 16160 1 149.00000 418.400000
13602 6550 14599 1 149.00000 418.400000
13602 6551 14126 1 149.00000 418.400000
14126 6552 16422 1 149.00000 418.400000
13603 6553 13956 1 149.00000 418.400000
13603 6554 15752 1 149.00000 418.400000
11775 6555 13604 1 149.00000 418.400000
16503 6556 17506 1 149.00000 418.400000
17506 6557 17518 1 149.00000 418.400000
13605 6558 15129 1 149.00000 418.400000
13606 6559 16889 1 149.00000 418.400000
13606 6560 17509 1 149.00000 418.400000
13606 6561 14837 1 149.00000 418.400000
13606 6562 17093 1 149.00000 418.400000
13607 6563 15536 1 149.00000 418.400000
13607 6564 16544 1 149.00000 418.400000
13607 6565 15425 1 149.00000 418.400000
13608 6566 16567 1 149.00000 418.400000
13608 6567 17974 1 149.00000 418.400000
13608 6568 17668 1 149.00000 418.400000
13609 6569 15399 1 149.00000 418.400000
13609 6570 16662 1 149.00000 418.400000
13610 6571 16750 1 149.00000 418.400000
13611 6572 15448 1 149.00000 418.400000
13611 6573 15794 1 149.00000 418.400000
15448 6574 17590 1 149.00000 418.400000
13612 6575 16932 1 149.00000 418.400000
13612 6576 15602 1 149.00000 418.400000
13612 6577 15809 1 149.00000 418.400000
13613 6578 16948 1 149.00000 418.400000
13613 6579 15657 1 149.00000 418.400000
13613 6580 14077 1 149.00000 418.400000
13614 6581 16357 1 149.00000 418.400000
13615 6582 15635 1 149.00000 418.400000
13615 6583 14123 1 149.00000 418.400000
13615 6584 16454 1 149.00000 418.400000
13615 6585 15400 1 149.00000 418.400000
13616 6586 15630 1 149.00000 418.400000
15630 6587 16422 1 149.00000 418.400000
14380 6588 15293 1 149.00000 418.400000
13617 6589 15293 1 149.00000 418.400000
13617 6590 15196 1 149.00000 418.400000
13617 6591 14274 1 149.00000 418.400000
13618 6592 14117 1 149.00000 418.400000
13618 6593 13666 1 149.00000 418.400000
13619 6594 16116 1 149.00000 418.400000
13619 6595 16182 1 149.00000 418.400000
13619 6596 15945 1 149.00000 418.400000
13620 6597 16450 1 149.00000 418.400000
13620 6598 15058 1 149.00000 418.400000
13620 6599 14287 1 149.00000 418.400000
14556 6600 17509 1 149.00000 418.400000
15289 6601 17509 1 149.00000 418.400000
13621 6602 15393 1 149.00000 418.400000
13621 6603 16010 1 149.00000 418.400000
13621 6604 15267 1 149.00000 418.400000
13621 6605 16239 1 149.00000 418.400000
13622 6606 14871 1 149.00000 418.400000
13622 6607 15223 1 149.00000 418.400000
13623 6608 15000 1 149.00000 418.400000
13623 6609 14695 1 149.00000 418.400000
13623 6610 15761 1 149.00000 418.400000
13623 6611 14196 1 149.00000 418.400000
13624 6612 15860 1 149.00000 418.400000
13624 6613 15210 1 149.00000 418.400000
13624 6614 16211 1 149.00000 418.400000
13625 6615 15277 1 149.00000 418.400000
13617 6616 13625 1 149.00000 418.400000
13625 6617 16671 1 149.00000 418.400000
13626 6618 15305 1 149.00000 418.400000
13626 6619 16398 1 149.00000 418.400000
13627 6620 14776 1 149.00000 418.400000
13627 6621 16726 1 149.00000 418.400000
14069 6622 14776 1 149.00000 418.400000
13628 6623 15811 1 149.00000 418.400000
13628 6624 15451 1 149.00000 418.400000
13629 6625 16069 1 149.00000 418.400000
13629 6626 15396 1 149.00000 418.400000
13629 6627 16210 1 149.00000 418.400000
13629 6628 15883 1 149.00000 418.400000
13630 6629 15820 1 149.00000 418.400000
13630 6630 15368 1 149.00000 418.400000
13631 6631 14947 1 149.00000 418.400000
13631 6632 16325 1 149.00000 418.400000
13633 6633 14735 1 149.00000 418.400000
13633 6634 15683 1 149.00000 418.400000
13633 6635 14936 1 149.00000 418.400000
13634 6636 14642 1 149.00000 418.400000
13634 6637 14852 1 149.00000 418.400000
13634 6638 16452 1 149.00000 418.400000
13958 6639 17512 1 149.00000 418.400000
13635 6640 16714 1 149.00000 418.400000
13635 6641 14608 1 149.00000 418.400000
13635 6642 17800 1 149.00000 418.400000
15253 6643 17515 1 149.00000 418.400000
13636 6644 16553 1 149.00000 418.400000
13495 6645 13636 1 149.00000 418.400000
13636 6646 14240 1 149.00000 418.400000
15509 6647 17518 1 149.00000 418.400000
17015 6648 17521 1 149.00000 418.400000
15080 6649 17521 1 149.00000 418.400000
11694 6650 17521 1 149.00000 418.400000
13637 6651 14038 1 149.00000 418.400000
13637 6652 14122 1 149.00000 418.400000
13637 6653 15606 1 149.00000 418.400000
13637 6654 16485 1 149.00000 418.400000
13638 6655 13753 1 149.00000 418.400000
13638 6656 13967 1 149.00000 418.400000
13638 6657 14321 1 149.00000 418.400000
13639 6658 15063 1 149.00000 418.400000
13640 6659 16644 1 149.00000 418.400000
13640 6660 13891 1 149.00000 418.400000
13640 6661 14818 1 149.00000 418.400000
13641 6662 14136 1 149.00000 418.400000
13641 6663 15200 1 149.00000 418.400000
13642 6664 15767 1 149.00000 418.400000
13642 6665 15017 1 149.00000 418.400000
13643 6666 14361 1 149.00000 418.400000
13643 6667 16016 1 149.00000 418.400000
13644 6668 14031 1 149.00000 418.400000
13644 6669 15048 1 149.00000 418.400000
13644 6670 16217 1 149.00000 418.400000
13645 6671 15134 1 149.00000 418.400000
13645 6672 15425 1 149.00000 418.400000
13646 6673 17065 1 149.00000 418.400000
13646 6674 16274 1 149.00000 418.400000
13646 6675 15044 1 149.00000 418.400000
13647 6676 13775 1 149.00000 418.400000
13647 6677 17178 1 149.00000 418.400000
13647 6678 13805 1 149.00000 418.400000
13648 6679 16462 1 149.00000 418.400000
13648 6680 16588 1 149.00000 418.400000
13648 6681 16104 1 149.00000 418.400000
13648 6682 15493 1 149.00000 418.400000
13649 6683 14233 1 149.00000 418.400000
13650 6684 16307 1 149.00000 418.400000
13651 6685 16069 1 149.00000 418.400000
13651 6686 14658 1 149.00000 418.400000
13652 6687 13975 1 149.00000 418.400000
13653 6688 17078 1 149.00000 418.400000
13653 6689 14827 1 149.00000 418.400000
13653 6690 15419 1 149.00000 418.400000
13654 6691 13779 1 149.00000 418.400000
13654 6692 15980 1 149.00000 418.400000
13654 6693 16934 1 149.00000 418.400000
13654 6694 15270 1 149.00000 418.400000
13655 6695 14604 1 149.00000 418.400000
13655 6696 14080 1 149.00000 418.400000
13655 6697 13740 1 149.00000 418.400000
13655 6698 16955 1 149.00000 418.400000
13656 6699 15499 1 149.00000 418.400000
13656 6700 16209 1 149.00000 418.400000
13656 6701 14600 1 149.00000 418.400000
13656 6702 14261 1 149.00000 418.400000
13657 6703 14960 1 149.00000 418.400000
14960 6704 17091 1 149.00000 418.400000
13658 6705 16092 1 149.00000 418.400000
13658 6706 13970 1 149.00000 418.400000
13659 6707 14488 1 149.00000 418.400000
13659 6708 14786 1 149.00000 418.400000
13660 6709 14588 1 149.00000 418.400000
13660 6710 15983 1 149.00000 418.400000
13661 6711 16483 1 149.00000 418.400000
13662 6712 15902 1 149.00000 418.400000
13662 6713 15011 1 149.00000 418.400000
13662 6714 17191 1 149.00000 418.400000
13054 6715 13662 1 149.00000 418.400000
13663 6716 14021 1 149.00000 418.400000
13664 6717 15171 1 149.00000 418.400000
13664 6718 16584 1 149.00000 418.400000
13664 6719 14623 1 149.00000 418.400000
13664 6720 14313 1 149.00000 418.400000
13665 6721 14458 1 149.00000 418.400000
13665 6722 16564 1 149.00000 418.400000
13665 6723 14439 1 149.00000 418.400000
13666 6724 16487 1 149.00000 418.400000
14900 6725 18054 1 149.00000 418.400000
13667 6726 14998 1 149.00000 418.400000
13668 6727 15581 1 149.00000 418.400000
13668 6728 15799 1 149.00000 418.400000
13669 6729 16152 1 149.00000 418.400000
13669 6730 15518 1 149.00000 418.400000
13669 6731 17012 1 149.00000 418.400000
13670 6732 13785 1 149.00000 418.400000
13670 6733 16177 1 149.00000 418.400000
15221 6734 16479 1 149.00000 418.400000
16479 6735 17145 1 149.00000 418.400000
13671 6736 15016 1 149.00000 418.400000
12115 6737 18109 1 149.00000 418.400000
13672 6738 15932 1 149.00000 418.400000
13672 6739 14555 1 149.00000 418.400000
13672 6740 15517 1 149.00000 418.400000
13673 6741 15584 1 149.00000 418.400000
13673 6742 14359 1 149.00000 418.400000
13674 6743 15248 1 149.00000 418.400000
13674 6744 16273 1 149.00000 418.400000
13674 6745 16228 1 149.00000 418.400000
13675 6746 15407 1 149.00000 418.400000
13675 6747 13875 1 149.00000 418.400000
13676 6748 16875 1 149.00000 418.400000
13676 6749 13843 1 149.00000 418.400000
13676 6750 14171 1 149.00000 418.400000
13676 6751 17072 1 149.00000 418.400000
13677 6752 17184 1 149.00000 418.400000
13677 6753 14129 1 149.00000 418.400000
13677 6754 13930 1 149.00000 418.400000
13677 6755 14048 1 149.00000 418.400000
13678 6756 15119 1 149.00000 418.400000
13678 6757 14944 1 149.00000 418.400000
13679 6758 15850 1 149.00000 418.400000
13680 6759 14518 1 149.00000 418.400000
13680 6760 16367 1 149.00000 418.400000
13680 6761 14026 1 149.00000 418.400000
13927 6762 15957 1 149.00000 418.400000
15935 6763 15957 1 149.00000 418.400000
13681 6764 17142 1 149.00000 418.400000
13966 6765 15769 1 149.00000 418.400000
13682 6766 16808 1 149.00000 418.400000
13682 6767 15769 1 149.00000 418.400000
12603 6768 13683 1 149.00000 418.400000
13683 6769 14488 1 149.00000 418.400000
13683 6770 14861 1 149.00000 418.400000
13684 6771 15858 1 149.00000 418.400000
13684 6772 16284 1 149.00000 418.400000
13684 6773 15935 1 149.00000 418.400000
13685 6774 14766 1 149.00000 418.400000
13685 6775 16875 1 149.00000 418.400000
13685 6776 16945 1 149.00000 418.400000
13686 6777 14854 1 149.00000 418.400000
13541 6778 17017 1 149.00000 418.400000
13686 6779 14955 1 149.00000 418.400000
14625 6780 16303 1 149.00000 418.400000
13687 6781 14625 1 149.00000 418.400000
13687 6782 16851 1 149.00000 418.400000
13688 6783 16383 1 149.00000 418.400000
13688 6784 16406 1 149.00000 418.400000
12308 6785 16159 1 149.00000 418.400000
13689 6786 15264 1 149.00000 418.400000
16159 6787 17199 1 149.00000 418.400000
13690 6788 14177 1 149.00000 418.400000
13690 6789 14108 1 149.00000 418.400000
13690 6790 15093 1 149.00000 418.400000
13691 6791 13943 1 149.00000 418.400000
13691 6792 15645 1 149.00000 418.400000
13691 6793 14762 1 149.00000 418.400000
12631 6794 15232 1 149.00000 418.400000
13692 6795 16309 1 149.00000 418.400000
13693 6796 17061 1 149.00000 418.400000
13693 6797 14856 1 149.00000 418.400000
13694 6798 15290 1 149.00000 418.400000
13694 6799 16572 1 149.00000 418.400000
13694 6800 14205 1 149.00000 418.400000
13695 6801 16863 1 149.00000 418.400000
13695 6802 13713 1 149.00000 418.400000
13695 6803 16439 1 149.00000 418.400000
13696 6804 17033 1 149.00000 418.400000
13696 6805 16884 1 149.00000 418.400000
13696 6806 16052 1 149.00000 418.400000
13697 6807 16193 1 149.00000 418.400000
13697 6808 14283 1 149.00000 418.400000
13697 6809 17143 1 149.00000 418.400000
13163 6810 13820 1 149.00000 418.400000
13699 6811 16911 1 149.00000 418.400000
13700 6812 16437 1 149.00000 418.400000
13701 6813 14957 1 149.00000 418.400000
13701 6814 15669 1 149.00000 418.400000
13025 6815 13702 1 149.00000 418.400000
13702 6816 16080 1 149.00000 418.400000
13703 6817 15598 1 149.00000 418.400000
13703 6818 16014 1 149.00000 418.400000
13704 6819 15389 1 149.00000 418.400000
13337 6820 13704 1 149.00000 418.400000
13704 6821 16840 1 149.00000 418.400000
13602 6822 13704 1 149.00000 418.400000
16878 6823 17527 1 149.00000 418.400000
16721 6824 17527 1 149.00000 418.400000
13706 6825 15063 1 149.00000 418.400000
13706 6826 16216 1 149.00000 418.400000
13706 6827 14410 1 149.00000 418.400000
13707 6828 16525 1 149.00000 418.400000
13707 6829 17070 1 149.00000 418.400000
13707 6830 15982 1 149.00000 418.400000
13708 6831 13751 1 149.00000 418.400000
13708 6832 14534 1 149.00000 418.400000
13709 6833 16316 1 149.00000 418.400000
13709 6834 14398 1 149.00000 418.400000
13710 6835 16188 1 149.00000 418.400000
14680 6836 15029 1 149.00000 418.400000
13710 6837 15029 1 149.00000 418.400000
13711 6838 17146 1 149.00000 418.400000
13711 6839 15181 1 149.00000 418.400000
13712 6840 15376 1 149.00000 418.400000
13713 6841 15322 1 149.00000 418.400000
13713 6842 15308 1 149.00000 418.400000
13714 6843 16071 1 149.00000 418.400000
13714 6844 14013 1 149.00000 418.400000
13715 6845 15321 1 149.00000 418.400000
13715 6846 14950 1 149.00000 418.400000
13715 6847 16149 1 149.00000 418.400000
13715 6848 16618 1 149.00000 418.400000
13716 6849 16004 1 149.00000 418.400000
13716 6850 15451 1 149.00000 418.400000
13716 6851 14153 1 149.00000 418.400000
11816 6852 13717 1 149.00000 418.400000
12231 6853 13717 1 149.00000 418.400000
13718 6854 15955 1 149.00000 418.400000
13718 6855 16291 1 149.00000 418.400000
13719 6856 16310 1 149.00000 418.400000
13719 6857 14882 1 149.00000 418.400000
13719 6858 15891 1 149.00000 418.400000
13719 6859 16180 1 149.00000 418.400000
13720 6860 16243 1 149.00000 418.400000
12700 6861 16964 1 149.00000 418.400000
13720 6862 15068 1 149.00000 418.400000
13721 6863 16758 1 149.00000 418.400000
13722 6864 16494 1 149.00000 418.400000
13722 6865 15556 1 149.00000 418.400000
13722 6866 16883 1 149.00000 418.400000
14574 6867 17093 1 149.00000 418.400000
13723 6868 15289 1 149.00000 418.400000
13723 6869 14574 1 149.00000 418.400000
13724 6870 15439 1 149.00000 418.400000
13724 6871 15215 1 149.00000 418.400000
13725 6872 16400 1 149.00000 418.400000
13725 6873 15182 1 149.00000 418.400000
13725 6874 16708 1 149.00000 418.400000
13726 6875 14764 1 149.00000 418.400000
13726 6876 14507 1 149.00000 418.400000
13726 6877 16508 1 149.00000 418.400000
13727 6878 15393 1 149.00000 418.400000
13727 6879 16197 1 149.00000 418.400000
13728 6880 17104 1 149.00000 418.400000
13728 6881 15426 1 149.00000 418.400000
13728 6882 14322 1 149.00000 418.400000
12349 6883 13729 1 149.00000 418.400000
13729 6884 14728 1 149.00000 418.400000
13730 6885 16285 1 149.00000 418.400000
13730 6886 16866 1 149.00000 418.400000
13731 6887 14312 1 149.00000 418.400000
13732 6888 14096 1 149.00000 418.400000
13733 6889 17728 1 149.00000 418.400000
13733 6890 14276 1 149.00000 418.400000
13734 6891 16376 1 149.00000 418.400000
13734 6892 15516 1 149.00000 418.400000
13735 6893 14597 1 149.00000 418.400000
13735 6894 15210 1 149.00000 418.400000
13736 6895 15077 1 149.00000 418.400000
13736 6896 15821 1 149.00000 418.400000
15821 6897 16034 1 149.00000 418.400000
13736 6898 16080 1 149.00000 418.400000
14526 6899 17530 1 149.00000 418.400000
16192 6900 17530 1 149.00000 418.400000
17533 6901 17863 1 149.00000 418.400000
13737 6902 15217 1 149.00000 418.400000
13737 6903 14468 1 149.00000 418.400000
13737 6904 15572 1 149.00000 418.400000
13738 6905 14215 1 149.00000 418.400000
13739 6906 13918 1 149.00000 418.400000
13739 6907 16334 1 149.00000 418.400000
13739 6908 16237 1 149.00000 418.400000
13739 6909 15986 1 149.00000 418.400000
13740 6910 14565 1 149.00000 418.400000
13741 6911 15565 1 149.00000 418.400000
13741 6912 13968 1 149.00000 418.400000
13742 6913 17902 1 149.00000 418.400000
13742 6914 15280 1 149.00000 418.400000
13742 6915 17062 1 149.00000 418.400000
13743 6916 13966 1 149.00000 418.400000
13743 6917 15082 1 149.00000 418.400000
13744 6918 14768 1 149.00000 418.400000
13744 6919 15522 1 149.00000 418.400000
13744 6920 15636 1 149.00000 418.400000
13745 6921 16935 1 149.00000 418.400000
13746 6922 14289 1 149.00000 418.400000
13746 6923 14860 1 149.00000 418.400000
14591 6924 14860 1 149.00000 418.400000
13747 6925 13975 1 149.00000 418.400000
13748 6926 15418 1 149.00000 418.400000
13749 6927 15599 1 149.00000 418.400000
13749 6928 15618 1 149.00000 418.400000
13749 6929 15845 1 149.00000 418.400000
13750 6930 14382 1 149.00000 418.400000
16789 6931 17536 1 149.00000 418.400000
14592 6932 17536 1 149.00000 418.400000
13751 6933 14506 1 149.00000 418.400000
13751 6934 15975 1 149.00000 418.400000
13752 6935 14548 1 149.00000 418.400000
13752 6936 15568 1 149.00000 418.400000
13752 6937 15931 1 149.00000 418.400000
13753 6938 15934 1 149.00000 418.400000
13753 6939 16386 1 149.00000 418.400000
13753 6940 14442 1 149.00000 418.400000
13754 6941 16261 1 149.00000 418.400000
13754 6942 16201 1 149.00000 418.400000
13754 6943 14048 1 149.00000 418.400000
13755 6944 16582 1 149.00000 418.400000
13755 6945 15256 1 149.00000 418.400000
13756 6946 14588 1 149.00000 418.400000
13756 6947 16504 1 149.00000 418.400000
14901 6948 15408 1 149.00000 418.400000
15408 6949 15600 1 149.00000 418.400000
13757 6950 15408 1 149.00000 418.400000
13758 6951 16151 1 149.00000 418.400000
13758 6952 14012 1 149.00000 418.400000
13758 6953 16244 1 149.00000 418.400000
13758 6954 16150 1 149.00000 418.400000
13759 6955 17029 1 149.00000 418.400000
13759 6956 15305 1 149.00000 418.400000
13759 6957 14115 1 149.00000 418.400000
13760 6958 16556 1 149.00000 418.400000
12753 6959 17179 1 149.00000 418.400000
13761 6960 14749 1 149.00000 418.400000
13733 6961 13762 1 149.00000 418.400000
13763 6962 15217 1 149.00000 418.400000
13763 6963 14099 1 149.00000 418.400000
14099 6964 14949 1 149.00000 418.400000
14009 6965 15715 1 149.00000 418.400000
13764 6966 15504 1 149.00000 418.400000
13764 6967 15715 1 149.00000 418.400000
13765 6968 15345 1 149.00000 418.400000
15345 6969 15835 1 149.00000 418.400000
13766 6970 15292 1 149.00000 418.400000
12636 6971 14002 1 149.00000 418.400000
13767 6972 14943 1 149.00000 418.400000
13767 6973 14729 1 149.00000 418.400000
13767 6974 16487 1 149.00000 418.400000
13768 6975 15813 1 149.00000 418.400000
13768 6976 15071 1 149.00000 418.400000
13768 6977 14006 1 149.00000 418.400000
13769 6978 15187 1 149.00000 418.400000
13770 6979 16555 1 149.00000 418.400000
13770 6980 14942 1 149.00000 418.400000
13770 6981 15932 1 149.00000 418.400000
13772 6982 15521 1 149.00000 418.400000
13772 6983 15758 1 149.00000 418.400000
13773 6984 14992 1 149.00000 418.400000
13773 6985 15786 1 149.00000 418.400000
13773 6986 14124 1 149.00000 418.400000
13774 6987 16581 1 149.00000 418.400000
13774 6988 17842 1 149.00000 418.400000
13775 6989 14007 1 149.00000 418.400000
13775 6990 15513 1 149.00000 418.400000
13776 6991 16121 1 149.00000 418.400000
13776 6992 16815 1 149.00000 418.400000
13777 6993 16648 1 149.00000 418.400000
13777 6994 16919 1 149.00000 418.400000
13778 6995 14317 1 149.00000 418.400000
13778 6996 14946 1 149.00000 418.400000
13779 6997 17893 1 149.00000 418.400000
13780 6998 14445 1 149.00000 418.400000
13780 6999 14026 1 149.00000 418.400000
13781 7000 16298 1 149.00000 418.400000
13782 7001 14250 1 149.00000 418.400000
11789 7002 13783 1 149.00000 418.400000
13784 7003 16248 1 149.00000 418.400000
13784 7004 16782 1 149.00000 418.400000
13784 7005 15971 1 149.00000 418.400000
13785 7006 16009 1 149.00000 418.400000
13786 7007 15642 1 149.00000 418.400000
13786 7008 16956 1 149.00000 418.400000
13786 7009 15199 1 149.00000 418.400000
13787 7010 14800 1 149.00000 418.400000
13787 7011 16197 1 149.00000 418.400000
13787 7012 15412 1 149.00000 418.400000
13788 7013 15551 1 149.00000 418.400000
13788 7014 14818 1 149.00000 418.400000
13788 7015 16644 1 149.00000 418.400000
13788 7016 16169 1 149.00000 418.400000
13789 7017 16145 1 149.00000 418.400000
13789 7018 16994 1 149.00000 418.400000
13790 7019 15113 1 149.00000 418.400000
13790 7020 15377 1 149.00000 418.400000
13791 7021 16516 1 149.00000 418.400000
13791 7022 13943 1 149.00000 418.400000
13791 7023 17002 1 149.00000 418.400000
13792 7024 16278 1 149.00000 418.400000
13792 7025 14565 1 149.00000 418.400000
13792 7026 16113 1 149.00000 418.400000
13792 7027 16446 1 149.00000 418.400000
13793 7028 14312 1 149.00000 418.400000
13793 7029 15547 1 149.00000 418.400000
13793 7030 16945 1 149.00000 418.400000
13793 7031 13843 1 149.00000 418.400000
13794 7032 16339 1 149.00000 418.400000
13794 7033 16496 1 149.00000 418.400000
13794 7034 14933 1 149.00000 418.400000
13795 7035 14536 1 149.00000 418.400000
13795 7036 15751 1 149.00000 418.400000
13795 7037 17151 1 149.00000 418.400000
13797 7038 16763 1 149.00000 418.400000
13797 7039 15672 1 149.00000 418.400000
13797 7040 14869 1 149.00000 418.400000
13797 7041 16830 1 149.00000 418.400000
13798 7042 15864 1 149.00000 418.400000
13798 7043 15744 1 149.00000 418.400000
13799 7044 14885 1 149.00000 418.400000
13799 7045 14745 1 149.00000 418.400000
13799 7046 15768 1 149.00000 418.400000
13800 7047 16577 1 149.00000 418.400000
13800 7048 14214 1 149.00000 418.400000
13800 7049 14724 1 149.00000 418.400000
13800 7050 15298 1 149.00000 418.400000
13801 7051 15525 1 149.00000 418.400000
13802 7052 16620 1 149.00000 418.400000
13803 7053 14676 1 149.00000 418.400000
13803 7054 14085 1 149.00000 418.400000
13804 7055 17121 1 149.00000 418.400000
13805 7056 17143 1 149.00000 418.400000
13805 7057 14698 1 149.00000 418.400000
13806 7058 14440 1 149.00000 418.400000
13806 7059 14669 1 149.00000 418.400000
13806 7060 16636 1 149.00000 418.400000
13807 7061 14763 1 149.00000 418.400000
13807 7062 15736 1 149.00000 418.400000
14763 7063 16257 1 149.00000 418.400000
13807 7064 14648 1 149.00000 418.400000
13808 7065 15988 1 149.00000 418.400000
13808 7066 17569 1 149.00000 418.400000
13809 7067 14962 1 149.00000 418.400000
13809 7068 16300 1 149.00000 418.400000
13809 7069 15504 1 149.00000 418.400000
13809 7070 14759 1 149.00000 418.400000
13810 7071 16384 1 149.00000 418.400000
13810 7072 16948 1 149.00000 418.400000
13810 7073 15467 1 149.00000 418.400000
13811 7074 15488 1 149.00000 418.400000
13811 7075 14481 1 149.00000 418.400000
13811 7076 16278 1 149.00000 418.400000
13812 7077 15325 1 149.00000 418.400000
13812 7078 15938 1 149.00000 418.400000
13813 7079 16486 1 149.00000 418.400000
13813 7080 15058 1 149.00000 418.400000
13813 7081 15819 1 149.00000 418.400000
15058 7082 16691 1 149.00000 418.400000
13814 7083 15010 1 149.00000 418.400000
13814 7084 13979 1 149.00000 418.400000
12693 7085 13815 1 149.00000 418.400000
13815 7086 15354 1 149.00000 418.400000
13816 7087 15054 1 149.00000 418.400000
13816 7088 14579 1 149.00000 418.400000
13816 7089 14879 1 149.00000 418.400000
13817 7090 16573 1 149.00000 418.400000
13940 7091 16622 1 149.00000 418.400000
13817 7092 16622 1 149.00000 418.400000
13817 7093 13959 1 149.00000 418.400000
13818 7094 17878 1 149.00000 418.400000
13819 7095 16733 1 149.00000 418.400000
13819 7096 16345 1 149.00000 418.400000
13819 7097 16893 1 149.00000 418.400000
15063 7098 17539 1 149.00000 418.400000
13820 7099 14148 1 149.00000 418.400000
13820 7100 15057 1 149.00000 418.400000
13821 7101 15369 1 149.00000 418.400000
13821 7102 15128 1 149.00000 418.400000
13822 7103 14139 1 149.00000 418.400000
13822 7104 14573 1 149.00000 418.400000
13823 7105 16851 1 149.00000 418.400000
13823 7106 14859 1 149.00000 418.400000
13823 7107 15726 1 149.00000 418.400000
13824 7108 16628 1 149.00000 418.400000
13824 7109 15406 1 149.00000 418.400000
13824 7110 15590 1 149.00000 418.400000
13824 7111 16754 1 149.00000 418.400000
13825 7112 17169 1 149.00000 418.400000
13825 7113 16364 1 149.00000 418.400000
13825 7114 15407 1 149.00000 418.400000
13826 7115 15681 1 149.00000 418.400000
13826 7116 16423 1 149.00000 418.400000
13826 7117 15965 1 149.00000 418.400000
13827 7118 15148 1 149.00000 418.400000
13827 7119 15655 1 149.00000 418.400000
13827 7120 15441 1 149.00000 418.400000
13828 7121 16248 1 149.00000 418.400000
13828 7122 14338 1 149.00000 418.400000
13828 7123 13865 1 149.00000 418.400000
13829 7124 15115 1 149.00000 418.400000
13829 7125 16442 1 149.00000 418.400000
15115 7126 17725 1 149.00000 418.400000
13830 7127 16338 1 149.00000 418.400000
13830 7128 14022 1 149.00000 418.400000
13830 7129 13909 1 149.00000 418.400000
13830 7130 16679 1 149.00000 418.400000
13831 7131 16459 1 149.00000 418.400000
15241 7132 16459 1 149.00000 418.400000
13832 7133 15175 1 149.00000 418.400000
13832 7134 17032 1 149.00000 418.400000
13833 7135 14030 1 149.00000 418.400000
13833 7136 14178 1 149.00000 418.400000
13833 7137 15892 1 149.00000 418.400000
13834 7138 15322 1 149.00000 418.400000
13834 7139 15153 1 149.00000 418.400000
13834 7140 16588 1 149.00000 418.400000
13835 7141 15846 1 149.00000 418.400000
13835 7142 17689 1 149.00000 418.400000
13836 7143 13989 1 149.00000 418.400000
13174 7144 14840 1 149.00000 418.400000
13836 7145 15559 1 149.00000 418.400000
13837 7146 15153 1 149.00000 418.400000
13837 7147 16424 1 149.00000 418.400000
13837 7148 16560 1 149.00000 418.400000
13838 7149 15435 1 149.00000 418.400000
13838 7150 17035 1 149.00000 418.400000
13838 7151 13907 1 149.00000 418.400000
13839 7152 15588 1 149.00000 418.400000
13840 7153 14408 1 149.00000 418.400000
13840 7154 16953 1 149.00000 418.400000
13841 7155 16618 1 149.00000 418.400000
13841 7156 15752 1 149.00000 418.400000
13841 7157 16282 1 149.00000 418.400000
13842 7158 14923 1 149.00000 418.400000
13842 7159 14634 1 149.00000 418.400000
13842 7160 16578 1 149.00000 418.400000
13842 7161 15796 1 149.00000 418.400000
13843 7162 14155 1 149.00000 418.400000
13843 7163 16572 1 149.00000 418.400000
13844 7164 16487 1 149.00000 418.400000
13844 7165 14907 1 149.00000 418.400000
13844 7166 14825 1 149.00000 418.400000
13845 7167 15397 1 149.00000 418.400000
13846 7168 15072 1 149.00000 418.400000
13846 7169 14120 1 149.00000 418.400000
13846 7170 15816 1 149.00000 418.400000
15991 7171 17545 1 149.00000 418.400000
13847 7172 15956 1 149.00000 418.400000
13847 7173 14146 1 149.00000 418.400000
13847 7174 16360 1 149.00000 418.400000
13848 7175 17077 1 149.00000 418.400000
13848 7176 15323 1 149.00000 418.400000
12128 7177 13848 1 149.00000 418.400000
13849 7178 14130 1 149.00000 418.400000
13849 7179 16048 1 149.00000 418.400000
13850 7180 17692 1 149.00000 418.400000
13851 7181 13964 1 149.00000 418.400000
13851 7182 14222 1 149.00000 418.400000
13852 7183 16328 1 149.00000 418.400000
13853 7184 15450 1 149.00000 418.400000
13853 7185 14434 1 149.00000 418.400000
13854 7186 14127 1 149.00000 418.400000
13854 7187 16160 1 149.00000 418.400000
13854 7188 14251 1 149.00000 418.400000
13854 7189 14033 1 149.00000 418.400000
13855 7190 16766 1 149.00000 418.400000
13855 7191 14315 1 149.00000 418.400000
13855 7192 16891 1 149.00000 418.400000
13855 7193 13881 1 149.00000 418.400000
13321 7194 13856 1 149.00000 418.400000
13856 7195 16331 1 149.00000 418.400000
13857 7196 15068 1 149.00000 418.400000
13857 7197 16842 1 149.00000 418.400000
12050 7198 17551 1 149.00000 418.400000
13858 7199 16505 1 149.00000 418.400000
13858 7200 15045 1 149.00000 418.400000
13859 7201 14161 1 149.00000 418.400000
13859 7202 14784 1 149.00000 418.400000
13860 7203 16088 1 149.00000 418.400000
13860 7204 15113 1 149.00000 418.400000
13861 7205 15518 1 149.00000 418.400000
13861 7206 14801 1 149.00000 418.400000
13862 7207 16133 1 149.00000 418.400000
13862 7208 14209 1 149.00000 418.400000
13863 7209 14051 1 149.00000 418.400000
13865 7210 16014 1 149.00000 418.400000
13865 7211 16669 1 149.00000 418.400000
13865 7212 14067 1 149.00000 418.400000
13866 7213 14294 1 149.00000 418.400000
13867 7214 14672 1 149.00000 418.400000
13867 7215 14563 1 149.00000 418.400000
14672 7216 16898 1 149.00000 418.400000
13868 7217 14384 1 149.00000 418.400000
13869 7218 14622 1 149.00000 418.400000
13869 7219 17635 1 149.00000 418.400000
13869 7220 16178 1 149.00000 418.400000
13869 7221 16220 1 149.00000 418.400000
16442 7222 17554 1 149.00000 418.400000
13897 7223 17554 1 149.00000 418.400000
14624 7224 14714 1 149.00000 418.400000
13870 7225 14714 1 149.00000 418.400000
13870 7226 16998 1 149.00000 418.400000
13871 7227 14856 1 149.00000 418.400000
13872 7228 16464 1 149.00000 418.400000
13872 7229 16867 1 149.00000 418.400000
13872 7230 15278 1 149.00000 418.400000
13872 7231 13909 1 149.00000 418.400000
13873 7232 15411 1 149.00000 418.400000
13547 7233 13873 1 149.00000 418.400000
13873 7234 15017 1 149.00000 418.400000
13874 7235 14867 1 149.00000 418.400000
13874 7236 15279 1 149.00000 418.400000
15432 7237 16540 1 149.00000 418.400000
13875 7238 15192 1 149.00000 418.400000
13875 7239 14193 1 149.00000 418.400000
16681 7240 17125 1 149.00000 418.400000
13876 7241 16681 1 149.00000 418.400000
13876 7242 17158 1 149.00000 418.400000
13877 7243 15043 1 149.00000 418.400000
13877 7244 16817 1 149.00000 418.400000
13878 7245 16907 1 149.00000 418.400000
13878 7246 14821 1 149.00000 418.400000
13879 7247 13936 1 149.00000 418.400000
13879 7248 15704 1 149.00000 418.400000
13879 7249 13959 1 149.00000 418.400000
13879 7250 15489 1 149.00000 418.400000
13880 7251 14509 1 149.00000 418.400000
14280 7252 14509 1 149.00000 418.400000
13881 7253 13953 1 149.00000 418.400000
13882 7254 14261 1 149.00000 418.400000
13883 7255 14401 1 149.00000 418.400000
13883 7256 14092 1 149.00000 418.400000
16539 7257 17557 1 149.00000 418.400000
13884 7258 17081 1 149.00000 418.400000
13884 7259 16388 1 149.00000 418.400000
13885 7260 15124 1 149.00000 418.400000
13885 7261 15898 1 149.00000 418.400000
13886 7262 15237 1 149.00000 418.400000
13886 7263 16564 1 149.00000 418.400000
13886 7264 16412 1 149.00000 418.400000
12304 7265 13887 1 149.00000 418.400000
13887 7266 14715 1 149.00000 418.400000
13888 7267 15629 1 149.00000 418.400000
13889 7268 13896 1 149.00000 418.400000
14774 7269 15727 1 149.00000 418.400000
13891 7270 15727 1 149.00000 418.400000
13892 7271 13979 1 149.00000 418.400000
13892 7272 15868 1 149.00000 418.400000
13892 7273 15027 1 149.00000 418.400000
13892 7274 15949 1 149.00000 418.400000
13893 7275 14797 1 149.00000 418.400000
13893 7276 16299 1 149.00000 418.400000
14942 7277 16630 1 149.00000 418.400000
13894 7278 15129 1 149.00000 418.400000
13894 7279 16630 1 149.00000 418.400000
13894 7280 16901 1 149.00000 418.400000
13895 7281 15944 1 149.00000 418.400000
15555 7282 15944 1 149.00000 418.400000
13442 7283 13916 1 149.00000 418.400000
13896 7284 13923 1 149.00000 418.400000
13896 7285 17839 1 149.00000 418.400000
13896 7286 18094 1 149.00000 418.400000
13897 7287 17887 1 149.00000 418.400000
14709 7288 17887 1 149.00000 418.400000
13898 7289 16263 1 149.00000 418.400000
13898 7290 15632 1 149.00000 418.400000
16263 7291 16535 1 149.00000 418.400000
13899 7292 14875 1 149.00000 418.400000
13899 7293 16070 1 149.00000 418.400000
13899 7294 16655 1 149.00000 418.400000
13900 7295 14972 1 149.00000 418.400000
13900 7296 15198 1 149.00000 418.400000
13900 7297 14552 1 149.00000 418.400000
13902 7298 14454 1 149.00000 418.400000
13902 7299 15294 1 149.00000 418.400000
13902 7300 16741 1 149.00000 418.400000
13903 7301 15045 1 149.00000 418.400000
13903 7302 18089 1 149.00000 418.400000
13904 7303 15728 1 149.00000 418.400000
13904 7304 17125 1 149.00000 418.400000
13904 7305 15528 1 149.00000 418.400000
13905 7306 15819 1 149.00000 418.400000
13905 7307 14301 1 149.00000 418.400000
13528 7308 13905 1 149.00000 418.400000
13906 7309 16288 1 149.00000 418.400000
13906 7310 13963 1 149.00000 418.400000
13906 7311 16712 1 149.00000 418.400000
13906 7312 15942 1 149.00000 418.400000
13907 7313 15687 1 149.00000 418.400000
13907 7314 15699 1 149.00000 418.400000
13908 7315 15343 1 149.00000 418.400000
13908 7316 15850 1 149.00000 418.400000
13910 7317 14329 1 149.00000 418.400000
13910 7318 16604 1 149.00000 418.400000
11958 7319 16650 1 149.00000 418.400000
11958 7320 14918 1 149.00000 418.400000
13912 7321 14298 1 149.00000 418.400000
13912 7322 17006 1 149.00000 418.400000
13913 7323 16062 1 149.00000 418.400000
13913 7324 16051 1 149.00000 418.400000
14657 7325 16062 1 149.00000 418.400000
14118 7326 15883 1 149.00000 418.400000
13915 7327 14934 1 149.00000 418.400000
13915 7328 14118 1 149.00000 418.400000
13916 7329 16159 1 149.00000 418.400000
13917 7330 15485 1 149.00000 418.400000
13918 7331 17192 1 149.00000 418.400000
13918 7332 15000 1 149.00000 418.400000
13918 7333 14896 1 149.00000 418.400000
13919 7334 14809 1 149.00000 418.400000
13919 7335 16590 1 149.00000 418.400000
13919 7336 17026 1 149.00000 418.400000
13919 7337 15938 1 149.00000 418.400000
13920 7338 16888 1 149.00000 418.400000
13920 7339 14921 1 149.00000 418.400000
13920 7340 15548 1 149.00000 418.400000
17128 7341 17572 1 149.00000 418.400000
13921 7342 17572 1 149.00000 418.400000
13921 7343 16240 1 149.00000 418.400000
13921 7344 15994 1 149.00000 418.400000
13922 7345 16516 1 149.00000 418.400000
13922 7346 15180 1 149.00000 418.400000
13922 7347 17086 1 149.00000 418.400000
13923 7348 17154 1 149.00000 418.400000
13923 7349 17100 1 149.00000 418.400000
13923 7350 16619 1 149.00000 418.400000
13924 7351 14034 1 149.00000 418.400000
13924 7352 14873 1 149.00000 418.400000
13924 7353 17131 1 149.00000 418.400000
13926 7354 15661 1 149.00000 418.400000
13926 7355 16230 1 149.00000 418.400000
13926 7356 14729 1 149.00000 418.400000
13927 7357 16743 1 149.00000 418.400000
13681 7358 15275 1 149.00000 418.400000
13681 7359 13927 1 149.00000 418.400000
13928 7360 16940 1 149.00000 418.400000
13928 7361 15288 1 149.00000 418.400000
13928 7362 16615 1 149.00000 418.400000
13929 7363 14045 1 149.00000 418.400000
13929 7364 14293 1 149.00000 418.400000
13929 7365 17788 1 149.00000 418.400000
13930 7366 16115 1 149.00000 418.400000
13931 7367 14112 1 149.00000 418.400000
11650 7368 16930 1 149.00000 418.400000
13932 7369 14679 1 149.00000 418.400000
13933 7370 14351 1 149.00000 418.400000
11902 7371 14988 1 149.00000 418.400000
13933 7372 16485 1 149.00000 418.400000
11916 7373 13689 1 149.00000 418.400000
13934 7374 15115 1 149.00000 418.400000
14761 7375 17560 1 149.00000 418.400000
17560 7376 17845 1 149.00000 418.400000
13937 7377 16012 1 149.00000 418.400000
13937 7378 17057 1 149.00000 418.400000
13937 7379 14311 1 149.00000 418.400000
13937 7380 15782 1 149.00000 418.400000
13938 7381 14777 1 149.00000 418.400000
13938 7382 17027 1 149.00000 418.400000
13939 7383 16143 1 149.00000 418.400000
13941 7384 14988 1 149.00000 418.400000
13941 7385 15773 1 149.00000 418.400000
13941 7386 14142 1 149.00000 418.400000
13941 7387 16219 1 149.00000 418.400000
13942 7388 16699 1 149.00000 418.400000
13942 7389 14282 1 149.00000 418.400000
13943 7390 16522 1 149.00000 418.400000
13943 7391 15506 1 149.00000 418.400000
13944 7392 14897 1 149.00000 418.400000
13944 7393 14970 1 149.00000 418.400000
13945 7394 14554 1 149.00000 418.400000
13945 7395 15370 1 149.00000 418.400000
13945 7396 16216 1 149.00000 418.400000
13946 7397 14440 1 149.00000 418.400000
13946 7398 14056 1 149.00000 418.400000
15102 7399 17563 1 149.00000 418.400000
17157 7400 17563 1 149.00000 418.400000
13947 7401 15268 1 149.00000 418.400000
13947 7402 14658 1 149.00000 418.400000
13947 7403 14021 1 149.00000 418.400000
13947 7404 16069 1 149.00000 418.400000
13948 7405 16723 1 149.00000 418.400000
13948 7406 14550 1 149.00000 418.400000
13948 7407 16396 1 149.00000 418.400000
13949 7408 16305 1 149.00000 418.400000
12706 7409 13957 1 149.00000 418.400000
14948 7410 16305 1 149.00000 418.400000
13950 7411 16639 1 149.00000 418.400000
13950 7412 14627 1 149.00000 418.400000
13950 7413 15341 1 149.00000 418.400000
13951 7414 14605 1 149.00000 418.400000
13952 7415 14912 1 149.00000 418.400000
13952 7416 15201 1 149.00000 418.400000
13953 7417 16631 1 149.00000 418.400000
13193 7418 13954 1 149.00000 418.400000
13954 7419 14269 1 149.00000 418.400000
13954 7420 14808 1 149.00000 418.400000
13955 7421 16145 1 149.00000 418.400000
13955 7422 14239 1 149.00000 418.400000
13956 7423 16458 1 149.00000 418.400000
13957 7424 15531 1 149.00000 418.400000
13957 7425 17146 1 149.00000 418.400000
13957 7426 14182 1 149.00000 418.400000
13958 7427 16245 1 149.00000 418.400000
13958 7428 14416 1 149.00000 418.400000
13958 7429 16018 1 149.00000 418.400000
13959 7430 15928 1 149.00000 418.400000
12406 7431 15864 1 149.00000 418.400000
13959 7432 15864 1 149.00000 418.400000
13960 7433 14883 1 149.00000 418.400000
13961 7434 16011 1 149.00000 418.400000
13961 7435 16421 1 149.00000 418.400000
13961 7436 13998 1 149.00000 418.400000
13962 7437 16111 1 149.00000 418.400000
13962 7438 15697 1 149.00000 418.400000
13962 7439 17082 1 149.00000 418.400000
13963 7440 14540 1 149.00000 418.400000
13963 7441 14650 1 149.00000 418.400000
13964 7442 16861 1 149.00000 418.400000
13965 7443 15616 1 149.00000 418.400000
13965 7444 15028 1 149.00000 418.400000
13965 7445 14993 1 149.00000 418.400000
13682 7446 15436 1 149.00000 418.400000
13967 7447 17092 1 149.00000 418.400000
13967 7448 14921 1 149.00000 418.400000
13968 7449 14690 1 149.00000 418.400000
13968 7450 14629 1 149.00000 418.400000
12979 7451 14378 1 149.00000 418.400000
13969 7452 14263 1 149.00000 418.400000
13969 7453 14123 1 149.00000 418.400000
13970 7454 17187 1 149.00000 418.400000
13970 7455 15787 1 149.00000 418.400000
13970 7456 15014 1 149.00000 418.400000
13971 7457 16128 1 149.00000 418.400000
13971 7458 16324 1 149.00000 418.400000
13972 7459 16192 1 149.00000 418.400000
13972 7460 15100 1 149.00000 418.400000
13972 7461 16315 1 149.00000 418.400000
13973 7462 15198 1 149.00000 418.400000
13973 7463 16909 1 149.00000 418.400000
13974 7464 16817 1 149.00000 418.400000
13974 7465 14388 1 149.00000 418.400000
13974 7466 15678 1 149.00000 418.400000
13975 7467 14492 1 149.00000 418.400000
13975 7468 15026 1 149.00000 418.400000
13860 7469 13976 1 149.00000 418.400000
14634 7470 17569 1 149.00000 418.400000
13977 7471 16790 1 149.00000 418.400000
13978 7472 16641 1 149.00000 418.400000
13979 7473 16635 1 149.00000 418.400000
13980 7474 15259 1 149.00000 418.400000
13980 7475 15667 1 149.00000 418.400000
13980 7476 15520 1 149.00000 418.400000
13627 7477 13980 1 149.00000 418.400000
13981 7478 15713 1 149.00000 418.400000
13982 7479 14084 1 149.00000 418.400000
13982 7480 14451 1 149.00000 418.400000
13983 7481 14831 1 149.00000 418.400000
13983 7482 16094 1 149.00000 418.400000
13983 7483 14018 1 149.00000 418.400000
13984 7484 15709 1 149.00000 418.400000
13985 7485 15142 1 149.00000 418.400000
13985 7486 16524 1 149.00000 418.400000
13986 7487 14671 1 149.00000 418.400000
13986 7488 15783 1 149.00000 418.400000
13986 7489 15291 1 149.00000 418.400000
13987 7490 15102 1 149.00000 418.400000
13987 7491 14086 1 149.00000 418.400000
13987 7492 14121 1 149.00000 418.400000
13988 7493 15918 1 149.00000 418.400000
13988 7494 15875 1 149.00000 418.400000
13989 7495 14822 1 149.00000 418.400000
13989 7496 14595 1 149.00000 418.400000
13990 7497 14008 1 149.00000 418.400000
13991 7498 14785 1 149.00000 418.400000
13991 7499 16142 1 149.00000 418.400000
13991 7500 14314 1 149.00000 418.400000
13991 7501 14537 1 149.00000 418.400000
13992 7502 15832 1 149.00000 418.400000
13992 7503 14730 1 149.00000 418.400000
13992 7504 14724 1 149.00000 418.400000
13993 7505 16394 1 149.00000 418.400000
13746 7506 13993 1 149.00000 418.400000
14986 7507 15615 1 149.00000 418.400000
13995 7508 14986 1 149.00000 418.400000
13995 7509 15471 1 149.00000 418.400000
14692 7510 17575 1 149.00000 418.400000
13996 7511 14577 1 149.00000 418.400000
12376 7512 13996 1 149.00000 418.400000
14578 7513 16533 1 149.00000 418.400000
14228 7514 14578 1 149.00000 418.400000
13997 7515 15454 1 149.00000 418.400000
13998 7516 14192 1 149.00000 418.400000
13998 7517 16526 1 149.00000 418.400000
13999 7518 14785 1 149.00000 418.400000
13999 7519 15910 1 149.00000 418.400000
14000 7520 16000 1 149.00000 418.400000
14000 7521 15956 1 149.00000 418.400000
15956 7522 16863 1 149.00000 418.400000
14001 7523 17022 1 149.00000 418.400000
14001 7524 15311 1 149.00000 418.400000
14001 7525 14450 1 149.00000 418.400000
14002 7526 16738 1 149.00000 418.400000
14002 7527 15550 1 149.00000 418.400000
13309 7528 17578 1 149.00000 418.400000
14288 7529 17578 1 149.00000 418.400000
14003 7530 15333 1 149.00000 418.400000
14003 7531 16881 1 149.00000 418.400000
14003 7532 15927 1 149.00000 418.400000
14004 7533 14271 1 149.00000 418.400000
14004 7534 15113 1 149.00000 418.400000
14005 7535 17105 1 149.00000 418.400000
14006 7536 16777 1 149.00000 418.400000
14006 7537 17034 1 149.00000 418.400000
14007 7538 16046 1 149.00000 418.400000
14008 7539 16991 1 149.00000 418.400000
14008 7540 15778 1 149.00000 418.400000
14009 7541 16577 1 149.00000 418.400000
14009 7542 16110 1 149.00000 418.400000
14009 7543 14631 1 149.00000 418.400000
14010 7544 16362 1 149.00000 418.400000
14011 7545 16544 1 149.00000 418.400000
14011 7546 17764 1 149.00000 418.400000
14013 7547 14183 1 149.00000 418.400000
14014 7548 14626 1 149.00000 418.400000
14014 7549 14269 1 149.00000 418.400000
14014 7550 15772 1 149.00000 418.400000
14015 7551 16886 1 149.00000 418.400000
14015 7552 17176 1 149.00000 418.400000
14016 7553 15359 1 149.00000 418.400000
14016 7554 17142 1 149.00000 418.400000
14017 7555 14616 1 149.00000 418.400000
14018 7556 15464 1 149.00000 418.400000
14018 7557 15269 1 149.00000 418.400000
14018 7558 14699 1 149.00000 418.400000
14296 7559 18069 1 149.00000 418.400000
14019 7560 16078 1 149.00000 418.400000
14019 7561 17065 1 149.00000 418.400000
14019 7562 15197 1 149.00000 418.400000
14019 7563 14238 1 149.00000 418.400000
14020 7564 15653 1 149.00000 418.400000
14020 7565 14138 1 149.00000 418.400000
14021 7566 16480 1 149.00000 418.400000
14022 7567 15031 1 149.00000 418.400000
15031 7568 16852 1 149.00000 418.400000
14022 7569 14421 1 149.00000 418.400000
14576 7570 15101 1 149.00000 418.400000
14023 7571 14576 1 149.00000 418.400000
14023 7572 14889 1 149.00000 418.400000
14024 7573 15038 1 149.00000 418.400000
14024 7574 15812 1 149.00000 418.400000
14024 7575 16566 1 149.00000 418.400000
14027 7576 14683 1 149.00000 418.400000
14027 7577 16023 1 149.00000 418.400000
14028 7578 15403 1 149.00000 418.400000
14029 7579 15174 1 149.00000 418.400000
14029 7580 14216 1 149.00000 418.400000
14029 7581 15750 1 149.00000 418.400000
14030 7582 15683 1 149.00000 418.400000
14031 7583 16944 1 149.00000 418.400000
14032 7584 14699 1 149.00000 418.400000
14032 7585 15623 1 149.00000 418.400000
14033 7586 16637 1 149.00000 418.400000
14033 7587 17033 1 149.00000 418.400000
14034 7588 16310 1 149.00000 418.400000
14034 7589 14524 1 149.00000 418.400000
14034 7590 14139 1 149.00000 418.400000
14035 7591 15027 1 149.00000 418.400000
14035 7592 16881 1 149.00000 418.400000
14035 7593 16046 1 149.00000 418.400000
14036 7594 15586 1 149.00000 418.400000
14036 7595 15034 1 149.00000 418.400000
14036 7596 15189 1 149.00000 418.400000
14037 7597 14265 1 149.00000 418.400000
14037 7598 17004 1 149.00000 418.400000
14038 7599 16544 1 149.00000 418.400000
14038 7600 14422 1 149.00000 418.400000
14039 7601 14043 1 149.00000 418.400000
14039 7602 16076 1 149.00000 418.400000
14560 7603 15693 1 149.00000 418.400000
14040 7604 15617 1 149.00000 418.400000
14040 7605 15693 1 149.00000 418.400000
14040 7606 15500 1 149.00000 418.400000
14041 7607 16342 1 149.00000 418.400000
14042 7608 14899 1 149.00000 418.400000
14042 7609 15688 1 149.00000 418.400000
14043 7610 15973 1 149.00000 418.400000
14044 7611 14419 1 149.00000 418.400000
14543 7612 17896 1 149.00000 418.400000
14046 7613 17896 1 149.00000 418.400000
13265 7614 14046 1 149.00000 418.400000
14047 7615 16413 1 149.00000 418.400000
14047 7616 17170 1 149.00000 418.400000
14047 7617 15493 1 149.00000 418.400000
14049 7618 14442 1 149.00000 418.400000
14049 7619 14321 1 149.00000 418.400000
14049 7620 15018 1 149.00000 418.400000
14050 7621 16890 1 149.00000 418.400000
14050 7622 14969 1 149.00000 418.400000
14050 7623 15673 1 149.00000 418.400000
15332 7624 17581 1 149.00000 418.400000
14880 7625 17581 1 149.00000 418.400000
15318 7626 17581 1 149.00000 418.400000
14051 7627 17998 1 149.00000 418.400000
14051 7628 15165 1 149.00000 418.400000
14052 7629 15522 1 149.00000 418.400000
14052 7630 15998 1 149.00000 418.400000
14052 7631 16871 1 149.00000 418.400000
14053 7632 15152 1 149.00000 418.400000
14053 7633 15629 1 149.00000 418.400000
14053 7634 16573 1 149.00000 418.400000
14053 7635 15704 1 149.00000 418.400000
14054 7636 15996 1 149.00000 418.400000
14055 7637 14452 1 149.00000 418.400000
14055 7638 17959 1 149.00000 418.400000
14055 7639 16666 1 149.00000 418.400000
14056 7640 14973 1 149.00000 418.400000
14056 7641 14915 1 149.00000 418.400000
14057 7642 16609 1 149.00000 418.400000
14057 7643 16761 1 149.00000 418.400000
14830 7644 16319 1 149.00000 418.400000
14058 7645 16319 1 149.00000 418.400000
12160 7646 14058 1 149.00000 418.400000
14059 7647 15985 1 149.00000 418.400000
14059 7648 14308 1 149.00000 418.400000
14060 7649 16636 1 149.00000 418.400000
14060 7650 14143 1 149.00000 418.400000
14061 7651 14967 1 149.00000 418.400000
14061 7652 15822 1 149.00000 418.400000
14061 7653 14678 1 149.00000 418.400000
14062 7654 17059 1 149.00000 418.400000
13254 7655 16435 1 149.00000 418.400000
14063 7656 15720 1 149.00000 418.400000
14064 7657 14893 1 149.00000 418.400000
12796 7658 15520 1 149.00000 418.400000
14065 7659 15168 1 149.00000 418.400000
14065 7660 16170 1 149.00000 418.400000
15557 7661 17587 1 149.00000 418.400000
14176 7662 17587 1 149.00000 418.400000
12114 7663 15557 1 149.00000 418.400000
14066 7664 14996 1 149.00000 418.400000
14957 7665 17590 1 149.00000 418.400000
14347 7666 17590 1 149.00000 418.400000
14068 7667 15746 1 149.00000 418.400000
14069 7668 16192 1 149.00000 418.400000
11731 7669 14582 1 149.00000 418.400000
13387 7670 16733 1 149.00000 418.400000
14070 7671 16844 1 149.00000 418.400000
15456 7672 16844 1 149.00000 418.400000
14071 7673 15500 1 149.00000 418.400000
13266 7674 14072 1 149.00000 418.400000
14073 7675 15786 1 149.00000 418.400000
14073 7676 16201 1 149.00000 418.400000
14073 7677 15657 1 149.00000 418.400000
14074 7678 15283 1 149.00000 418.400000
14074 7679 16462 1 149.00000 418.400000
14074 7680 15265 1 149.00000 418.400000
14075 7681 15757 1 149.00000 418.400000
14075 7682 14871 1 149.00000 418.400000
14076 7683 14982 1 149.00000 418.400000
14076 7684 17040 1 149.00000 418.400000
14076 7685 16388 1 149.00000 418.400000
14078 7686 15193 1 149.00000 418.400000
14392 7687 17593 1 149.00000 418.400000
15878 7688 17593 1 149.00000 418.400000
14079 7689 15947 1 149.00000 418.400000
14079 7690 16872 1 149.00000 418.400000
14080 7691 16348 1 149.00000 418.400000
14080 7692 16794 1 149.00000 418.400000
15201 7693 16037 1 149.00000 418.400000
14081 7694 14425 1 149.00000 418.400000
14081 7695 15201 1 149.00000 418.400000
14081 7696 16707 1 149.00000 418.400000
14082 7697 17122 1 149.00000 418.400000
14082 7698 14999 1 149.00000 418.400000
14794 7699 17122 1 149.00000 418.400000
14083 7700 16937 1 149.00000 418.400000
14083 7701 16252 1 149.00000 418.400000
14084 7702 16450 1 149.00000 418.400000
14084 7703 14926 1 149.00000 418.400000
14085 7704 15764 1 149.00000 418.400000
14085 7705 16349 1 149.00000 418.400000
14086 7706 14562 1 149.00000 418.400000
14086 7707 15177 1 149.00000 418.400000
14087 7708 16772 1 149.00000 418.400000
14087 7709 16143 1 149.00000 418.400000
14087 7710 15712 1 149.00000 418.400000
14088 7711 17902 1 149.00000 418.400000
14088 7712 14787 1 149.00000 418.400000
14089 7713 16002 1 149.00000 418.400000
13771 7714 14089 1 149.00000 418.400000
14090 7715 16989 1 149.00000 418.400000
14090 7716 16713 1 149.00000 418.400000
14090 7717 15095 1 149.00000 418.400000
14091 7718 17085 1 149.00000 418.400000
14091 7719 15840 1 149.00000 418.400000
14091 7720 16198 1 149.00000 418.400000
14092 7721 15177 1 149.00000 418.400000
14093 7722 14355 1 149.00000 418.400000
14093 7723 16644 1 149.00000 418.400000
14093 7724 14791 1 149.00000 418.400000
14093 7725 15628 1 149.00000 418.400000
14094 7726 14996 1 149.00000 418.400000
14094 7727 16418 1 149.00000 418.400000
14094 7728 14974 1 149.00000 418.400000
14095 7729 17041 1 149.00000 418.400000
14095 7730 15515 1 149.00000 418.400000
14096 7731 14964 1 149.00000 418.400000
14097 7732 15225 1 149.00000 418.400000
14097 7733 16499 1 149.00000 418.400000
14097 7734 16151 1 149.00000 418.400000
14098 7735 16448 1 149.00000 418.400000
14098 7736 15217 1 149.00000 418.400000
14098 7737 14443 1 149.00000 418.400000
14099 7738 15397 1 149.00000 418.400000
13763 7739 15186 1 149.00000 418.400000
11812 7740 14099 1 149.00000 418.400000
14100 7741 16457 1 149.00000 418.400000
14100 7742 15240 1 149.00000 418.400000
14100 7743 14921 1 149.00000 418.400000
14100 7744 16197 1 149.00000 418.400000
14101 7745 16536 1 149.00000 418.400000
14102 7746 15828 1 149.00000 418.400000
14102 7747 15046 1 149.00000 418.400000
14102 7748 14812 1 149.00000 418.400000
14102 7749 16010 1 149.00000 418.400000
14104 7750 16485 1 149.00000 418.400000
14104 7751 15773 1 149.00000 418.400000
14105 7752 16551 1 149.00000 418.400000
14105 7753 16180 1 149.00000 418.400000
14105 7754 16488 1 149.00000 418.400000
14106 7755 17119 1 149.00000 418.400000
14106 7756 15779 1 149.00000 418.400000
14106 7757 17088 1 149.00000 418.400000
14107 7758 16501 1 149.00000 418.400000
12823 7759 17035 1 149.00000 418.400000
14108 7760 16248 1 149.00000 418.400000
13048 7761 16728 1 149.00000 418.400000
14110 7762 14293 1 149.00000 418.400000
14119 7763 14293 1 149.00000 418.400000
14110 7764 16441 1 149.00000 418.400000
12029 7765 17157 1 149.00000 418.400000
14111 7766 15696 1 149.00000 418.400000
14111 7767 15177 1 149.00000 418.400000
14112 7768 15320 1 149.00000 418.400000
14113 7769 15458 1 149.00000 418.400000
14113 7770 17662 1 149.00000 418.400000
14114 7771 16836 1 149.00000 418.400000
14114 7772 15205 1 149.00000 418.400000
11790 7773 14114 1 149.00000 418.400000
15008 7774 16244 1 149.00000 418.400000
14115 7775 15305 1 149.00000 418.400000
14115 7776 16244 1 149.00000 418.400000
14116 7777 14192 1 149.00000 418.400000
14117 7778 16973 1 149.00000 418.400000
14117 7779 14825 1 149.00000 418.400000
14118 7780 15684 1 149.00000 418.400000
13915 7781 15459 1 149.00000 418.400000
14118 7782 16978 1 149.00000 418.400000
14119 7783 17503 1 149.00000 418.400000
14968 7784 16867 1 149.00000 418.400000
14119 7785 14968 1 149.00000 418.400000
14120 7786 14790 1 149.00000 418.400000
14120 7787 16102 1 149.00000 418.400000
14121 7788 15251 1 149.00000 418.400000
14121 7789 16628 1 149.00000 418.400000
14121 7790 17157 1 149.00000 418.400000
14122 7791 15711 1 149.00000 418.400000
14123 7792 16087 1 149.00000 418.400000
14124 7793 15706 1 149.00000 418.400000
14124 7794 17143 1 149.00000 418.400000
14124 7795 15333 1 149.00000 418.400000
14125 7796 16801 1 149.00000 418.400000
14125 7797 14580 1 149.00000 418.400000
14127 7798 16747 1 149.00000 418.400000
14127 7799 14550 1 149.00000 418.400000
14128 7800 17620 1 149.00000 418.400000
14129 7801 15919 1 149.00000 418.400000
14129 7802 16768 1 149.00000 418.400000
14130 7803 14739 1 149.00000 418.400000
14131 7804 15836 1 149.00000 418.400000
17596 7805 17638 1 149.00000 418.400000
16591 7806 17596 1 149.00000 418.400000
14132 7807 15394 1 149.00000 418.400000
14133 7808 15497 1 149.00000 418.400000
14133 7809 14369 1 149.00000 418.400000
14133 7810 15420 1 149.00000 418.400000
14133 7811 16189 1 149.00000 418.400000
14419 7812 17599 1 149.00000 418.400000
17599 7813 17953 1 149.00000 418.400000
14134 7814 16315 1 149.00000 418.400000
14134 7815 14225 1 149.00000 418.400000
14135 7816 16363 1 149.00000 418.400000
14135 7817 15892 1 149.00000 418.400000
16452 7818 17629 1 149.00000 418.400000
16434 7819 17629 1 149.00000 418.400000
12605 7820 15764 1 149.00000 418.400000
14137 7821 16131 1 149.00000 418.400000
14137 7822 15739 1 149.00000 418.400000
14138 7823 14505 1 149.00000 418.400000
14138 7824 17126 1 149.00000 418.400000
14138 7825 16460 1 149.00000 418.400000
14140 7826 16724 1 149.00000 418.400000
14140 7827 17114 1 149.00000 418.400000
14141 7828 16890 1 149.00000 418.400000
14141 7829 16728 1 149.00000 418.400000
14142 7830 17196 1 149.00000 418.400000
14142 7831 15566 1 149.00000 418.400000
16939 7832 17173 1 149.00000 418.400000
14143 7833 17173 1 149.00000 418.400000
14144 7834 15356 1 149.00000 418.400000
14144 7835 15562 1 149.00000 418.400000
14144 7836 15211 1 149.00000 418.400000
14145 7837 14979 1 149.00000 418.400000
14145 7838 15222 1 149.00000 418.400000
14146 7839 14496 1 149.00000 418.400000
14147 7840 15001 1 149.00000 418.400000
14147 7841 14255 1 149.00000 418.400000
14148 7842 17689 1 149.00000 418.400000
14149 7843 16314 1 149.00000 418.400000
14149 7844 14176 1 149.00000 418.400000
14149 7845 16815 1 149.00000 418.400000
14150 7846 15229 1 149.00000 418.400000
14150 7847 14151 1 149.00000 418.400000
14151 7848 15087 1 149.00000 418.400000
14151 7849 16064 1 149.00000 418.400000
14152 7850 15124 1 149.00000 418.400000
16162 7851 17785 1 149.00000 418.400000
14152 7852 16162 1 149.00000 418.400000
14153 7853 16576 1 149.00000 418.400000
14154 7854 15804 1 149.00000 418.400000
14154 7855 14180 1 149.00000 418.400000
14155 7856 16187 1 149.00000 418.400000
14155 7857 14822 1 149.00000 418.400000
14155 7858 16700 1 149.00000 418.400000
14156 7859 14285 1 149.00000 418.400000
14157 7860 14326 1 149.00000 418.400000
14157 7861 17902 1 149.00000 418.400000
14158 7862 17725 1 149.00000 418.400000
14158 7863 16855 1 149.00000 418.400000
14158 7864 17154 1 149.00000 418.400000
13549 7865 14159 1 149.00000 418.400000
14159 7866 14984 1 149.00000 418.400000
14159 7867 14805 1 149.00000 418.400000
14159 7868 17108 1 149.00000 418.400000
14161 7869 16730 1 149.00000 418.400000
14161 7870 14210 1 149.00000 418.400000
14162 7871 15890 1 149.00000 418.400000
14162 7872 14945 1 149.00000 418.400000
14163 7873 16061 1 149.00000 418.400000
14163 7874 16649 1 149.00000 418.400000
14164 7875 15103 1 149.00000 418.400000
14164 7876 14486 1 149.00000 418.400000
14164 7877 16499 1 149.00000 418.400000
13710 7878 14165 1 149.00000 418.400000
14165 7879 16092 1 149.00000 418.400000
14165 7880 16807 1 149.00000 418.400000
14166 7881 16510 1 149.00000 418.400000
14166 7882 16829 1 149.00000 418.400000
14167 7883 15662 1 149.00000 418.400000
14167 7884 16120 1 149.00000 418.400000
14167 7885 14262 1 149.00000 418.400000
14168 7886 16349 1 149.00000 418.400000
14168 7887 16404 1 149.00000 418.400000
14168 7888 15605 1 149.00000 418.400000
14169 7889 17006 1 149.00000 418.400000
14169 7890 16575 1 149.00000 418.400000
14169 7891 15195 1 149.00000 418.400000
14170 7892 14643 1 149.00000 418.400000
14170 7893 15694 1 149.00000 418.400000
14170 7894 14190 1 149.00000 418.400000
14171 7895 16641 1 149.00000 418.400000
14171 7896 16700 1 149.00000 418.400000
12174 7897 14171 1 149.00000 418.400000
14172 7898 14804 1 149.00000 418.400000
14172 7899 15175 1 149.00000 418.400000
14172 7900 16114 1 149.00000 418.400000
14173 7901 14948 1 149.00000 418.400000
14174 7902 16899 1 149.00000 418.400000
14174 7903 14698 1 149.00000 418.400000
14175 7904 16748 1 149.00000 418.400000
14175 7905 14562 1 149.00000 418.400000
14177 7906 15085 1 149.00000 418.400000
14177 7907 14511 1 149.00000 418.400000
16987 7908 17602 1 149.00000 418.400000
14178 7909 16915 1 149.00000 418.400000
14178 7910 14325 1 149.00000 418.400000
14179 7911 16927 1 149.00000 418.400000
14179 7912 15501 1 149.00000 418.400000
14180 7913 14411 1 149.00000 418.400000
14180 7914 15266 1 149.00000 418.400000
14180 7915 16615 1 149.00000 418.400000
14181 7916 16780 1 149.00000 418.400000
14181 7917 16561 1 149.00000 418.400000
14182 7918 15809 1 149.00000 418.400000
14182 7919 14948 1 149.00000 418.400000
14182 7920 16142 1 149.00000 418.400000
14183 7921 15363 1 149.00000 418.400000
14183 7922 14677 1 149.00000 418.400000
14184 7923 15572 1 149.00000 418.400000
14184 7924 16638 1 149.00000 418.400000
14184 7925 14245 1 149.00000 418.400000
14185 7926 16001 1 149.00000 418.400000
14186 7927 17160 1 149.00000 418.400000
14186 7928 14755 1 149.00000 418.400000
14187 7929 16974 1 149.00000 418.400000
14187 7930 15781 1 149.00000 418.400000
14187 7931 14258 1 149.00000 418.400000
14188 7932 16562 1 149.00000 418.400000
14188 7933 16005 1 149.00000 418.400000
14189 7934 16825 1 149.00000 418.400000
14189 7935 16266 1 149.00000 418.400000
14189 7936 14744 1 149.00000 418.400000
14190 7937 16335 1 149.00000 418.400000
14190 7938 14594 1 149.00000 418.400000
14190 7939 15317 1 149.00000 418.400000
14191 7940 17081 1 149.00000 418.400000
14191 7941 15218 1 149.00000 418.400000
14192 7942 15791 1 149.00000 418.400000
14193 7943 14528 1 149.00000 418.400000
14193 7944 16453 1 149.00000 418.400000
15165 7945 17605 1 149.00000 418.400000
14194 7946 14828 1 149.00000 418.400000
14194 7947 16025 1 149.00000 418.400000
14194 7948 14388 1 149.00000 418.400000
14195 7949 16475 1 149.00000 418.400000
14196 7950 15610 1 149.00000 418.400000
14197 7951 16904 1 149.00000 418.400000
14197 7952 15676 1 149.00000 418.400000
13236 7953 14197 1 149.00000 418.400000
14198 7954 17015 1 149.00000 418.400000
14199 7955 16986 1 149.00000 418.400000
14200 7956 16295 1 149.00000 418.400000
14201 7957 16902 1 149.00000 418.400000
14201 7958 14696 1 149.00000 418.400000
14201 7959 15974 1 149.00000 418.400000
14202 7960 15622 1 149.00000 418.400000
14202 7961 17028 1 149.00000 418.400000
14203 7962 17109 1 149.00000 418.400000
14204 7963 16422 1 149.00000 418.400000
14204 7964 16132 1 149.00000 418.400000
14204 7965 16665 1 149.00000 418.400000
14204 7966 16006 1 149.00000 418.400000
14205 7967 16043 1 149.00000 418.400000
14205 7968 14421 1 149.00000 418.400000
14207 7969 15633 1 149.00000 418.400000
14207 7970 15684 1 149.00000 418.400000
14207 7971 15396 1 149.00000 418.400000
17011 7972 17049 1 149.00000 418.400000
15060 7973 17011 1 149.00000 418.400000
14208 7974 17011 1 149.00000 418.400000
14209 7975 16403 1 149.00000 418.400000
14209 7976 15146 1 149.00000 418.400000
14210 7977 14937 1 149.00000 418.400000
14211 7978 16956 1 149.00000 418.400000
14211 7979 16130 1 149.00000 418.400000
14211 7980 14453 1 149.00000 418.400000
14212 7981 15378 1 149.00000 418.400000
14213 7982 16765 1 149.00000 418.400000
14213 7983 16239 1 149.00000 418.400000
14214 7984 17115 1 149.00000 418.400000
14214 7985 15202 1 149.00000 418.400000
14215 7986 15441 1 149.00000 418.400000
14215 7987 16079 1 149.00000 418.400000
14215 7988 17073 1 149.00000 418.400000
14217 7989 14706 1 149.00000 418.400000
14217 7990 17989 1 149.00000 418.400000
14217 7991 16880 1 149.00000 418.400000
14218 7992 15830 1 149.00000 418.400000
14218 7993 14805 1 149.00000 418.400000
14219 7994 16476 1 149.00000 418.400000
14220 7995 15358 1 149.00000 418.400000
14220 7996 15288 1 149.00000 418.400000
14220 7997 16289 1 149.00000 418.400000
14221 7998 16544 1 149.00000 418.400000
14221 7999 14481 1 149.00000 418.400000
14221 8000 15224 1 149.00000 418.400000
14223 8001 14977 1 149.00000 418.400000
14223 8002 15020 1 149.00000 418.400000
14223 8003 16361 1 149.00000 418.400000
14224 8004 15419 1 149.00000 418.400000
14224 8005 15674 1 149.00000 418.400000
14224 8006 16606 1 149.00000 418.400000
14224 8007 14482 1 149.00000 418.400000
14225 8008 16192 1 149.00000 418.400000
14225 8009 15065 1 149.00000 418.400000
14226 8010 14399 1 149.00000 418.400000
14226 8011 15050 1 149.00000 418.400000
14227 8012 16359 1 149.00000 418.400000
14227 8013 16887 1 149.00000 418.400000
13997 8014 14228 1 149.00000 418.400000
14229 8015 16817 1 149.00000 418.400000
14229 8016 14723 1 149.00000 418.400000
14229 8017 17129 1 149.00000 418.400000
14229 8018 15250 1 149.00000 418.400000
14230 8019 16002 1 149.00000 418.400000
14230 8020 17105 1 149.00000 418.400000
14230 8021 14862 1 149.00000 418.400000
13488 8022 14230 1 149.00000 418.400000
14231 8023 15875 1 149.00000 418.400000
14231 8024 15386 1 149.00000 418.400000
14232 8025 17027 1 149.00000 418.400000
14232 8026 16440 1 149.00000 418.400000
14232 8027 15836 1 149.00000 418.400000
14233 8028 16858 1 149.00000 418.400000
14234 8029 14370 1 149.00000 418.400000
14234 8030 17134 1 149.00000 418.400000
14234 8031 14593 1 149.00000 418.400000
14234 8032 16341 1 149.00000 418.400000
14235 8033 14791 1 149.00000 418.400000
14235 8034 14828 1 149.00000 418.400000
14235 8035 15329 1 149.00000 418.400000
14236 8036 14927 1 149.00000 418.400000
14236 8037 15624 1 149.00000 418.400000
14237 8038 16221 1 149.00000 418.400000
14237 8039 16101 1 149.00000 418.400000
14238 8040 15812 1 149.00000 418.400000
14238 8041 14512 1 149.00000 418.400000
14239 8042 14349 1 149.00000 418.400000
14240 8043 17776 1 149.00000 418.400000
16098 8044 17776 1 149.00000 418.400000
14241 8045 17659 1 149.00000 418.400000
14242 8046 16984 1 149.00000 418.400000
14243 8047 16260 1 149.00000 418.400000
14243 8048 16264 1 149.00000 418.400000
14244 8049 15642 1 149.00000 418.400000
14244 8050 16387 1 149.00000 418.400000
14245 8051 14855 1 149.00000 418.400000
14245 8052 14298 1 149.00000 418.400000
14247 8053 15814 1 149.00000 418.400000
14247 8054 16158 1 149.00000 418.400000
14248 8055 15490 1 149.00000 418.400000
14248 8056 14864 1 149.00000 418.400000
12035 8057 14248 1 149.00000 418.400000
14249 8058 17731 1 149.00000 418.400000
14249 8059 15908 1 149.00000 418.400000
14250 8060 15902 1 149.00000 418.400000
14250 8061 15097 1 149.00000 418.400000
14251 8062 15280 1 149.00000 418.400000
14252 8063 16330 1 149.00000 418.400000
14253 8064 16623 1 149.00000 418.400000
14253 8065 16727 1 149.00000 418.400000
14253 8066 14856 1 149.00000 418.400000
17932 8067 18074 1 149.00000 418.400000
14254 8068 14504 1 149.00000 418.400000
14254 8069 16007 1 149.00000 418.400000
14255 8070 15582 1 149.00000 418.400000
14255 8071 14742 1 149.00000 418.400000
14256 8072 16000 1 149.00000 418.400000
14257 8073 16962 1 149.00000 418.400000
14258 8074 15589 1 149.00000 418.400000
14259 8075 14674 1 149.00000 418.400000
14259 8076 15466 1 149.00000 418.400000
14259 8077 16199 1 149.00000 418.400000
14260 8078 14463 1 149.00000 418.400000
14260 8079 15687 1 149.00000 418.400000
14260 8080 15343 1 149.00000 418.400000
17186 8081 17608 1 149.00000 418.400000
14261 8082 15961 1 149.00000 418.400000
14261 8083 15523 1 149.00000 418.400000
13882 8084 14709 1 149.00000 418.400000
14262 8085 15775 1 149.00000 418.400000
14262 8086 15183 1 149.00000 418.400000
14263 8087 15696 1 149.00000 418.400000
14263 8088 15635 1 149.00000 418.400000
14264 8089 14924 1 149.00000 418.400000
12907 8090 14264 1 149.00000 418.400000
15136 8091 17611 1 149.00000 418.400000
15270 8092 17611 1 149.00000 418.400000
14596 8093 17611 1 149.00000 418.400000
14265 8094 14643 1 149.00000 418.400000
14265 8095 15452 1 149.00000 418.400000
14266 8096 16287 1 149.00000 418.400000
14266 8097 17992 1 149.00000 418.400000
14267 8098 16632 1 149.00000 418.400000
16166 8099 16546 1 149.00000 418.400000
14267 8100 14492 1 149.00000 418.400000
14267 8101 16546 1 149.00000 418.400000
14268 8102 15315 1 149.00000 418.400000
14268 8103 16523 1 149.00000 418.400000
14268 8104 14382 1 149.00000 418.400000
14823 8105 16302 1 149.00000 418.400000
14270 8106 14823 1 149.00000 418.400000
14272 8107 16208 1 149.00000 418.400000
14273 8108 15249 1 149.00000 418.400000
14273 8109 16504 1 149.00000 418.400000
14273 8110 17001 1 149.00000 418.400000
14274 8111 15277 1 149.00000 418.400000
14274 8112 16500 1 149.00000 418.400000
14275 8113 15919 1 149.00000 418.400000
14275 8114 14283 1 149.00000 418.400000
12491 8115 15802 1 149.00000 418.400000
14276 8116 17045 1 149.00000 418.400000
14277 8117 15640 1 149.00000 418.400000
14277 8118 15907 1 149.00000 418.400000
14278 8119 16722 1 149.00000 418.400000
14278 8120 16365 1 149.00000 418.400000
14278 8121 16647 1 149.00000 418.400000
13867 8122 14279 1 149.00000 418.400000
14280 8123 16610 1 149.00000 418.400000
14280 8124 16790 1 149.00000 418.400000
14281 8125 14506 1 149.00000 418.400000
14281 8126 16686 1 149.00000 418.400000
14282 8127 17073 1 149.00000 418.400000
14282 8128 15916 1 149.00000 418.400000
14282 8129 14712 1 149.00000 418.400000
14283 8130 16768 1 149.00000 418.400000
14283 8131 14992 1 149.00000 418.400000
14284 8132 15078 1 149.00000 418.400000
14284 8133 16981 1 149.00000 418.400000
14285 8134 15526 1 149.00000 418.400000
14285 8135 15514 1 149.00000 418.400000
14286 8136 14311 1 149.00000 418.400000
14286 8137 15148 1 149.00000 418.400000
14286 8138 16215 1 149.00000 418.400000
14287 8139 16869 1 149.00000 418.400000
14287 8140 16078 1 149.00000 418.400000
14287 8141 15887 1 149.00000 418.400000
14288 8142 16532 1 149.00000 418.400000
14289 8143 15405 1 149.00000 418.400000
14289 8144 15433 1 149.00000 418.400000
14290 8145 16743 1 149.00000 418.400000
14291 8146 15392 1 149.00000 418.400000
14291 8147 16751 1 149.00000 418.400000
14770 8148 16558 1 149.00000 418.400000
14292 8149 16558 1 149.00000 418.400000
14110 8150 16292 1 149.00000 418.400000
14294 8151 14426 1 149.00000 418.400000
14294 8152 16082 1 149.00000 418.400000
15361 8153 17614 1 149.00000 418.400000
14295 8154 15578 1 149.00000 418.400000
14295 8155 15722 1 149.00000 418.400000
15578 8156 16075 1 149.00000 418.400000
14295 8157 14802 1 149.00000 418.400000
14296 8158 15285 1 149.00000 418.400000
14296 8159 17030 1 149.00000 418.400000
14297 8160 17195 1 149.00000 418.400000
11990 8161 15049 1 149.00000 418.400000
11990 8162 14297 1 149.00000 418.400000
14298 8163 14466 1 149.00000 418.400000
14298 8164 16474 1 149.00000 418.400000
14299 8165 15923 1 149.00000 418.400000
11983 8166 16818 1 149.00000 418.400000
14300 8167 16840 1 149.00000 418.400000
14301 8168 14911 1 149.00000 418.400000
14302 8169 15389 1 149.00000 418.400000
14302 8170 16816 1 149.00000 418.400000
14302 8171 14489 1 149.00000 418.400000
14303 8172 15763 1 149.00000 418.400000
14303 8173 18104 1 149.00000 418.400000
14303 8174 16207 1 149.00000 418.400000
14304 8175 14595 1 149.00000 418.400000
14304 8176 15559 1 149.00000 418.400000
14304 8177 15464 1 149.00000 418.400000
14304 8178 15379 1 149.00000 418.400000
14305 8179 16237 1 149.00000 418.400000
14305 8180 15393 1 149.00000 418.400000
14305 8181 15122 1 149.00000 418.400000
14305 8182 15789 1 149.00000 418.400000
14306 8183 16493 1 149.00000 418.400000
14306 8184 15144 1 149.00000 418.400000
14307 8185 16400 1 149.00000 418.400000
14308 8186 14372 1 149.00000 418.400000
14308 8187 16899 1 149.00000 418.400000
14308 8188 16070 1 149.00000 418.400000
14309 8189 15585 1 149.00000 418.400000
14309 8190 15387 1 149.00000 418.400000
14309 8191 15534 1 149.00000 418.400000
14310 8192 14904 1 149.00000 418.400000
14310 8193 14432 1 149.00000 418.400000
14310 8194 15462 1 149.00000 418.400000
14311 8195 15417 1 149.00000 418.400000
14311 8196 14731 1 149.00000 418.400000
14312 8197 15920 1 149.00000 418.400000
14650 8198 17617 1 149.00000 418.400000
14313 8199 14338 1 149.00000 418.400000
14313 8200 15598 1 149.00000 418.400000
14313 8201 16804 1 149.00000 418.400000
14314 8202 15834 1 149.00000 418.400000
14315 8203 14958 1 149.00000 418.400000
14315 8204 14905 1 149.00000 418.400000
14316 8205 16859 1 149.00000 418.400000
14316 8206 17085 1 149.00000 418.400000
14316 8207 16183 1 149.00000 418.400000
14317 8208 16622 1 149.00000 418.400000
14317 8209 16543 1 149.00000 418.400000
14318 8210 17075 1 149.00000 418.400000
12693 8211 14552 1 149.00000 418.400000
12982 8212 17233 1 149.00000 418.400000
14320 8213 16158 1 149.00000 418.400000
14321 8214 16093 1 149.00000 418.400000
14321 8215 15117 1 149.00000 418.400000
14912 8216 17097 1 149.00000 418.400000
14322 8217 14912 1 149.00000 418.400000
14323 8218 16952 1 149.00000 418.400000
14323 8219 15207 1 149.00000 418.400000
14324 8220 16175 1 149.00000 418.400000
14325 8221 16363 1 149.00000 418.400000
14326 8222 16202 1 149.00000 418.400000
14327 8223 16194 1 149.00000 418.400000
14327 8224 15698 1 149.00000 418.400000
14327 8225 17175 1 149.00000 418.400000
14328 8226 16742 1 149.00000 418.400000
14328 8227 14570 1 149.00000 418.400000
14328 8228 16775 1 149.00000 418.400000
14330 8229 15870 1 149.00000 418.400000
14330 8230 17131 1 149.00000 418.400000
14330 8231 14533 1 149.00000 418.400000
14330 8232 15080 1 149.00000 418.400000
14331 8233 16502 1 149.00000 418.400000
14331 8234 17881 1 149.00000 418.400000
14332 8235 15212 1 149.00000 418.400000
14332 8236 16711 1 149.00000 418.400000
14333 8237 14680 1 149.00000 418.400000
14334 8238 17079 1 149.00000 418.400000
14334 8239 16087 1 149.00000 418.400000
15160 8240 16967 1 149.00000 418.400000
14335 8241 15461 1 149.00000 418.400000
14335 8242 16967 1 149.00000 418.400000
14336 8243 15383 1 149.00000 418.400000
14336 8244 14505 1 149.00000 418.400000
14336 8245 16036 1 149.00000 418.400000
14337 8246 15379 1 149.00000 418.400000
15969 8247 17620 1 149.00000 418.400000
14338 8248 14711 1 149.00000 418.400000
14339 8249 15913 1 149.00000 418.400000
14339 8250 16667 1 149.00000 418.400000
14339 8251 15457 1 149.00000 418.400000
14339 8252 14738 1 149.00000 418.400000
14340 8253 16389 1 149.00000 418.400000
14340 8254 14850 1 149.00000 418.400000
14340 8255 17166 1 149.00000 418.400000
14341 8256 16051 1 149.00000 418.400000
14341 8257 14456 1 149.00000 418.400000
14341 8258 14814 1 149.00000 418.400000
12065 8259 16153 1 149.00000 418.400000
14343 8260 15941 1 149.00000 418.400000
14343 8261 15697 1 149.00000 418.400000
14344 8262 16506 1 149.00000 418.400000
14345 8263 14838 1 149.00000 418.400000
14345 8264 16111 1 149.00000 418.400000
15829 8265 18079 1 149.00000 418.400000
14346 8266 16554 1 149.00000 418.400000
14346 8267 16662 1 149.00000 418.400000
14346 8268 17187 1 149.00000 418.400000
14348 8269 15492 1 149.00000 418.400000
14348 8270 16686 1 149.00000 418.400000
14348 8271 14728 1 149.00000 418.400000
14349 8272 16340 1 149.00000 418.400000
14350 8273 17198 1 149.00000 418.400000
14351 8274 16625 1 149.00000 418.400000
14352 8275 16372 1 149.00000 418.400000
16553 8276 17626 1 149.00000 418.400000
13600 8277 14952 1 149.00000 418.400000
14353 8278 15788 1 149.00000 418.400000
13600 8279 15465 1 149.00000 418.400000
14354 8280 16850 1 149.00000 418.400000
14355 8281 16734 1 149.00000 418.400000
14355 8282 14730 1 149.00000 418.400000
14730 8283 15202 1 149.00000 418.400000
14356 8284 16310 1 149.00000 418.400000
14356 8285 14681 1 149.00000 418.400000
14356 8286 15485 1 149.00000 418.400000
14356 8287 14573 1 149.00000 418.400000
15568 8288 18084 1 149.00000 418.400000
14748 8289 18084 1 149.00000 418.400000
14357 8290 16712 1 149.00000 418.400000
14357 8291 17127 1 149.00000 418.400000
14358 8292 15982 1 149.00000 418.400000
14358 8293 14841 1 149.00000 418.400000
13427 8294 17803 1 149.00000 418.400000
14359 8295 16700 1 149.00000 418.400000
14359 8296 17758 1 149.00000 418.400000
14360 8297 15022 1 149.00000 418.400000
14361 8298 16410 1 149.00000 418.400000
14362 8299 15445 1 149.00000 418.400000
14362 8300 15049 1 149.00000 418.400000
14362 8301 15969 1 149.00000 418.400000
14363 8302 15323 1 149.00000 418.400000
14363 8303 16784 1 149.00000 418.400000
14363 8304 16581 1 149.00000 418.400000
14364 8305 16164 1 149.00000 418.400000
14364 8306 15076 1 149.00000 418.400000
14365 8307 14630 1 149.00000 418.400000
14365 8308 16858 1 149.00000 418.400000
14366 8309 15799 1 149.00000 418.400000
14366 8310 17031 1 149.00000 418.400000
14366 8311 16874 1 149.00000 418.400000
14367 8312 17169 1 149.00000 418.400000
14367 8313 15876 1 149.00000 418.400000
13322 8314 16872 1 149.00000 418.400000
15307 8315 15876 1 149.00000 418.400000
14368 8316 16307 1 149.00000 418.400000
14368 8317 15707 1 149.00000 418.400000
14368 8318 14494 1 149.00000 418.400000
14368 8319 17057 1 149.00000 418.400000
14369 8320 14899 1 149.00000 418.400000
14370 8321 16704 1 149.00000 418.400000
14370 8322 14786 1 149.00000 418.400000
14371 8323 15077 1 149.00000 418.400000
14371 8324 15040 1 149.00000 418.400000
14372 8325 15575 1 149.00000 418.400000
14372 8326 16891 1 149.00000 418.400000
14373 8327 15236 1 149.00000 418.400000
14373 8328 16325 1 149.00000 418.400000
14373 8329 15925 1 149.00000 418.400000
12406 8330 14373 1 149.00000 418.400000
14374 8331 15516 1 149.00000 418.400000
14374 8332 17036 1 149.00000 418.400000
14375 8333 16754 1 149.00000 418.400000
14375 8334 14683 1 149.00000 418.400000
14375 8335 16811 1 149.00000 418.400000
14376 8336 17166 1 149.00000 418.400000
14376 8337 16077 1 149.00000 418.400000
14376 8338 14484 1 149.00000 418.400000
14376 8339 15465 1 149.00000 418.400000
14377 8340 15004 1 149.00000 418.400000
14377 8341 15973 1 149.00000 418.400000
14378 8342 15351 1 149.00000 418.400000
14379 8343 14476 1 149.00000 418.400000
14379 8344 16330 1 149.00000 418.400000
14379 8345 16361 1 149.00000 418.400000
14380 8346 16816 1 149.00000 418.400000
14380 8347 17060 1 149.00000 418.400000
14381 8348 15916 1 149.00000 418.400000
14381 8349 15620 1 149.00000 418.400000
14381 8350 15931 1 149.00000 418.400000
14383 8351 15664 1 149.00000 418.400000
14383 8352 16814 1 149.00000 418.400000
14383 8353 14468 1 149.00000 418.400000
14384 8354 15943 1 149.00000 418.400000
14385 8355 15483 1 149.00000 418.400000
14385 8356 14973 1 149.00000 418.400000
14386 8357 14959 1 149.00000 418.400000
14386 8358 16799 1 149.00000 418.400000
14387 8359 15612 1 149.00000 418.400000
14387 8360 14755 1 149.00000 418.400000
14387 8361 16971 1 149.00000 418.400000
14388 8362 15313 1 149.00000 418.400000
14389 8363 17824 1 149.00000 418.400000
14389 8364 16102 1 149.00000 418.400000
14389 8365 16926 1 149.00000 418.400000
14390 8366 14804 1 149.00000 418.400000
14390 8367 14418 1 149.00000 418.400000
14391 8368 14935 1 149.00000 418.400000
14391 8369 14423 1 149.00000 418.400000
14391 8370 14837 1 149.00000 418.400000
14622 8371 17632 1 149.00000 418.400000
14392 8372 15312 1 149.00000 418.400000
14333 8373 16836 1 149.00000 418.400000
14393 8374 16729 1 149.00000 418.400000
14393 8375 15651 1 149.00000 418.400000
12051 8376 16565 1 149.00000 418.400000
14394 8377 14929 1 149.00000 418.400000
14395 8378 16593 1 149.00000 418.400000
14396 8379 16336 1 149.00000 418.400000
14396 8380 16922 1 149.00000 418.400000
14758 8381 17635 1 149.00000 418.400000
14397 8382 17150 1 149.00000 418.400000
11939 8383 14397 1 149.00000 418.400000
14398 8384 15360 1 149.00000 418.400000
14399 8385 14719 1 149.00000 418.400000
14400 8386 14529 1 149.00000 418.400000
14400 8387 16545 1 149.00000 418.400000
14400 8388 15699 1 149.00000 418.400000
14401 8389 14895 1 149.00000 418.400000
14402 8390 15600 1 149.00000 418.400000
14402 8391 15759 1 149.00000 418.400000
14403 8392 14986 1 149.00000 418.400000
14403 8393 16038 1 149.00000 418.400000
14404 8394 17138 1 149.00000 418.400000
14404 8395 14819 1 149.00000 418.400000
14404 8396 15437 1 149.00000 418.400000
14405 8397 14774 1 149.00000 418.400000
14405 8398 16963 1 149.00000 418.400000
14406 8399 16371 1 149.00000 418.400000
14406 8400 15654 1 149.00000 418.400000
14407 8401 17005 1 149.00000 418.400000
14407 8402 16603 1 149.00000 418.400000
14409 8403 16639 1 149.00000 418.400000
15137 8404 17638 1 149.00000 418.400000
17638 8405 17890 1 149.00000 418.400000
14411 8406 17149 1 149.00000 418.400000
14411 8407 14692 1 149.00000 418.400000
14412 8408 15847 1 149.00000 418.400000
14412 8409 15645 1 149.00000 418.400000
14412 8410 14999 1 149.00000 418.400000
14413 8411 16404 1 149.00000 418.400000
11792 8412 17926 1 149.00000 418.400000
14414 8413 14756 1 149.00000 418.400000
14414 8414 14486 1 149.00000 418.400000
14415 8415 15543 1 149.00000 418.400000
14415 8416 16176 1 149.00000 418.400000
14415 8417 16437 1 149.00000 418.400000
14416 8418 15794 1 149.00000 418.400000
14416 8419 14581 1 149.00000 418.400000
14416 8420 16815 1 149.00000 418.400000
13121 8421 15861 1 149.00000 418.400000
14417 8422 15096 1 149.00000 418.400000
14418 8423 16267 1 149.00000 418.400000
14418 8424 14781 1 149.00000 418.400000
14418 8425 15856 1 149.00000 418.400000
15235 8426 16923 1 149.00000 418.400000
14419 8427 16923 1 149.00000 418.400000
15007 8428 16923 1 149.00000 418.400000
16594 8429 16878 1 149.00000 418.400000
14420 8430 15216 1 149.00000 418.400000
14420 8431 16878 1 149.00000 418.400000
14421 8432 16875 1 149.00000 418.400000
14421 8433 15675 1 149.00000 418.400000
14422 8434 16818 1 149.00000 418.400000
14422 8435 15711 1 149.00000 418.400000
15862 8436 16818 1 149.00000 418.400000
15427 8437 16125 1 149.00000 418.400000
14423 8438 17755 1 149.00000 418.400000
14423 8439 16125 1 149.00000 418.400000
14424 8440 16292 1 149.00000 418.400000
14424 8441 14961 1 149.00000 418.400000
14425 8442 15808 1 149.00000 418.400000
14426 8443 15257 1 149.00000 418.400000
14427 8444 16793 1 149.00000 418.400000
14428 8445 14463 1 149.00000 418.400000
14428 8446 16702 1 149.00000 418.400000
14428 8447 15338 1 149.00000 418.400000
14429 8448 15668 1 149.00000 418.400000
14429 8449 16306 1 149.00000 418.400000
16306 8450 16438 1 149.00000 418.400000
14430 8451 16705 1 149.00000 418.400000
14430 8452 14928 1 149.00000 418.400000
14430 8453 15832 1 149.00000 418.400000
16705 8454 16760 1 149.00000 418.400000
14431 8455 15493 1 149.00000 418.400000
11848 8456 16022 1 149.00000 418.400000
14433 8457 16209 1 149.00000 418.400000
14433 8458 15670 1 149.00000 418.400000
16311 8459 17641 1 149.00000 418.400000
14434 8460 16932 1 149.00000 418.400000
14825 8461 16932 1 149.00000 418.400000
14435 8462 15761 1 149.00000 418.400000
14435 8463 15122 1 149.00000 418.400000
14435 8464 15703 1 149.00000 418.400000
14436 8465 15150 1 149.00000 418.400000
14436 8466 16066 1 149.00000 418.400000
14437 8467 17110 1 149.00000 418.400000
14438 8468 15675 1 149.00000 418.400000
14022 8469 14438 1 149.00000 418.400000
14438 8470 16679 1 149.00000 418.400000
14438 8471 15933 1 149.00000 418.400000
14439 8472 16595 1 149.00000 418.400000
14441 8473 16828 1 149.00000 418.400000
14441 8474 15683 1 149.00000 418.400000
14442 8475 15480 1 149.00000 418.400000
14443 8476 14542 1 149.00000 418.400000
14443 8477 16477 1 149.00000 418.400000
14444 8478 15527 1 149.00000 418.400000
14444 8479 17144 1 149.00000 418.400000
14444 8480 17125 1 149.00000 418.400000
14445 8481 14969 1 149.00000 418.400000
14445 8482 15899 1 149.00000 418.400000
14446 8483 17722 1 149.00000 418.400000
14447 8484 14539 1 149.00000 418.400000
14447 8485 15359 1 149.00000 418.400000
14448 8486 16682 1 149.00000 418.400000
14448 8487 15338 1 149.00000 418.400000
14448 8488 16986 1 149.00000 418.400000
14449 8489 15386 1 149.00000 418.400000
14449 8490 16626 1 149.00000 418.400000
14449 8491 15266 1 149.00000 418.400000
16490 8492 17644 1 149.00000 418.400000
14450 8493 15846 1 149.00000 418.400000
14450 8494 15424 1 149.00000 418.400000
14451 8495 16686 1 149.00000 418.400000
14451 8496 15249 1 149.00000 418.400000
15731 8497 17884 1 149.00000 418.400000
14452 8498 16108 1 149.00000 418.400000
14824 8499 15731 1 149.00000 418.400000
14452 8500 15731 1 149.00000 418.400000
14453 8501 14849 1 149.00000 418.400000
14454 8502 15164 1 149.00000 418.400000
14454 8503 14827 1 149.00000 418.400000
14454 8504 14559 1 149.00000 418.400000
12462 8505 15979 1 149.00000 418.400000
12462 8506 14473 1 149.00000 418.400000
14456 8507 15748 1 149.00000 418.400000
14457 8508 16011 1 149.00000 418.400000
14457 8509 16526 1 149.00000 418.400000
14457 8510 15936 1 149.00000 418.400000
16938 8511 17647 1 149.00000 418.400000
16151 8512 17647 1 149.00000 418.400000
14459 8513 15643 1 149.00000 418.400000
14460 8514 16215 1 149.00000 418.400000
14460 8515 15350 1 149.00000 418.400000
14460 8516 17057 1 149.00000 418.400000
14461 8517 16965 1 149.00000 418.400000
14462 8518 17183 1 149.00000 418.400000
14463 8519 15699 1 149.00000 418.400000
14464 8520 16886 1 149.00000 418.400000
14465 8521 15108 1 149.00000 418.400000
14465 8522 16599 1 149.00000 418.400000
14466 8523 15360 1 149.00000 418.400000
14466 8524 17177 1 149.00000 418.400000
11668 8525 14870 1 149.00000 418.400000
11668 8526 15171 1 149.00000 418.400000
11668 8527 14726 1 149.00000 418.400000
14468 8528 14542 1 149.00000 418.400000
14468 8529 15186 1 149.00000 418.400000
14470 8530 14761 1 149.00000 418.400000
14470 8531 16384 1 149.00000 418.400000
14471 8532 16888 1 149.00000 418.400000
14471 8533 15950 1 149.00000 418.400000
14471 8534 16982 1 149.00000 418.400000
14472 8535 16520 1 149.00000 418.400000
14472 8536 15813 1 149.00000 418.400000
14472 8537 16849 1 149.00000 418.400000
14473 8538 16769 1 149.00000 418.400000
14473 8539 14833 1 149.00000 418.400000
14474 8540 16716 1 149.00000 418.400000
14474 8541 16097 1 149.00000 418.400000
14474 8542 17066 1 149.00000 418.400000
14475 8543 15317 1 149.00000 418.400000
14475 8544 16537 1 149.00000 418.400000
14475 8545 14594 1 149.00000 418.400000
14476 8546 15821 1 149.00000 418.400000
14477 8547 15635 1 149.00000 418.400000
14477 8548 16087 1 149.00000 418.400000
14477 8549 14727 1 149.00000 418.400000
14478 8550 16469 1 149.00000 418.400000
14479 8551 15304 1 149.00000 418.400000
14479 8552 15662 1 149.00000 418.400000
14479 8553 15183 1 149.00000 418.400000
14481 8554 17094 1 149.00000 418.400000
14481 8555 14514 1 149.00000 418.400000
14482 8556 16959 1 149.00000 418.400000
14482 8557 17052 1 149.00000 418.400000
14483 8558 15483 1 149.00000 418.400000
14483 8559 16939 1 149.00000 418.400000
14484 8560 16531 1 149.00000 418.400000
14484 8561 16655 1 149.00000 418.400000
14485 8562 16064 1 149.00000 418.400000
14486 8563 16961 1 149.00000 418.400000
14487 8564 16963 1 149.00000 418.400000
14487 8565 15849 1 149.00000 418.400000
14488 8566 16660 1 149.00000 418.400000
14489 8567 15697 1 149.00000 418.400000
14490 8568 15089 1 149.00000 418.400000
14490 8569 16402 1 149.00000 418.400000
14491 8570 15757 1 149.00000 418.400000
14491 8571 17160 1 149.00000 418.400000
14491 8572 16331 1 149.00000 418.400000
14493 8573 14908 1 149.00000 418.400000
14493 8574 16607 1 149.00000 418.400000
14494 8575 15782 1 149.00000 418.400000
14495 8576 16954 1 149.00000 418.400000
14495 8577 16378 1 149.00000 418.400000
14495 8578 16992 1 149.00000 418.400000
14495 8579 14575 1 149.00000 418.400000
14496 8580 16264 1 149.00000 418.400000
12064 8581 14496 1 149.00000 418.400000
14497 8582 15791 1 149.00000 418.400000
14498 8583 16607 1 149.00000 418.400000
14498 8584 16088 1 149.00000 418.400000
11878 8585 14498 1 149.00000 418.400000
14499 8586 15549 1 149.00000 418.400000
14499 8587 15761 1 149.00000 418.400000
14500 8588 16671 1 149.00000 418.400000
14500 8589 16073 1 149.00000 418.400000
14501 8590 16167 1 149.00000 418.400000
14501 8591 15617 1 149.00000 418.400000
14501 8592 15994 1 149.00000 418.400000
13199 8593 15087 1 149.00000 418.400000
14502 8594 14544 1 149.00000 418.400000
14502 8595 16984 1 149.00000 418.400000
14503 8596 16225 1 149.00000 418.400000
14503 8597 16313 1 149.00000 418.400000
14503 8598 16668 1 149.00000 418.400000
14504 8599 15559 1 149.00000 418.400000
14504 8600 16062 1 149.00000 418.400000
14504 8601 14887 1 149.00000 418.400000
14505 8602 15246 1 149.00000 418.400000
14505 8603 16919 1 149.00000 418.400000
14507 8604 15637 1 149.00000 418.400000
14508 8605 16970 1 149.00000 418.400000
14508 8606 16744 1 149.00000 418.400000
14508 8607 17064 1 149.00000 418.400000
14508 8608 16415 1 149.00000 418.400000
14335 8609 14509 1 149.00000 418.400000
14510 8610 16735 1 149.00000 418.400000
14510 8611 16447 1 149.00000 418.400000
12110 8612 16771 1 149.00000 418.400000
14511 8613 16728 1 149.00000 418.400000
14511 8614 16447 1 149.00000 418.400000
14512 8615 15625 1 149.00000 418.400000
14512 8616 15019 1 149.00000 418.400000
14513 8617 15690 1 149.00000 418.400000
14513 8618 15199 1 149.00000 418.400000
14514 8619 16822 1 149.00000 418.400000
14514 8620 15536 1 149.00000 418.400000
16071 8621 17653 1 149.00000 418.400000
11778 8622 15369 1 149.00000 418.400000
14515 8623 14940 1 149.00000 418.400000
14515 8624 16133 1 149.00000 418.400000
14516 8625 16486 1 149.00000 418.400000
14517 8626 15572 1 149.00000 418.400000
14517 8627 17129 1 149.00000 418.400000
14517 8628 14542 1 149.00000 418.400000
14517 8629 15664 1 149.00000 418.400000
14518 8630 16425 1 149.00000 418.400000
14519 8631 14675 1 149.00000 418.400000
14519 8632 15028 1 149.00000 418.400000
14519 8633 16181 1 149.00000 418.400000
14520 8634 16188 1 149.00000 418.400000
14520 8635 17695 1 149.00000 418.400000
14520 8636 16092 1 149.00000 418.400000
15384 8637 15466 1 149.00000 418.400000
15179 8638 15466 1 149.00000 418.400000
14521 8639 15466 1 149.00000 418.400000
14522 8640 16582 1 149.00000 418.400000
14523 8641 16003 1 149.00000 418.400000
14523 8642 14633 1 149.00000 418.400000
14524 8643 15789 1 149.00000 418.400000
14524 8644 16035 1 149.00000 418.400000
14525 8645 15503 1 149.00000 418.400000
14525 8646 15518 1 149.00000 418.400000
14526 8647 16698 1 149.00000 418.400000
14526 8648 16726 1 149.00000 418.400000
14527 8649 15623 1 149.00000 418.400000
14527 8650 16261 1 149.00000 418.400000
14528 8651 16169 1 149.00000 418.400000
14529 8652 14971 1 149.00000 418.400000
14530 8653 16464 1 149.00000 418.400000
14530 8654 15655 1 149.00000 418.400000
14531 8655 15605 1 149.00000 418.400000
14531 8656 16714 1 149.00000 418.400000
14532 8657 15411 1 149.00000 418.400000
14532 8658 15099 1 149.00000 418.400000
14533 8659 15742 1 149.00000 418.400000
14534 8660 14970 1 149.00000 418.400000
14534 8661 16354 1 149.00000 418.400000
14535 8662 15543 1 149.00000 418.400000
14535 8663 16931 1 149.00000 418.400000
13348 8664 14535 1 149.00000 418.400000
14535 8665 15063 1 149.00000 418.400000
14631 8666 16906 1 149.00000 418.400000
14631 8667 15533 1 149.00000 418.400000
14536 8668 15885 1 149.00000 418.400000
14537 8669 15827 1 149.00000 418.400000
14538 8670 17023 1 149.00000 418.400000
14538 8671 16908 1 149.00000 418.400000
14540 8672 17128 1 149.00000 418.400000
14541 8673 15479 1 149.00000 418.400000
14541 8674 14610 1 149.00000 418.400000
11661 8675 14543 1 149.00000 418.400000
14543 8676 16885 1 149.00000 418.400000
14543 8677 15978 1 149.00000 418.400000
14544 8678 15233 1 149.00000 418.400000
15689 8679 16333 1 149.00000 418.400000
14545 8680 16333 1 149.00000 418.400000
14546 8681 15639 1 149.00000 418.400000
14546 8682 15745 1 149.00000 418.400000
14546 8683 16420 1 149.00000 418.400000
14546 8684 15088 1 149.00000 418.400000
14547 8685 15538 1 149.00000 418.400000
14548 8686 15212 1 149.00000 418.400000
14548 8687 16921 1 149.00000 418.400000
14549 8688 17155 1 149.00000 418.400000
14549 8689 16243 1 149.00000 418.400000
14550 8690 16545 1 149.00000 418.400000
14551 8691 16744 1 149.00000 418.400000
14551 8692 15110 1 149.00000 418.400000
14551 8693 16970 1 149.00000 418.400000
14551 8694 16068 1 149.00000 418.400000
14552 8695 14913 1 149.00000 418.400000
14553 8696 15339 1 149.00000 418.400000
14554 8697 17056 1 149.00000 418.400000
14555 8698 16555 1 149.00000 418.400000
14555 8699 14797 1 149.00000 418.400000
14556 8700 16425 1 149.00000 418.400000
14556 8701 14908 1 149.00000 418.400000
14557 8702 15231 1 149.00000 418.400000
14557 8703 15125 1 149.00000 418.400000
14558 8704 16031 1 149.00000 418.400000
14558 8705 15992 1 149.00000 418.400000
14559 8706 16378 1 149.00000 418.400000
14561 8707 16190 1 149.00000 418.400000
14561 8708 16227 1 149.00000 418.400000
14561 8709 16405 1 149.00000 418.400000
14562 8710 16118 1 149.00000 418.400000
14562 8711 14582 1 149.00000 418.400000
14563 8712 16713 1 149.00000 418.400000
14564 8713 16293 1 149.00000 418.400000
14564 8714 15708 1 149.00000 418.400000
14565 8715 17134 1 149.00000 418.400000
14566 8716 16396 1 149.00000 418.400000
14566 8717 15592 1 149.00000 418.400000
14566 8718 16119 1 149.00000 418.400000
14567 8719 15660 1 149.00000 418.400000
14567 8720 16877 1 149.00000 418.400000
14568 8721 14822 1 149.00000 418.400000
14568 8722 15725 1 149.00000 418.400000
14569 8723 16321 1 149.00000 418.400000
14569 8724 15494 1 149.00000 418.400000
14569 8725 15225 1 149.00000 418.400000
14570 8726 15040 1 149.00000 418.400000
14570 8727 15609 1 149.00000 418.400000
14571 8728 16193 1 149.00000 418.400000
11707 8729 14571 1 149.00000 418.400000
14571 8730 16077 1 149.00000 418.400000
14572 8731 16781 1 149.00000 418.400000
14572 8732 16672 1 149.00000 418.400000
14573 8733 15320 1 149.00000 418.400000
14574 8734 16897 1 149.00000 418.400000
13723 8735 17046 1 149.00000 418.400000
14575 8736 16289 1 149.00000 418.400000
14576 8737 14795 1 149.00000 418.400000
14577 8738 16989 1 149.00000 418.400000
14577 8739 17059 1 149.00000 418.400000
14577 8740 16498 1 149.00000 418.400000
14578 8741 15626 1 149.00000 418.400000
14579 8742 16131 1 149.00000 418.400000
14579 8743 15894 1 149.00000 418.400000
14580 8744 15061 1 149.00000 418.400000
14580 8745 16674 1 149.00000 418.400000
14581 8746 16204 1 149.00000 418.400000
14583 8747 14600 1 149.00000 418.400000
14583 8748 15553 1 149.00000 418.400000
14583 8749 15961 1 149.00000 418.400000
14584 8750 16219 1 149.00000 418.400000
14585 8751 15553 1 149.00000 418.400000
14586 8752 14589 1 149.00000 418.400000
14586 8753 14806 1 149.00000 418.400000
14587 8754 15766 1 149.00000 418.400000
14587 8755 14685 1 149.00000 418.400000
14587 8756 16657 1 149.00000 418.400000
14589 8757 16408 1 149.00000 418.400000
14590 8758 15827 1 149.00000 418.400000
14590 8759 15497 1 149.00000 418.400000
14592 8760 17962 1 149.00000 418.400000
14592 8761 16325 1 149.00000 418.400000
14593 8762 16113 1 149.00000 418.400000
14594 8763 15615 1 149.00000 418.400000
14595 8764 14601 1 149.00000 418.400000
14595 8765 14831 1 149.00000 418.400000
14597 8766 15053 1 149.00000 418.400000
14597 8767 16445 1 149.00000 418.400000
14598 8768 15135 1 149.00000 418.400000
14598 8769 16358 1 149.00000 418.400000
14599 8770 15799 1 149.00000 418.400000
14599 8771 16020 1 149.00000 418.400000
14601 8772 16896 1 149.00000 418.400000
14602 8773 16687 1 149.00000 418.400000
14602 8774 15024 1 149.00000 418.400000
14603 8775 15917 1 149.00000 418.400000
14603 8776 15622 1 149.00000 418.400000
14604 8777 14849 1 149.00000 418.400000
14605 8778 15760 1 149.00000 418.400000
14605 8779 14909 1 149.00000 418.400000
14606 8780 16365 1 149.00000 418.400000
14606 8781 16077 1 149.00000 418.400000
14606 8782 15430 1 149.00000 418.400000
14607 8783 17103 1 149.00000 418.400000
14607 8784 15055 1 149.00000 418.400000
14608 8785 15825 1 149.00000 418.400000
14609 8786 15641 1 149.00000 418.400000
14609 8787 16200 1 149.00000 418.400000
14610 8788 15401 1 149.00000 418.400000
14610 8789 16085 1 149.00000 418.400000
14611 8790 15282 1 149.00000 418.400000
14611 8791 15785 1 149.00000 418.400000
14611 8792 15105 1 149.00000 418.400000
14612 8793 15318 1 149.00000 418.400000
14612 8794 16172 1 149.00000 418.400000
14613 8795 15273 1 149.00000 418.400000
14614 8796 14891 1 149.00000 418.400000
14614 8797 14963 1 149.00000 418.400000
14615 8798 15354 1 149.00000 418.400000
14615 8799 16397 1 149.00000 418.400000
14616 8800 16155 1 149.00000 418.400000
14081 8801 14616 1 149.00000 418.400000
14616 8802 15426 1 149.00000 418.400000
14617 8803 16635 1 149.00000 418.400000
14617 8804 14620 1 149.00000 418.400000
14618 8805 15238 1 149.00000 418.400000
14618 8806 14754 1 149.00000 418.400000
14618 8807 16521 1 149.00000 418.400000
14619 8808 15735 1 149.00000 418.400000
14620 8809 16784 1 149.00000 418.400000
14620 8810 15010 1 149.00000 418.400000
14620 8811 16145 1 149.00000 418.400000
14621 8812 16775 1 149.00000 418.400000
14622 8813 15438 1 149.00000 418.400000
14623 8814 15447 1 149.00000 418.400000
13012 8815 16456 1 149.00000 418.400000
14624 8816 15291 1 149.00000 418.400000
14625 8817 16788 1 149.00000 418.400000
14626 8818 16510 1 149.00000 418.400000
14626 8819 16964 1 149.00000 418.400000
14627 8820 16824 1 149.00000 418.400000
14628 8821 16495 1 149.00000 418.400000
17893 8822 18094 1 149.00000 418.400000
14629 8823 15071 1 149.00000 418.400000
14629 8824 16589 1 149.00000 418.400000
14630 8825 15736 1 149.00000 418.400000
16300 8826 16906 1 149.00000 418.400000
14635 8827 14735 1 149.00000 418.400000
14635 8828 15327 1 149.00000 418.400000
14441 8829 14635 1 149.00000 418.400000
14636 8830 16330 1 149.00000 418.400000
14637 8831 16483 1 149.00000 418.400000
14637 8832 16169 1 149.00000 418.400000
14637 8833 15491 1 149.00000 418.400000
14637 8834 15166 1 149.00000 418.400000
14638 8835 14899 1 149.00000 418.400000
14639 8836 16013 1 149.00000 418.400000
14640 8837 15382 1 149.00000 418.400000
14641 8838 15512 1 149.00000 418.400000
14641 8839 15856 1 149.00000 418.400000
14641 8840 16447 1 149.00000 418.400000
14642 8841 18134 1 149.00000 418.400000
14642 8842 15024 1 149.00000 418.400000
14643 8843 16661 1 149.00000 418.400000
14643 8844 15733 1 149.00000 418.400000
14644 8845 16863 1 149.00000 418.400000
14644 8846 16842 1 149.00000 418.400000
14645 8847 15861 1 149.00000 418.400000
13456 8848 15284 1 149.00000 418.400000
14646 8849 15824 1 149.00000 418.400000
14647 8850 17112 1 149.00000 418.400000
17659 8851 17875 1 149.00000 418.400000
14649 8852 15391 1 149.00000 418.400000
14649 8853 15641 1 149.00000 418.400000
14649 8854 16849 1 149.00000 418.400000
13264 8855 17074 1 149.00000 418.400000
14651 8856 15117 1 149.00000 418.400000
14651 8857 14916 1 149.00000 418.400000
14652 8858 16369 1 149.00000 418.400000
14652 8859 15946 1 149.00000 418.400000
14652 8860 16856 1 149.00000 418.400000
14653 8861 16736 1 149.00000 418.400000
14653 8862 15098 1 149.00000 418.400000
14653 8863 15626 1 149.00000 418.400000
14654 8864 16813 1 149.00000 418.400000
14654 8865 18129 1 149.00000 418.400000
14655 8866 15360 1 149.00000 418.400000
14655 8867 16917 1 149.00000 418.400000
14656 8868 14915 1 149.00000 418.400000
11819 8869 16373 1 149.00000 418.400000
14657 8870 16803 1 149.00000 418.400000
14657 8871 14814 1 149.00000 418.400000
14659 8872 15622 1 149.00000 418.400000
14660 8873 15405 1 149.00000 418.400000
14660 8874 16027 1 149.00000 418.400000
14660 8875 15296 1 149.00000 418.400000
14661 8876 15361 1 149.00000 418.400000
14662 8877 15599 1 149.00000 418.400000
14663 8878 15079 1 149.00000 418.400000
14663 8879 16277 1 149.00000 418.400000
14664 8880 15664 1 149.00000 418.400000
14665 8881 15590 1 149.00000 418.400000
14665 8882 16745 1 149.00000 418.400000
14666 8883 15867 1 149.00000 418.400000
14667 8884 16275 1 149.00000 418.400000
14667 8885 16127 1 149.00000 418.400000
14668 8886 14995 1 149.00000 418.400000
14668 8887 16343 1 149.00000 418.400000
14670 8888 16604 1 149.00000 418.400000
14670 8889 16583 1 149.00000 418.400000
14670 8890 14907 1 149.00000 418.400000
14671 8891 14920 1 149.00000 418.400000
14671 8892 16013 1 149.00000 418.400000
13764 8893 14672 1 149.00000 418.400000
12421 8894 16561 1 149.00000 418.400000
14673 8895 16913 1 149.00000 418.400000
14674 8896 15325 1 149.00000 418.400000
14674 8897 15339 1 149.00000 418.400000
14674 8898 15586 1 149.00000 418.400000
14675 8899 15075 1 149.00000 418.400000
14676 8900 16912 1 149.00000 418.400000
14676 8901 16324 1 149.00000 418.400000
14677 8902 16599 1 149.00000 418.400000
14677 8903 16708 1 149.00000 418.400000
14678 8904 16988 1 149.00000 418.400000
14678 8905 17138 1 149.00000 418.400000
14678 8906 15594 1 149.00000 418.400000
14679 8907 16559 1 149.00000 418.400000
14680 8908 15515 1 149.00000 418.400000
14682 8909 15412 1 149.00000 418.400000
14682 8910 15117 1 149.00000 418.400000
14683 8911 16380 1 149.00000 418.400000
14683 8912 15227 1 149.00000 418.400000
14684 8913 14763 1 149.00000 418.400000
14685 8914 15112 1 149.00000 418.400000
14685 8915 15161 1 149.00000 418.400000
13587 8916 18099 1 149.00000 418.400000
14686 8917 16024 1 149.00000 418.400000
14687 8918 15392 1 149.00000 418.400000
14687 8919 15226 1 149.00000 418.400000
14687 8920 15775 1 149.00000 418.400000
14688 8921 16669 1 149.00000 418.400000
14688 8922 16709 1 149.00000 418.400000
14689 8923 17182 1 149.00000 418.400000
14691 8924 15676 1 149.00000 418.400000
14691 8925 17097 1 149.00000 418.400000
14691 8926 15579 1 149.00000 418.400000
14692 8927 16980 1 149.00000 418.400000
15473 8928 17665 1 149.00000 418.400000
14693 8929 16904 1 149.00000 418.400000
14694 8930 17118 1 149.00000 418.400000
14694 8931 16952 1 149.00000 418.400000
14694 8932 16313 1 149.00000 418.400000
14694 8933 16593 1 149.00000 418.400000
14695 8934 16765 1 149.00000 418.400000
14695 8935 15979 1 149.00000 418.400000
14696 8936 15469 1 149.00000 418.400000
14697 8937 15464 1 149.00000 418.400000
14697 8938 16041 1 149.00000 418.400000
14236 8939 14698 1 149.00000 418.400000
14699 8940 16896 1 149.00000 418.400000
14700 8941 14745 1 149.00000 418.400000
15604 8942 17668 1 149.00000 418.400000
14701 8943 16625 1 149.00000 418.400000
14701 8944 15304 1 149.00000 418.400000
14701 8945 16845 1 149.00000 418.400000
14701 8946 17092 1 149.00000 418.400000
14702 8947 16722 1 149.00000 418.400000
14702 8948 14944 1 149.00000 418.400000
14703 8949 17080 1 149.00000 418.400000
14703 8950 15753 1 149.00000 418.400000
14703 8951 15950 1 149.00000 418.400000
14703 8952 17140 1 149.00000 418.400000
14704 8953 15956 1 149.00000 418.400000
14705 8954 16822 1 149.00000 418.400000
14705 8955 15529 1 149.00000 418.400000
14705 8956 15235 1 149.00000 418.400000
14706 8957 15021 1 149.00000 418.400000
14706 8958 17190 1 149.00000 418.400000
14706 8959 15936 1 149.00000 418.400000
14708 8960 14713 1 149.00000 418.400000
14709 8961 17914 1 149.00000 418.400000
14710 8962 15801 1 149.00000 418.400000
14711 8963 17179 1 149.00000 418.400000
14712 8964 15944 1 149.00000 418.400000
14712 8965 17103 1 149.00000 418.400000
14712 8966 16876 1 149.00000 418.400000
14713 8967 16377 1 149.00000 418.400000
14714 8968 16176 1 149.00000 418.400000
14714 8969 16135 1 149.00000 418.400000
12438 8970 16736 1 149.00000 418.400000
14716 8971 17174 1 149.00000 418.400000
14716 8972 15873 1 149.00000 418.400000
14716 8973 15095 1 149.00000 418.400000
14717 8974 15190 1 149.00000 418.400000
16785 8975 17671 1 149.00000 418.400000
12358 8976 14937 1 149.00000 418.400000
14718 8977 16491 1 149.00000 418.400000
14718 8978 15449 1 149.00000 418.400000
14719 8979 16953 1 149.00000 418.400000
14719 8980 15366 1 149.00000 418.400000
14719 8981 15805 1 149.00000 418.400000
14720 8982 16199 1 149.00000 418.400000
14720 8983 15506 1 149.00000 418.400000
14721 8984 16908 1 149.00000 418.400000
14721 8985 15573 1 149.00000 418.400000
11945 8986 15707 1 149.00000 418.400000
14723 8987 17177 1 149.00000 418.400000
14723 8988 16638 1 149.00000 418.400000
14723 8989 14928 1 149.00000 418.400000
16679 8990 17674 1 149.00000 418.400000
14725 8991 16091 1 149.00000 418.400000
14725 8992 16684 1 149.00000 418.400000
14726 8993 16503 1 149.00000 418.400000
14726 8994 17014 1 149.00000 418.400000
14727 8995 15696 1 149.00000 418.400000
14729 8996 17053 1 149.00000 418.400000
14729 8997 15123 1 149.00000 418.400000
14355 8998 16269 1 149.00000 418.400000
14731 8999 15560 1 149.00000 418.400000
14731 9000 15092 1 149.00000 418.400000
12180 9001 17075 1 149.00000 418.400000
14732 9002 16860 1 149.00000 418.400000
14732 9003 16141 1 149.00000 418.400000
14732 9004 16302 1 149.00000 418.400000
14733 9005 16063 1 149.00000 418.400000
14734 9006 15093 1 149.00000 418.400000
14734 9007 17139 1 149.00000 418.400000
14734 9008 16951 1 149.00000 418.400000
14735 9009 16828 1 149.00000 418.400000
12114 9010 17677 1 149.00000 418.400000
14736 9011 17803 1 149.00000 418.400000
14736 9012 14884 1 149.00000 418.400000
14737 9013 16458 1 149.00000 418.400000
14737 9014 15925 1 149.00000 418.400000
14738 9015 15066 1 149.00000 418.400000
15066 9016 15705 1 149.00000 418.400000
14738 9017 16976 1 149.00000 418.400000
14739 9018 16258 1 149.00000 418.400000
14740 9019 14802 1 149.00000 418.400000
12303 9020 14741 1 149.00000 418.400000
14741 9021 16621 1 149.00000 418.400000
14742 9022 15755 1 149.00000 418.400000
14742 9023 16513 1 149.00000 418.400000
14743 9024 15591 1 149.00000 418.400000
14743 9025 16563 1 149.00000 418.400000
14744 9026 16509 1 149.00000 418.400000
14744 9027 16180 1 149.00000 418.400000
14744 9028 15997 1 149.00000 418.400000
14745 9029 17761 1 149.00000 418.400000
14745 9030 15161 1 149.00000 418.400000
14746 9031 15899 1 149.00000 418.400000
14746 9032 17734 1 149.00000 418.400000
13894 9033 14746 1 149.00000 418.400000
14747 9034 15100 1 149.00000 418.400000
14748 9035 15620 1 149.00000 418.400000
14750 9036 16659 1 149.00000 418.400000
14750 9037 15178 1 149.00000 418.400000
14751 9038 16115 1 149.00000 418.400000
14751 9039 15521 1 149.00000 418.400000
14752 9040 15858 1 149.00000 418.400000
15681 9041 16392 1 149.00000 418.400000
14752 9042 16392 1 149.00000 418.400000
14752 9043 16013 1 149.00000 418.400000
14753 9044 15220 1 149.00000 418.400000
14754 9045 16238 1 149.00000 418.400000
14755 9046 15547 1 149.00000 418.400000
14755 9047 16387 1 149.00000 418.400000
14756 9048 17881 1 149.00000 418.400000
14757 9049 15729 1 149.00000 418.400000
14757 9050 16738 1 149.00000 418.400000
14758 9051 15348 1 149.00000 418.400000
14758 9052 17106 1 149.00000 418.400000
14759 9053 15751 1 149.00000 418.400000
14935 9054 17680 1 149.00000 418.400000
16666 9055 17680 1 149.00000 418.400000
12897 9056 14761 1 149.00000 418.400000
14762 9057 15025 1 149.00000 418.400000
14762 9058 16865 1 149.00000 418.400000
14762 9059 15180 1 149.00000 418.400000
14763 9060 14786 1 149.00000 418.400000
13807 9061 15519 1 149.00000 418.400000
12732 9062 14764 1 149.00000 418.400000
14764 9063 14879 1 149.00000 418.400000
14764 9064 16770 1 149.00000 418.400000
14765 9065 15249 1 149.00000 418.400000
14766 9066 16471 1 149.00000 418.400000
14767 9067 15480 1 149.00000 418.400000
14768 9068 15784 1 149.00000 418.400000
15301 9069 15784 1 149.00000 418.400000
14769 9070 17091 1 149.00000 418.400000
14769 9071 15476 1 149.00000 418.400000
14770 9072 15913 1 149.00000 418.400000
12963 9073 15714 1 149.00000 418.400000
14771 9074 16416 1 149.00000 418.400000
14771 9075 15367 1 149.00000 418.400000
14772 9076 15860 1 149.00000 418.400000
14772 9077 15983 1 149.00000 418.400000
14772 9078 17148 1 149.00000 418.400000
14772 9079 16724 1 149.00000 418.400000
14773 9080 17197 1 149.00000 418.400000
14773 9081 14780 1 149.00000 418.400000
15336 9082 16350 1 149.00000 418.400000
14773 9083 16350 1 149.00000 418.400000
14774 9084 14818 1 149.00000 418.400000
13519 9085 14915 1 149.00000 418.400000
14776 9086 15638 1 149.00000 418.400000
14777 9087 16154 1 149.00000 418.400000
17041 9088 17683 1 149.00000 418.400000
15800 9089 17683 1 149.00000 418.400000
17683 9090 17698 1 149.00000 418.400000
14778 9091 15296 1 149.00000 418.400000
14778 9092 15505 1 149.00000 418.400000
14778 9093 14779 1 149.00000 418.400000
14779 9094 14994 1 149.00000 418.400000
14779 9095 17198 1 149.00000 418.400000
14780 9096 16849 1 149.00000 418.400000
14780 9097 15478 1 149.00000 418.400000
12234 9098 18104 1 149.00000 418.400000
14781 9099 16740 1 149.00000 418.400000
14781 9100 16928 1 149.00000 418.400000
14782 9101 16654 1 149.00000 418.400000
14782 9102 15002 1 149.00000 418.400000
14783 9103 16395 1 149.00000 418.400000
14783 9104 16370 1 149.00000 418.400000
14784 9105 15661 1 149.00000 418.400000
14784 9106 16777 1 149.00000 418.400000
14784 9107 14793 1 149.00000 418.400000
14785 9108 16642 1 149.00000 418.400000
14786 9109 16496 1 149.00000 418.400000
14787 9110 14816 1 149.00000 418.400000
14088 9111 16637 1 149.00000 418.400000
14787 9112 16160 1 149.00000 418.400000
14788 9113 16464 1 149.00000 418.400000
14789 9114 15560 1 149.00000 418.400000
14789 9115 15417 1 149.00000 418.400000
14789 9116 15888 1 149.00000 418.400000
14790 9117 16776 1 149.00000 418.400000
14790 9118 15823 1 149.00000 418.400000
15316 9119 15823 1 149.00000 418.400000
14790 9120 16612 1 149.00000 418.400000
14791 9121 16483 1 149.00000 418.400000
14791 9122 16409 1 149.00000 418.400000
14792 9123 17022 1 149.00000 418.400000
14792 9124 15878 1 149.00000 418.400000
14792 9125 16767 1 149.00000 418.400000
16362 9126 16767 1 149.00000 418.400000
14793 9127 17091 1 149.00000 418.400000
13126 9128 14793 1 149.00000 418.400000
14795 9129 15258 1 149.00000 418.400000
13817 9130 14796 1 149.00000 418.400000
14796 9131 15152 1 149.00000 418.400000
14796 9132 15744 1 149.00000 418.400000
14796 9133 17141 1 149.00000 418.400000
12518 9134 16639 1 149.00000 418.400000
14799 9135 16873 1 149.00000 418.400000
14799 9136 15884 1 149.00000 418.400000
14800 9137 15117 1 149.00000 418.400000
14800 9138 14921 1 149.00000 418.400000
16773 9139 17686 1 149.00000 418.400000
15126 9140 17686 1 149.00000 418.400000
14801 9141 16751 1 149.00000 418.400000
14802 9142 15331 1 149.00000 418.400000
14803 9143 17779 1 149.00000 418.400000
14803 9144 15072 1 149.00000 418.400000
14804 9145 15668 1 149.00000 418.400000
16195 9146 16928 1 149.00000 418.400000
15351 9147 16195 1 149.00000 418.400000
14806 9148 16195 1 149.00000 418.400000
14807 9149 17038 1 149.00000 418.400000
14807 9150 16271 1 149.00000 418.400000
14807 9151 14936 1 149.00000 418.400000
14808 9152 15434 1 149.00000 418.400000
14808 9153 16179 1 149.00000 418.400000
14808 9154 16228 1 149.00000 418.400000
14809 9155 16653 1 149.00000 418.400000
14810 9156 16205 1 149.00000 418.400000
14810 9157 16523 1 149.00000 418.400000
14811 9158 16254 1 149.00000 418.400000
13196 9159 15191 1 149.00000 418.400000
14812 9160 16540 1 149.00000 418.400000
14812 9161 16337 1 149.00000 418.400000
14812 9162 16009 1 149.00000 418.400000
14813 9163 15169 1 149.00000 418.400000
14813 9164 18129 1 149.00000 418.400000
14813 9165 17194 1 149.00000 418.400000
14814 9166 17084 1 149.00000 418.400000
14814 9167 15781 1 149.00000 418.400000
14815 9168 16268 1 149.00000 418.400000
14817 9169 15870 1 149.00000 418.400000
14819 9170 15724 1 149.00000 418.400000
14819 9171 16970 1 149.00000 418.400000
12846 9172 16386 1 149.00000 418.400000
14820 9173 16114 1 149.00000 418.400000
12184 9174 17071 1 149.00000 418.400000
15713 9175 16114 1 149.00000 418.400000
14821 9176 15545 1 149.00000 418.400000
14821 9177 16640 1 149.00000 418.400000
14822 9178 15290 1 149.00000 418.400000
14823 9179 15851 1 149.00000 418.400000
14270 9180 15754 1 149.00000 418.400000
14823 9181 16860 1 149.00000 418.400000
14824 9182 16569 1 149.00000 418.400000
14826 9183 17845 1 149.00000 418.400000
14826 9184 15075 1 149.00000 418.400000
14827 9185 16606 1 149.00000 418.400000
14829 9186 17000 1 149.00000 418.400000
14830 9187 15010 1 149.00000 418.400000
14831 9188 15725 1 149.00000 418.400000
14832 9189 16147 1 149.00000 418.400000
14832 9190 15603 1 149.00000 418.400000
14832 9191 16528 1 149.00000 418.400000
14833 9192 15318 1 149.00000 418.400000
14834 9193 15877 1 149.00000 418.400000
12888 9194 14835 1 149.00000 418.400000
14837 9195 17110 1 149.00000 418.400000
14838 9196 16561 1 149.00000 418.400000
14838 9197 16127 1 149.00000 418.400000
14839 9198 15966 1 149.00000 418.400000
14839 9199 16547 1 149.00000 418.400000
14839 9200 16548 1 149.00000 418.400000
14840 9201 15644 1 149.00000 418.400000
14840 9202 17950 1 149.00000 418.400000
14841 9203 16525 1 149.00000 418.400000
14841 9204 15780 1 149.00000 418.400000
14842 9205 17013 1 149.00000 418.400000
14842 9206 15152 1 149.00000 418.400000
14844 9207 17018 1 149.00000 418.400000
14844 9208 16657 1 149.00000 418.400000
14844 9209 15768 1 149.00000 418.400000
14845 9210 17860 1 149.00000 418.400000
14845 9211 17119 1 149.00000 418.400000
14845 9212 16008 1 149.00000 418.400000
14846 9213 14898 1 149.00000 418.400000
14847 9214 15574 1 149.00000 418.400000
14848 9215 16203 1 149.00000 418.400000
14944 9216 16393 1 149.00000 418.400000
15297 9217 16794 1 149.00000 418.400000
14849 9218 15297 1 149.00000 418.400000
14850 9219 14862 1 149.00000 418.400000
14851 9220 15621 1 149.00000 418.400000
14851 9221 16583 1 149.00000 418.400000
14852 9222 15772 1 149.00000 418.400000
14853 9223 15147 1 149.00000 418.400000
14853 9224 15244 1 149.00000 418.400000
14854 9225 15725 1 149.00000 418.400000
14855 9226 15872 1 149.00000 418.400000
14855 9227 14997 1 149.00000 418.400000
12661 9228 14856 1 149.00000 418.400000
14858 9229 15463 1 149.00000 418.400000
14858 9230 15031 1 149.00000 418.400000
14858 9231 16875 1 149.00000 418.400000
14861 9232 16345 1 149.00000 418.400000
14861 9233 16343 1 149.00000 418.400000
14863 9234 15933 1 149.00000 418.400000
14863 9235 15123 1 149.00000 418.400000
14864 9236 16355 1 149.00000 418.400000
14864 9237 15226 1 149.00000 418.400000
14865 9238 16901 1 149.00000 418.400000
14865 9239 15335 1 149.00000 418.400000
14866 9240 15698 1 149.00000 418.400000
14866 9241 15207 1 149.00000 418.400000
14866 9242 16708 1 149.00000 418.400000
14867 9243 16944 1 149.00000 418.400000
14867 9244 14925 1 149.00000 418.400000
14868 9245 16073 1 149.00000 418.400000
14868 9246 15196 1 149.00000 418.400000
14868 9247 16468 1 149.00000 418.400000
14869 9248 16214 1 149.00000 418.400000
14869 9249 14878 1 149.00000 418.400000
14869 9250 14994 1 149.00000 418.400000
14870 9251 15198 1 149.00000 418.400000
14870 9252 16031 1 149.00000 418.400000
14871 9253 17155 1 149.00000 418.400000
14872 9254 16839 1 149.00000 418.400000
14873 9255 15455 1 149.00000 418.400000
14873 9256 15032 1 149.00000 418.400000
14874 9257 16586 1 149.00000 418.400000
14874 9258 16255 1 149.00000 418.400000
14875 9259 16400 1 149.00000 418.400000
14875 9260 15182 1 149.00000 418.400000
14876 9261 15259 1 149.00000 418.400000
14876 9262 15667 1 149.00000 418.400000
14877 9263 16484 1 149.00000 418.400000
14877 9264 15449 1 149.00000 418.400000
14878 9265 16454 1 149.00000 418.400000
14882 9266 16270 1 149.00000 418.400000
14882 9267 15485 1 149.00000 418.400000
14882 9268 16825 1 149.00000 418.400000
14883 9269 17782 1 149.00000 418.400000
14884 9270 17722 1 149.00000 418.400000
15541 9271 17722 1 149.00000 418.400000
14885 9272 16264 1 149.00000 418.400000
14885 9273 15475 1 149.00000 418.400000
14885 9274 17018 1 149.00000 418.400000
14886 9275 16003 1 149.00000 418.400000
14887 9276 16308 1 149.00000 418.400000
14888 9277 16256 1 149.00000 418.400000
14889 9278 17163 1 149.00000 418.400000
14890 9279 16593 1 149.00000 418.400000
14890 9280 14905 1 149.00000 418.400000
14890 9281 17118 1 149.00000 418.400000
14891 9282 15002 1 149.00000 418.400000
12452 9283 16250 1 149.00000 418.400000
14893 9284 15453 1 149.00000 418.400000
14894 9285 16776 1 149.00000 418.400000
14895 9286 16359 1 149.00000 418.400000
14896 9287 15610 1 149.00000 418.400000
14896 9288 15126 1 149.00000 418.400000
14897 9289 15614 1 149.00000 418.400000
14897 9290 16223 1 149.00000 418.400000
14897 9291 16835 1 149.00000 418.400000
14898 9292 15716 1 149.00000 418.400000
14898 9293 17116 1 149.00000 418.400000
14900 9294 16590 1 149.00000 418.400000
14901 9295 16709 1 149.00000 418.400000
14901 9296 16362 1 149.00000 418.400000
14902 9297 17081 1 149.00000 418.400000
14902 9298 15174 1 149.00000 418.400000
14902 9299 15158 1 149.00000 418.400000
14903 9300 16414 1 149.00000 418.400000
14903 9301 16109 1 149.00000 418.400000
14904 9302 16476 1 149.00000 418.400000
14904 9303 15904 1 149.00000 418.400000
12571 9304 14905 1 149.00000 418.400000
14906 9305 15993 1 149.00000 418.400000
14906 9306 16234 1 149.00000 418.400000
14906 9307 15316 1 149.00000 418.400000
14907 9308 15910 1 149.00000 418.400000
14909 9309 16937 1 149.00000 418.400000
14910 9310 15197 1 149.00000 418.400000
14910 9311 16115 1 149.00000 418.400000
14911 9312 15853 1 149.00000 418.400000
14911 9313 16850 1 149.00000 418.400000
14911 9314 15474 1 149.00000 418.400000
14913 9315 16080 1 149.00000 418.400000
14913 9316 15710 1 149.00000 418.400000
14914 9317 16790 1 149.00000 418.400000
14917 9318 15088 1 149.00000 418.400000
14917 9319 17087 1 149.00000 418.400000
14917 9320 15352 1 149.00000 418.400000
14918 9321 15362 1 149.00000 418.400000
14918 9322 17121 1 149.00000 418.400000
14919 9323 16112 1 149.00000 418.400000
14920 9324 16095 1 149.00000 418.400000
14920 9325 15858 1 149.00000 418.400000
14922 9326 16205 1 149.00000 418.400000
14922 9327 16254 1 149.00000 418.400000
14923 9328 16175 1 149.00000 418.400000
12302 9329 13133 1 149.00000 418.400000
14924 9330 15862 1 149.00000 418.400000
14925 9331 15497 1 149.00000 418.400000
14925 9332 16769 1 149.00000 418.400000
14925 9333 16444 1 149.00000 418.400000
14926 9334 15906 1 149.00000 418.400000
13813 9335 14926 1 149.00000 418.400000
14927 9336 15633 1 149.00000 418.400000
14928 9337 16269 1 149.00000 418.400000
14928 9338 15678 1 149.00000 418.400000
14929 9339 17039 1 149.00000 418.400000
14930 9340 16099 1 149.00000 418.400000
14930 9341 16465 1 149.00000 418.400000
14931 9342 16814 1 149.00000 418.400000
14931 9343 15487 1 149.00000 418.400000
14932 9344 17872 1 149.00000 418.400000
14932 9345 16565 1 149.00000 418.400000
14933 9346 15792 1 149.00000 418.400000
14934 9347 15495 1 149.00000 418.400000
14935 9348 17884 1 149.00000 418.400000
14936 9349 16414 1 149.00000 418.400000
14937 9350 15283 1 149.00000 418.400000
14938 9351 15185 1 149.00000 418.400000
12778 9352 14938 1 149.00000 418.400000
16731 9353 17701 1 149.00000 418.400000
14939 9354 16921 1 149.00000 418.400000
14940 9355 15460 1 149.00000 418.400000
14940 9356 16246 1 149.00000 418.400000
14941 9357 15375 1 149.00000 418.400000
14942 9358 16431 1 149.00000 418.400000
15326 9359 16418 1 149.00000 418.400000
14942 9360 15326 1 149.00000 418.400000
14943 9361 16230 1 149.00000 418.400000
14848 9362 16393 1 149.00000 418.400000
14945 9363 16536 1 149.00000 418.400000
14945 9364 15012 1 149.00000 418.400000
14946 9365 16282 1 149.00000 418.400000
14946 9366 15561 1 149.00000 418.400000
14946 9367 16660 1 149.00000 418.400000
14947 9368 16998 1 149.00000 418.400000
14947 9369 16458 1 149.00000 418.400000
14948 9370 15232 1 149.00000 418.400000
14949 9371 15443 1 149.00000 418.400000
14949 9372 16584 1 149.00000 418.400000
14950 9373 16674 1 149.00000 418.400000
14951 9374 15450 1 149.00000 418.400000
16749 9375 17707 1 149.00000 418.400000
14952 9376 16805 1 149.00000 418.400000
14952 9377 16077 1 149.00000 418.400000
14953 9378 16058 1 149.00000 418.400000
14953 9379 15215 1 149.00000 418.400000
14954 9380 15749 1 149.00000 418.400000
14954 9381 17037 1 149.00000 418.400000
14955 9382 16801 1 149.00000 418.400000
14955 9383 15019 1 149.00000 418.400000
14548 9384 14957 1 149.00000 418.400000
14958 9385 17118 1 149.00000 418.400000
14958 9386 15255 1 149.00000 418.400000
14958 9387 16952 1 149.00000 418.400000
16685 9388 17710 1 149.00000 418.400000
14959 9389 16140 1 149.00000 418.400000
14959 9390 15051 1 149.00000 418.400000
14960 9391 16228 1 149.00000 418.400000
14961 9392 15263 1 149.00000 418.400000
14962 9393 15285 1 149.00000 418.400000
14962 9394 17233 1 149.00000 418.400000
14962 9395 16791 1 149.00000 418.400000
14963 9396 16786 1 149.00000 418.400000
14965 9397 16313 1 149.00000 418.400000
14965 9398 15437 1 149.00000 418.400000
14965 9399 16853 1 149.00000 418.400000
14966 9400 15051 1 149.00000 418.400000
14967 9401 15147 1 149.00000 418.400000
14968 9402 16882 1 149.00000 418.400000
14968 9403 15176 1 149.00000 418.400000
14969 9404 15774 1 149.00000 418.400000
15380 9405 18109 1 149.00000 418.400000
14972 9406 15821 1 149.00000 418.400000
14973 9407 16286 1 149.00000 418.400000
14973 9408 16825 1 149.00000 418.400000
14974 9409 16555 1 149.00000 418.400000
14975 9410 16191 1 149.00000 418.400000
14975 9411 16826 1 149.00000 418.400000
14976 9412 15002 1 149.00000 418.400000
14976 9413 16032 1 149.00000 418.400000
14977 9414 16042 1 149.00000 418.400000
14978 9415 15405 1 149.00000 418.400000
14978 9416 16214 1 149.00000 418.400000
14978 9417 15756 1 149.00000 418.400000
14978 9418 17198 1 149.00000 418.400000
14979 9419 15317 1 149.00000 418.400000
14980 9420 16851 1 149.00000 418.400000
13337 9421 14980 1 149.00000 418.400000
14980 9422 15799 1 149.00000 418.400000
14981 9423 17752 1 149.00000 418.400000
14981 9424 15473 1 149.00000 418.400000
14981 9425 16380 1 149.00000 418.400000
14982 9426 15055 1 149.00000 418.400000
14983 9427 15702 1 149.00000 418.400000
14984 9428 15232 1 149.00000 418.400000
14984 9429 17167 1 149.00000 418.400000
14985 9430 15421 1 149.00000 418.400000
14986 9431 16537 1 149.00000 418.400000
14987 9432 15073 1 149.00000 418.400000
14987 9433 15752 1 149.00000 418.400000
14988 9434 17153 1 149.00000 418.400000
14989 9435 16586 1 149.00000 418.400000
14989 9436 17122 1 149.00000 418.400000
14990 9437 15178 1 149.00000 418.400000
14992 9438 15564 1 149.00000 418.400000
14992 9439 17184 1 149.00000 418.400000
14993 9440 15781 1 149.00000 418.400000
14994 9441 16027 1 149.00000 418.400000
14995 9442 15958 1 149.00000 418.400000
14995 9443 16733 1 149.00000 418.400000
14996 9444 16664 1 149.00000 418.400000
14997 9445 15381 1 149.00000 418.400000
14997 9446 16031 1 149.00000 418.400000
14997 9447 15373 1 149.00000 418.400000
14998 9448 16351 1 149.00000 418.400000
14998 9449 15449 1 149.00000 418.400000
14998 9450 16730 1 149.00000 418.400000
14999 9451 17050 1 149.00000 418.400000
14412 9452 15025 1 149.00000 418.400000
15000 9453 16072 1 149.00000 418.400000
15000 9454 15122 1 149.00000 418.400000
15001 9455 15761 1 149.00000 418.400000
17069 9456 17812 1 149.00000 418.400000
15002 9457 15654 1 149.00000 418.400000
15003 9458 15151 1 149.00000 418.400000
15004 9459 16122 1 149.00000 418.400000
15004 9460 15511 1 149.00000 418.400000
15005 9461 16864 1 149.00000 418.400000
15005 9462 16636 1 149.00000 418.400000
15005 9463 15588 1 149.00000 418.400000
15006 9464 15458 1 149.00000 418.400000
13200 9465 15297 1 149.00000 418.400000
15007 9466 15529 1 149.00000 418.400000
15008 9467 16321 1 149.00000 418.400000
15008 9468 15385 1 149.00000 418.400000
12910 9469 15009 1 149.00000 418.400000
15009 9470 16695 1 149.00000 418.400000
15009 9471 16370 1 149.00000 418.400000
15011 9472 16313 1 149.00000 418.400000
15012 9473 15141 1 149.00000 418.400000
15012 9474 16874 1 149.00000 418.400000
15013 9475 17181 1 149.00000 418.400000
15013 9476 15652 1 149.00000 418.400000
15013 9477 15592 1 149.00000 418.400000
15014 9478 16662 1 149.00000 418.400000
15015 9479 15050 1 149.00000 418.400000
15015 9480 16529 1 149.00000 418.400000
15016 9481 15386 1 149.00000 418.400000
15017 9482 16025 1 149.00000 418.400000
15018 9483 15989 1 149.00000 418.400000
15019 9484 17116 1 149.00000 418.400000
14955 9485 15310 1 149.00000 418.400000
12713 9486 15807 1 149.00000 418.400000
15020 9487 15077 1 149.00000 418.400000
15021 9488 17029 1 149.00000 418.400000
15021 9489 15719 1 149.00000 418.400000
15022 9490 15525 1 149.00000 418.400000
15022 9491 15309 1 149.00000 418.400000
15023 9492 17782 1 149.00000 418.400000
15024 9493 16249 1 149.00000 418.400000
15025 9494 15167 1 149.00000 418.400000
15026 9495 15907 1 149.00000 418.400000
15027 9496 15459 1 149.00000 418.400000
15028 9497 16174 1 149.00000 418.400000
15028 9498 15589 1 149.00000 418.400000
15029 9499 16126 1 149.00000 418.400000
15030 9500 16598 1 149.00000 418.400000
15032 9501 15051 1 149.00000 418.400000
15032 9502 15549 1 149.00000 418.400000
15034 9503 17054 1 149.00000 418.400000
15035 9504 16123 1 149.00000 418.400000
16338 9505 16852 1 149.00000 418.400000
15036 9506 16338 1 149.00000 418.400000
15037 9507 16226 1 149.00000 418.400000
13934 9508 15037 1 149.00000 418.400000
15038 9509 15682 1 149.00000 418.400000
12878 9510 16263 1 149.00000 418.400000
15039 9511 15107 1 149.00000 418.400000
15039 9512 16140 1 149.00000 418.400000
15041 9513 15078 1 149.00000 418.400000
15041 9514 15625 1 149.00000 418.400000
15041 9515 15534 1 149.00000 418.400000
15041 9516 17116 1 149.00000 418.400000
12387 9517 16249 1 149.00000 418.400000
15043 9518 16409 1 149.00000 418.400000
15044 9519 15208 1 149.00000 418.400000
15045 9520 15686 1 149.00000 418.400000
15046 9521 15139 1 149.00000 418.400000
15047 9522 17195 1 149.00000 418.400000
15048 9523 17042 1 149.00000 418.400000
15048 9524 16982 1 149.00000 418.400000
15049 9525 16415 1 149.00000 418.400000
15050 9526 15826 1 149.00000 418.400000
15052 9527 16168 1 149.00000 418.400000
15052 9528 16421 1 149.00000 418.400000
15053 9529 15134 1 149.00000 418.400000
15053 9530 15215 1 149.00000 418.400000
15053 9531 16211 1 149.00000 418.400000
15792 9532 16339 1 149.00000 418.400000
15054 9533 15792 1 149.00000 418.400000
15054 9534 17141 1 149.00000 418.400000
15055 9535 15570 1 149.00000 418.400000
15056 9536 16634 1 149.00000 418.400000
15056 9537 16047 1 149.00000 418.400000
15057 9538 15258 1 149.00000 418.400000
15057 9539 17021 1 149.00000 418.400000
15058 9540 15197 1 149.00000 418.400000
15059 9541 17965 1 149.00000 418.400000
15059 9542 15377 1 149.00000 418.400000
15059 9543 16607 1 149.00000 418.400000
15059 9544 15509 1 149.00000 418.400000
15060 9545 15822 1 149.00000 418.400000
15061 9546 17017 1 149.00000 418.400000
15062 9547 15542 1 149.00000 418.400000
15062 9548 15193 1 149.00000 418.400000
14216 9549 16233 1 149.00000 418.400000
15064 9550 15839 1 149.00000 418.400000
15064 9551 15915 1 149.00000 418.400000
15065 9552 16715 1 149.00000 418.400000
15065 9553 16633 1 149.00000 418.400000
15065 9554 15638 1 149.00000 418.400000
15066 9555 16185 1 149.00000 418.400000
15067 9556 15156 1 149.00000 418.400000
15067 9557 15221 1 149.00000 418.400000
17473 9558 17824 1 149.00000 418.400000
15068 9559 15580 1 149.00000 418.400000
15068 9560 16290 1 149.00000 418.400000
15069 9561 16549 1 149.00000 418.400000
15069 9562 17815 1 149.00000 418.400000
15070 9563 15463 1 149.00000 418.400000
15071 9564 15478 1 149.00000 418.400000
15072 9565 16991 1 149.00000 418.400000
15072 9566 16787 1 149.00000 418.400000
14987 9567 16039 1 149.00000 418.400000
14357 9568 15074 1 149.00000 418.400000
15075 9569 16112 1 149.00000 418.400000
15075 9570 15611 1 149.00000 418.400000
15076 9571 15570 1 149.00000 418.400000
15078 9572 15717 1 149.00000 418.400000
15079 9573 16520 1 149.00000 418.400000
15080 9574 15986 1 149.00000 418.400000
15080 9575 17836 1 149.00000 418.400000
15081 9576 17974 1 149.00000 418.400000
15081 9577 17092 1 149.00000 418.400000
15082 9578 16905 1 149.00000 418.400000
15083 9579 15632 1 149.00000 418.400000
15085 9580 17139 1 149.00000 418.400000
15086 9581 16106 1 149.00000 418.400000
15086 9582 16381 1 149.00000 418.400000
15086 9583 16651 1 149.00000 418.400000
15089 9584 16910 1 149.00000 418.400000
15089 9585 16368 1 149.00000 418.400000
15090 9586 16958 1 149.00000 418.400000
15091 9587 16666 1 149.00000 418.400000
15092 9588 16868 1 149.00000 418.400000
15092 9589 16867 1 149.00000 418.400000
15092 9590 16012 1 149.00000 418.400000
15094 9591 15447 1 149.00000 418.400000
15094 9592 15509 1 149.00000 418.400000
15095 9593 16381 1 149.00000 418.400000
15095 9594 16234 1 149.00000 418.400000
15096 9595 16547 1 149.00000 418.400000
15096 9596 15181 1 149.00000 418.400000
15777 9597 16547 1 149.00000 418.400000
15097 9598 15203 1 149.00000 418.400000
15097 9599 16668 1 149.00000 418.400000
15098 9600 16385 1 149.00000 418.400000
15099 9601 15355 1 149.00000 418.400000
15099 9602 17827 1 149.00000 418.400000
15100 9603 15502 1 149.00000 418.400000
15101 9604 16617 1 149.00000 418.400000
15101 9605 15258 1 149.00000 418.400000
15102 9606 16359 1 149.00000 418.400000
15103 9607 16150 1 149.00000 418.400000
15103 9608 16443 1 149.00000 418.400000
15104 9609 16723 1 149.00000 418.400000
16723 9610 16747 1 149.00000 418.400000
16624 9611 16723 1 149.00000 418.400000
15105 9612 16812 1 149.00000 418.400000
15105 9613 16180 1 149.00000 418.400000
15106 9614 15844 1 149.00000 418.400000
15106 9615 16210 1 149.00000 418.400000
15108 9616 16194 1 149.00000 418.400000
15108 9617 17051 1 149.00000 418.400000
15110 9618 16389 1 149.00000 418.400000
15111 9619 15866 1 149.00000 418.400000
15112 9620 17085 1 149.00000 418.400000
13090 9621 15542 1 149.00000 418.400000
17719 9622 17830 1 149.00000 418.400000
15116 9623 16781 1 149.00000 418.400000
15116 9624 16762 1 149.00000 418.400000
15116 9625 16570 1 149.00000 418.400000
15118 9626 16816 1 149.00000 418.400000
15118 9627 15941 1 149.00000 418.400000
15118 9628 15974 1 149.00000 418.400000
15118 9629 15209 1 149.00000 418.400000
15119 9630 16722 1 149.00000 418.400000
15119 9631 15454 1 149.00000 418.400000
15120 9632 16255 1 149.00000 418.400000
16061 9633 16255 1 149.00000 418.400000
15120 9634 17122 1 149.00000 418.400000
15121 9635 15536 1 149.00000 418.400000
15121 9636 15613 1 149.00000 418.400000
15122 9637 16239 1 149.00000 418.400000
15123 9638 17036 1 149.00000 418.400000
15123 9639 17124 1 149.00000 418.400000
15124 9640 15720 1 149.00000 418.400000
15125 9641 15451 1 149.00000 418.400000
15126 9642 17836 1 149.00000 418.400000
15126 9643 15510 1 149.00000 418.400000
15127 9644 16929 1 149.00000 418.400000
15127 9645 17938 1 149.00000 418.400000
15128 9646 16595 1 149.00000 418.400000
15128 9647 16419 1 149.00000 418.400000
15129 9648 17791 1 149.00000 418.400000
15131 9649 16324 1 149.00000 418.400000
15131 9650 16598 1 149.00000 418.400000
15131 9651 16798 1 149.00000 418.400000
15132 9652 16177 1 149.00000 418.400000
15133 9653 15803 1 149.00000 418.400000
15136 9654 16473 1 149.00000 418.400000
16096 9655 16306 1 149.00000 418.400000
15137 9656 16306 1 149.00000 418.400000
15138 9657 15854 1 149.00000 418.400000
15139 9658 16126 1 149.00000 418.400000
15139 9659 15785 1 149.00000 418.400000
15139 9660 16807 1 149.00000 418.400000
15140 9661 16430 1 149.00000 418.400000
15140 9662 15591 1 149.00000 418.400000
15140 9663 15230 1 149.00000 418.400000
15141 9664 16643 1 149.00000 418.400000
15142 9665 15240 1 149.00000 418.400000
15142 9666 15548 1 149.00000 418.400000
15143 9667 16560 1 149.00000 418.400000
15143 9668 16737 1 149.00000 418.400000
15143 9669 15308 1 149.00000 418.400000
15143 9670 16207 1 149.00000 418.400000
15144 9671 15357 1 149.00000 418.400000
14710 9672 15145 1 149.00000 418.400000
16990 9673 17725 1 149.00000 418.400000
15146 9674 15458 1 149.00000 418.400000
15147 9675 16580 1 149.00000 418.400000
15148 9676 15299 1 149.00000 418.400000
15149 9677 16002 1 149.00000 418.400000
15149 9678 15679 1 149.00000 418.400000
15149 9679 15939 1 149.00000 418.400000
15150 9680 17023 1 149.00000 418.400000
15150 9681 15564 1 149.00000 418.400000
15150 9682 15706 1 149.00000 418.400000
15151 9683 17083 1 149.00000 418.400000
15152 9684 15569 1 149.00000 418.400000
15153 9685 16290 1 149.00000 418.400000
15153 9686 16016 1 149.00000 418.400000
16299 9687 17117 1 149.00000 418.400000
15154 9688 17117 1 149.00000 418.400000
15155 9689 16788 1 149.00000 418.400000
16346 9690 17728 1 149.00000 418.400000
15156 9691 18124 1 149.00000 418.400000
15157 9692 16735 1 149.00000 418.400000
15158 9693 17103 1 149.00000 418.400000
15159 9694 15389 1 149.00000 418.400000
15159 9695 16020 1 149.00000 418.400000
15160 9696 17081 1 149.00000 418.400000
15160 9697 16189 1 149.00000 418.400000
15161 9698 15591 1 149.00000 418.400000
15162 9699 16117 1 149.00000 418.400000
15162 9700 16798 1 149.00000 418.400000
15162 9701 16678 1 149.00000 418.400000
15163 9702 15182 1 149.00000 418.400000
15163 9703 15898 1 149.00000 418.400000
15163 9704 16531 1 149.00000 418.400000
15164 9705 16571 1 149.00000 418.400000
15164 9706 16439 1 149.00000 418.400000
15340 9707 16571 1 149.00000 418.400000
15165 9708 16462 1 149.00000 418.400000
11959 9709 15166 1 149.00000 418.400000
15167 9710 16251 1 149.00000 418.400000
15167 9711 16191 1 149.00000 418.400000
15168 9712 15590 1 149.00000 418.400000
15168 9713 15762 1 149.00000 418.400000
15169 9714 16495 1 149.00000 418.400000
15169 9715 16213 1 149.00000 418.400000
15170 9716 17167 1 149.00000 418.400000
15170 9717 15432 1 149.00000 418.400000
15171 9718 15178 1 149.00000 418.400000
15172 9719 16347 1 149.00000 418.400000
15172 9720 15758 1 149.00000 418.400000
15172 9721 15370 1 149.00000 418.400000
15175 9722 15713 1 149.00000 418.400000
15175 9723 16502 1 149.00000 418.400000
15177 9724 16359 1 149.00000 418.400000
15178 9725 15447 1 149.00000 418.400000
15179 9726 16586 1 149.00000 418.400000
12127 9727 17731 1 149.00000 418.400000
15180 9728 16251 1 149.00000 418.400000
15834 9729 16144 1 149.00000 418.400000
15181 9730 16144 1 149.00000 418.400000
15183 9731 16217 1 149.00000 418.400000
15184 9732 16028 1 149.00000 418.400000
15184 9733 16627 1 149.00000 418.400000
15184 9734 16295 1 149.00000 418.400000
15184 9735 17008 1 149.00000 418.400000
15185 9736 15486 1 149.00000 418.400000
15185 9737 15965 1 149.00000 418.400000
15185 9738 16013 1 149.00000 418.400000
15186 9739 16148 1 149.00000 418.400000
13309 9740 16399 1 149.00000 418.400000
15188 9741 16075 1 149.00000 418.400000
15189 9742 15871 1 149.00000 418.400000
15189 9743 16405 1 149.00000 418.400000
15190 9744 16468 1 149.00000 418.400000
15190 9745 16720 1 149.00000 418.400000
15191 9746 16125 1 149.00000 418.400000
15191 9747 16318 1 149.00000 418.400000
15192 9748 17096 1 149.00000 418.400000
15193 9749 17104 1 149.00000 418.400000
15193 9750 15312 1 149.00000 418.400000
15194 9751 15939 1 149.00000 418.400000
15194 9752 16161 1 149.00000 418.400000
15194 9753 15903 1 149.00000 418.400000
15195 9754 15601 1 149.00000 418.400000
15196 9755 15213 1 149.00000 418.400000
15196 9756 16671 1 149.00000 418.400000
15200 9757 15650 1 149.00000 418.400000
15200 9758 15514 1 149.00000 418.400000
15329 9759 15982 1 149.00000 418.400000
15202 9760 15329 1 149.00000 418.400000
15203 9761 15227 1 149.00000 418.400000
15204 9762 16985 1 149.00000 418.400000
15204 9763 15824 1 149.00000 418.400000
15206 9764 15234 1 149.00000 418.400000
15206 9765 15940 1 149.00000 418.400000
15207 9766 16071 1 149.00000 418.400000
15208 9767 15708 1 149.00000 418.400000
15208 9768 15848 1 149.00000 418.400000
15209 9769 15293 1 149.00000 418.400000
15209 9770 16073 1 149.00000 418.400000
15210 9771 17136 1 149.00000 418.400000
15210 9772 16383 1 149.00000 418.400000
15212 9773 16001 1 149.00000 418.400000
15213 9774 16500 1 149.00000 418.400000
15214 9775 16369 1 149.00000 418.400000
15215 9776 17087 1 149.00000 418.400000
14953 9777 15745 1 149.00000 418.400000
15216 9778 16553 1 149.00000 418.400000
15216 9779 16042 1 149.00000 418.400000
15217 9780 16809 1 149.00000 418.400000
15218 9781 16620 1 149.00000 418.400000
15218 9782 16967 1 149.00000 418.400000
15219 9783 16974 1 149.00000 418.400000
15219 9784 15372 1 149.00000 418.400000
15219 9785 16097 1 149.00000 418.400000
15220 9786 16583 1 149.00000 418.400000
15222 9787 15292 1 149.00000 418.400000
13589 9788 15222 1 149.00000 418.400000
15223 9789 16376 1 149.00000 418.400000
15224 9790 16818 1 149.00000 418.400000
15224 9791 15978 1 149.00000 418.400000
15224 9792 17764 1 149.00000 418.400000
15227 9793 17191 1 149.00000 418.400000
15228 9794 16610 1 149.00000 418.400000
15228 9795 16250 1 149.00000 418.400000
15229 9796 15593 1 149.00000 418.400000
11669 9797 15229 1 149.00000 418.400000
15231 9798 15811 1 149.00000 418.400000
15231 9799 16076 1 149.00000 418.400000
15233 9800 15538 1 149.00000 418.400000
15233 9801 16055 1 149.00000 418.400000
15234 9802 15647 1 149.00000 418.400000
15234 9803 15817 1 149.00000 418.400000
15236 9804 16196 1 149.00000 418.400000
15238 9805 15393 1 149.00000 418.400000
15240 9806 17165 1 149.00000 418.400000
15241 9807 17123 1 149.00000 418.400000
15242 9808 16887 1 149.00000 418.400000
15243 9809 15328 1 149.00000 418.400000
15243 9810 16004 1 149.00000 418.400000
15244 9811 15287 1 149.00000 418.400000
15244 9812 17098 1 149.00000 418.400000
15245 9813 15254 1 149.00000 418.400000
15245 9814 17017 1 149.00000 418.400000
15245 9815 16259 1 149.00000 418.400000
15246 9816 15383 1 149.00000 418.400000
13911 9817 15247 1 149.00000 418.400000
15247 9818 16768 1 149.00000 418.400000
15248 9819 16376 1 149.00000 418.400000
15248 9820 16552 1 149.00000 418.400000
15250 9821 15664 1 149.00000 418.400000
15251 9822 15406 1 149.00000 418.400000
15251 9823 15473 1 149.00000 418.400000
15252 9824 15568 1 149.00000 418.400000
16832 9825 17740 1 149.00000 418.400000
15254 9826 16797 1 149.00000 418.400000
15255 9827 16455 1 149.00000 418.400000
15255 9828 17827 1 149.00000 418.400000
15256 9829 16423 1 149.00000 418.400000
15256 9830 15648 1 149.00000 418.400000
15257 9831 16869 1 149.00000 418.400000
15257 9832 16450 1 149.00000 418.400000
15257 9833 17001 1 149.00000 418.400000
15258 9834 16212 1 149.00000 418.400000
15259 9835 16846 1 149.00000 418.400000
15260 9836 15437 1 149.00000 418.400000
14208 9837 15260 1 149.00000 418.400000
15260 9838 15822 1 149.00000 418.400000
13333 9839 15262 1 149.00000 418.400000
15262 9840 15924 1 149.00000 418.400000
15263 9841 15655 1 149.00000 418.400000
15263 9842 15350 1 149.00000 418.400000
15265 9843 15449 1 149.00000 418.400000
15265 9844 17998 1 149.00000 418.400000
15267 9845 16982 1 149.00000 418.400000
11864 9846 15267 1 149.00000 418.400000
11681 9847 15267 1 149.00000 418.400000
15268 9848 15583 1 149.00000 418.400000
15269 9849 16115 1 149.00000 418.400000
15269 9850 17065 1 149.00000 418.400000
15270 9851 16438 1 149.00000 418.400000
15271 9852 16344 1 149.00000 418.400000
15271 9853 17089 1 149.00000 418.400000
15272 9854 17153 1 149.00000 418.400000
15274 9855 16520 1 149.00000 418.400000
15274 9856 15391 1 149.00000 418.400000
15275 9857 16831 1 149.00000 418.400000
15276 9858 15327 1 149.00000 418.400000
15276 9859 16518 1 149.00000 418.400000
15278 9860 16215 1 149.00000 418.400000
15278 9861 16012 1 149.00000 418.400000
15279 9862 16765 1 149.00000 418.400000
15279 9863 16769 1 149.00000 418.400000
15280 9864 15462 1 149.00000 418.400000
15281 9865 15529 1 149.00000 418.400000
15281 9866 16278 1 149.00000 418.400000
15282 9867 15997 1 149.00000 418.400000
15282 9868 17041 1 149.00000 418.400000
15282 9869 16126 1 149.00000 418.400000
15283 9870 15493 1 149.00000 418.400000
15284 9871 16548 1 149.00000 418.400000
15284 9872 16725 1 149.00000 418.400000
15285 9873 15914 1 149.00000 418.400000
15285 9874 15460 1 149.00000 418.400000
15286 9875 17044 1 149.00000 418.400000
15286 9876 16312 1 149.00000 418.400000
15287 9877 16950 1 149.00000 418.400000
15287 9878 16026 1 149.00000 418.400000
15288 9879 16056 1 149.00000 418.400000
15290 9880 17072 1 149.00000 418.400000
15290 9881 16074 1 149.00000 418.400000
15291 9882 16103 1 149.00000 418.400000
15291 9883 15999 1 149.00000 418.400000
15292 9884 15457 1 149.00000 418.400000
15295 9885 17154 1 149.00000 418.400000
15299 9886 17150 1 149.00000 418.400000
13376 9887 15891 1 149.00000 418.400000
15301 9888 16690 1 149.00000 418.400000
13376 9889 15301 1 149.00000 418.400000
15302 9890 16788 1 149.00000 418.400000
15302 9891 16949 1 149.00000 418.400000
13157 9892 15302 1 149.00000 418.400000
15303 9893 15582 1 149.00000 418.400000
15303 9894 16548 1 149.00000 418.400000
15304 9895 16888 1 149.00000 418.400000
15305 9896 15719 1 149.00000 418.400000
15306 9897 17152 1 149.00000 418.400000
15306 9898 15834 1 149.00000 418.400000
15307 9899 16364 1 149.00000 418.400000
15309 9900 15932 1 149.00000 418.400000
15309 9901 16431 1 149.00000 418.400000
15309 9902 15335 1 149.00000 418.400000
16924 9903 17746 1 149.00000 418.400000
15627 9904 17746 1 149.00000 418.400000
16341 9905 17746 1 149.00000 418.400000
15310 9906 15758 1 149.00000 418.400000
15310 9907 16757 1 149.00000 418.400000
15311 9908 15818 1 149.00000 418.400000
15311 9909 15948 1 149.00000 418.400000
15312 9910 15634 1 149.00000 418.400000
15314 9911 16350 1 149.00000 418.400000
15315 9912 16960 1 149.00000 418.400000
15316 9913 16600 1 149.00000 418.400000
15319 9914 16235 1 149.00000 418.400000
15319 9915 15532 1 149.00000 418.400000
15320 9916 15522 1 149.00000 418.400000
15321 9917 16794 1 149.00000 418.400000
15321 9918 15561 1 149.00000 418.400000
15322 9919 15896 1 149.00000 418.400000
15322 9920 16560 1 149.00000 418.400000
15323 9921 16562 1 149.00000 418.400000
14626 9922 15324 1 149.00000 418.400000
13193 9923 17155 1 149.00000 418.400000
15325 9924 17054 1 149.00000 418.400000
15325 9925 15579 1 149.00000 418.400000
15326 9926 16026 1 149.00000 418.400000
15327 9927 17905 1 149.00000 418.400000
15328 9928 16703 1 149.00000 418.400000
15331 9929 15998 1 149.00000 418.400000
15332 9930 16620 1 149.00000 418.400000
15333 9931 16820 1 149.00000 418.400000
15333 9932 16046 1 149.00000 418.400000
15334 9933 16689 1 149.00000 418.400000
15335 9934 15673 1 149.00000 418.400000
15336 9935 15391 1 149.00000 418.400000
15337 9936 16173 1 149.00000 418.400000
15337 9937 16066 1 149.00000 418.400000
13908 9938 15338 1 149.00000 418.400000
12667 9939 15339 1 149.00000 418.400000
14553 9940 15676 1 149.00000 418.400000
15340 9941 16741 1 149.00000 418.400000
15340 9942 15434 1 149.00000 418.400000
15342 9943 15667 1 149.00000 418.400000
15343 9944 16185 1 149.00000 418.400000
15344 9945 16566 1 149.00000 418.400000
15344 9946 15812 1 149.00000 418.400000
15345 9947 16415 1 149.00000 418.400000
15345 9948 15838 1 149.00000 418.400000
15346 9949 16168 1 149.00000 418.400000
15346 9950 16451 1 149.00000 418.400000
15347 9951 16285 1 149.00000 418.400000
15347 9952 16183 1 149.00000 418.400000
15347 9953 16167 1 149.00000 418.400000
15347 9954 16275 1 149.00000 418.400000
11834 9955 16003 1 149.00000 418.400000
15350 9956 15441 1 149.00000 418.400000
15351 9957 16390 1 149.00000 418.400000
15352 9958 16354 1 149.00000 418.400000
15353 9959 16830 1 149.00000 418.400000
15353 9960 16928 1 149.00000 418.400000
15354 9961 16236 1 149.00000 418.400000
16811 9962 17752 1 149.00000 418.400000
15406 9963 17752 1 149.00000 418.400000
15355 9964 16129 1 149.00000 418.400000
15356 9965 15374 1 149.00000 418.400000
15356 9966 16893 1 149.00000 418.400000
15357 9967 15597 1 149.00000 418.400000
15358 9968 15680 1 149.00000 418.400000
15104 9969 15358 1 149.00000 418.400000
15359 9970 15935 1 149.00000 418.400000
15361 9971 17172 1 149.00000 418.400000
15361 9972 15677 1 149.00000 418.400000
15362 9973 16224 1 149.00000 418.400000
14152 9974 15363 1 149.00000 418.400000
15363 9975 15720 1 149.00000 418.400000
15364 9976 16471 1 149.00000 418.400000
15365 9977 16312 1 149.00000 418.400000
11940 9978 16914 1 149.00000 418.400000
14070 9979 15367 1 149.00000 418.400000
15367 9980 15552 1 149.00000 418.400000
13630 9981 15484 1 149.00000 418.400000
15369 9982 16819 1 149.00000 418.400000
15370 9983 15853 1 149.00000 418.400000
15371 9984 16226 1 149.00000 418.400000
15371 9985 16442 1 149.00000 418.400000
15372 9986 17126 1 149.00000 418.400000
15375 9987 16166 1 149.00000 418.400000
15376 9988 15866 1 149.00000 418.400000
15376 9989 16403 1 149.00000 418.400000
15378 9990 17887 1 149.00000 418.400000
15379 9991 16041 1 149.00000 418.400000
15379 9992 16308 1 149.00000 418.400000
15380 9993 17869 1 149.00000 418.400000
15977 9994 16356 1 149.00000 418.400000
15380 9995 16356 1 149.00000 418.400000
15381 9996 16575 1 149.00000 418.400000
15384 9997 16084 1 149.00000 418.400000
15384 9998 16478 1 149.00000 418.400000
13097 9999 15385 1 149.00000 418.400000
15385 10000 15481 1 149.00000 418.400000
15385 10001 16398 1 149.00000 418.400000
15387 10002 16015 1 149.00000 418.400000
15387 10003 16137 1 149.00000 418.400000
15387 10004 16905 1 149.00000 418.400000
15388 10005 16797 1 149.00000 418.400000
15388 10006 15843 1 149.00000 418.400000
15389 10007 17060 1 149.00000 418.400000
15390 10008 15959 1 149.00000 418.400000
15391 10009 15900 1 149.00000 418.400000
15392 10010 15490 1 149.00000 418.400000
15392 10011 17080 1 149.00000 418.400000
15394 10012 17773 1 149.00000 418.400000
15395 10013 16472 1 149.00000 418.400000
15395 10014 15995 1 149.00000 418.400000
15396 10015 15732 1 149.00000 418.400000
15397 10016 16584 1 149.00000 418.400000
15397 10017 16804 1 149.00000 418.400000
15398 10018 16566 1 149.00000 418.400000
15398 10019 16024 1 149.00000 418.400000
15398 10020 16508 1 149.00000 418.400000
15399 10021 15503 1 149.00000 418.400000
13542 10022 15400 1 149.00000 418.400000
15400 10023 16914 1 149.00000 418.400000
13542 10024 17079 1 149.00000 418.400000
15401 10025 16420 1 149.00000 418.400000
15402 10026 16824 1 149.00000 418.400000
15403 10027 15722 1 149.00000 418.400000
14413 10028 15403 1 149.00000 418.400000
15405 10029 16029 1 149.00000 418.400000
15407 10030 16755 1 149.00000 418.400000
15408 10031 15634 1 149.00000 418.400000
13757 10032 15878 1 149.00000 418.400000
15409 10033 17848 1 149.00000 418.400000
15413 10034 17818 1 149.00000 418.400000
15413 10035 15993 1 149.00000 418.400000
15413 10036 17172 1 149.00000 418.400000
15414 10037 17171 1 149.00000 418.400000
12812 10038 15414 1 149.00000 418.400000
15415 10039 17027 1 149.00000 418.400000
15416 10040 15616 1 149.00000 418.400000
15417 10041 16753 1 149.00000 418.400000
15418 10042 16417 1 149.00000 418.400000
15418 10043 16917 1 149.00000 418.400000
15420 10044 16967 1 149.00000 418.400000
15420 10045 16444 1 149.00000 418.400000
16602 10046 17761 1 149.00000 418.400000
16789 10047 17761 1 149.00000 418.400000
15421 10048 17788 1 149.00000 418.400000
15422 10049 17929 1 149.00000 418.400000
15422 10050 16120 1 149.00000 418.400000
15862 10051 17764 1 149.00000 418.400000
13433 10052 17098 1 149.00000 418.400000
15424 10053 17055 1 149.00000 418.400000
15425 10054 15606 1 149.00000 418.400000
13414 10055 15542 1 149.00000 418.400000
15427 10056 17110 1 149.00000 418.400000
15428 10057 16821 1 149.00000 418.400000
15428 10058 16460 1 149.00000 418.400000
15430 10059 17178 1 149.00000 418.400000
15430 10060 16329 1 149.00000 418.400000
15430 10061 16655 1 149.00000 418.400000
16009 10062 17012 1 149.00000 418.400000
14289 10063 17920 1 149.00000 418.400000
15433 10064 16672 1 149.00000 418.400000
15435 10065 16954 1 149.00000 418.400000
15435 10066 16289 1 149.00000 418.400000
15436 10067 16567 1 149.00000 418.400000
15440 10068 15934 1 149.00000 418.400000
12422 10069 15440 1 149.00000 418.400000
15441 10070 16699 1 149.00000 418.400000
15442 10071 15534 1 149.00000 418.400000
15443 10072 15805 1 149.00000 418.400000
15443 10073 16750 1 149.00000 418.400000
15444 10074 16482 1 149.00000 418.400000
13310 10075 17977 1 149.00000 418.400000
15445 10076 15964 1 149.00000 418.400000
15446 10077 16913 1 149.00000 418.400000
15446 10078 16972 1 149.00000 418.400000
15446 10079 17007 1 149.00000 418.400000
13611 10080 16314 1 149.00000 418.400000
15448 10081 16001 1 149.00000 418.400000
14951 10082 16138 1 149.00000 418.400000
15452 10083 17123 1 149.00000 418.400000
13188 10084 16459 1 149.00000 418.400000
15453 10085 16698 1 149.00000 418.400000
15453 10086 15685 1 149.00000 418.400000
15454 10087 17016 1 149.00000 418.400000
15455 10088 15601 1 149.00000 418.400000
15456 10089 16343 1 149.00000 418.400000
15457 10090 15714 1 149.00000 418.400000
15459 10091 16635 1 149.00000 418.400000
11915 10092 15459 1 149.00000 418.400000
15460 10093 17076 1 149.00000 418.400000
15460 10094 15504 1 149.00000 418.400000
15461 10095 16761 1 149.00000 418.400000
15461 10096 16790 1 149.00000 418.400000
15462 10097 15694 1 149.00000 418.400000
15468 10098 16900 1 149.00000 418.400000
15468 10099 16179 1 149.00000 418.400000
15468 10100 16228 1 149.00000 418.400000
15469 10101 17082 1 149.00000 418.400000
15470 10102 17037 1 149.00000 418.400000
15470 10103 16995 1 149.00000 418.400000
15472 10104 15692 1 149.00000 418.400000
13024 10105 16216 1 149.00000 418.400000
15475 10106 17063 1 149.00000 418.400000
15476 10107 17034 1 149.00000 418.400000
15477 10108 16149 1 149.00000 418.400000
15477 10109 16566 1 149.00000 418.400000
15478 10110 15498 1 149.00000 418.400000
15478 10111 16124 1 149.00000 418.400000
15479 10112 15587 1 149.00000 418.400000
15479 10113 16495 1 149.00000 418.400000
15480 10114 15500 1 149.00000 418.400000
15481 10115 17071 1 149.00000 418.400000
15481 10116 15537 1 149.00000 418.400000
15482 10117 16911 1 149.00000 418.400000
15482 10118 15499 1 149.00000 418.400000
14385 10119 16719 1 149.00000 418.400000
15484 10120 15530 1 149.00000 418.400000
15969 10121 17770 1 149.00000 418.400000
15486 10122 16095 1 149.00000 418.400000
15487 10123 16033 1 149.00000 418.400000
15489 10124 16739 1 149.00000 418.400000
15490 10125 15753 1 149.00000 418.400000
15490 10126 16099 1 149.00000 418.400000
15491 10127 16988 1 149.00000 418.400000
15492 10128 16504 1 149.00000 418.400000
15494 10129 15537 1 149.00000 418.400000
15494 10130 16502 1 149.00000 418.400000
15495 10131 15972 1 149.00000 418.400000
15496 10132 16100 1 149.00000 418.400000
15496 10133 15643 1 149.00000 418.400000
14522 10134 15496 1 149.00000 418.400000
15496 10135 15661 1 149.00000 418.400000
15497 10136 16609 1 149.00000 418.400000
15498 10137 15631 1 149.00000 418.400000
15499 10138 16382 1 149.00000 418.400000
15501 10139 15964 1 149.00000 418.400000
15502 10140 17866 1 149.00000 418.400000
15505 10141 16478 1 149.00000 418.400000
15506 10142 15968 1 149.00000 418.400000
16661 10143 18114 1 149.00000 418.400000
15507 10144 16649 1 149.00000 418.400000
15508 10145 16298 1 149.00000 418.400000
15508 10146 17914 1 149.00000 418.400000
15508 10147 15961 1 149.00000 418.400000
15511 10148 17186 1 149.00000 418.400000
15511 10149 15817 1 149.00000 418.400000
15831 10150 16390 1 149.00000 418.400000
15512 10151 16390 1 149.00000 418.400000
15513 10152 17143 1 149.00000 418.400000
15515 10153 15738 1 149.00000 418.400000
15515 10154 16126 1 149.00000 418.400000
15517 10155 16023 1 149.00000 418.400000
13051 10156 17049 1 149.00000 418.400000
15518 10157 17167 1 149.00000 418.400000
15519 10158 16924 1 149.00000 418.400000
15520 10159 15685 1 149.00000 418.400000
15521 10160 16757 1 149.00000 418.400000
15523 10161 16226 1 149.00000 418.400000
15523 10162 15670 1 149.00000 418.400000
15524 10163 16617 1 149.00000 418.400000
15524 10164 15701 1 149.00000 418.400000
16652 10165 17773 1 149.00000 418.400000
15526 10166 15839 1 149.00000 418.400000
15527 10167 15749 1 149.00000 418.400000
15528 10168 17158 1 149.00000 418.400000
15528 10169 16614 1 149.00000 418.400000
15529 10170 16827 1 149.00000 418.400000
15530 10171 15862 1 149.00000 418.400000
15531 10172 16932 1 149.00000 418.400000
15531 10173 15910 1 149.00000 418.400000
15532 10174 17163 1 149.00000 418.400000
15533 10175 16040 1 149.00000 418.400000
15533 10176 15636 1 149.00000 418.400000
15534 10177 16646 1 149.00000 418.400000
15535 10178 16285 1 149.00000 418.400000
15535 10179 16040 1 149.00000 418.400000
15535 10180 17159 1 149.00000 418.400000
15537 10181 15713 1 149.00000 418.400000
15537 10182 16656 1 149.00000 418.400000
15538 10183 17158 1 149.00000 418.400000
15538 10184 16328 1 149.00000 418.400000
16676 10185 17779 1 149.00000 418.400000
15539 10186 16033 1 149.00000 418.400000
15540 10187 16603 1 149.00000 418.400000
15540 10188 15960 1 149.00000 418.400000
15542 10189 16212 1 149.00000 418.400000
15543 10190 16731 1 149.00000 418.400000
15543 10191 16837 1 149.00000 418.400000
15544 10192 16279 1 149.00000 418.400000
13898 10193 15544 1 149.00000 418.400000
15545 10194 16785 1 149.00000 418.400000
12454 10195 16785 1 149.00000 418.400000
15546 10196 17175 1 149.00000 418.400000
15546 10197 15567 1 149.00000 418.400000
15547 10198 16848 1 149.00000 418.400000
16670 10199 17782 1 149.00000 418.400000
15548 10200 16217 1 149.00000 418.400000
15549 10201 15703 1 149.00000 418.400000
15549 10202 17192 1 149.00000 418.400000
15550 10203 15718 1 149.00000 418.400000
15551 10204 16580 1 149.00000 418.400000
15552 10205 16510 1 149.00000 418.400000
12268 10206 15554 1 149.00000 418.400000
15554 10207 15831 1 149.00000 418.400000
15554 10208 16632 1 149.00000 418.400000
15555 10209 16307 1 149.00000 418.400000
15555 10210 16699 1 149.00000 418.400000
15556 10211 16380 1 149.00000 418.400000
15556 10212 16315 1 149.00000 418.400000
15557 10213 16314 1 149.00000 418.400000
15558 10214 15728 1 149.00000 418.400000
15558 10215 17051 1 149.00000 418.400000
15559 10216 16803 1 149.00000 418.400000
15560 10217 16460 1 149.00000 418.400000
15561 10218 16089 1 149.00000 418.400000
15561 10219 16470 1 149.00000 418.400000
15562 10220 15806 1 149.00000 418.400000
15562 10221 15721 1 149.00000 418.400000
15562 10222 17980 1 149.00000 418.400000
15563 10223 16492 1 149.00000 418.400000
15564 10224 16173 1 149.00000 418.400000
15565 10225 16959 1 149.00000 418.400000
15565 10226 17170 1 149.00000 418.400000
15565 10227 16730 1 149.00000 418.400000
15566 10228 16808 1 149.00000 418.400000
15567 10229 17194 1 149.00000 418.400000
16710 10230 17785 1 149.00000 418.400000
15568 10231 16229 1 149.00000 418.400000
15569 10232 15739 1 149.00000 418.400000
15569 10233 15894 1 149.00000 418.400000
15570 10234 17073 1 149.00000 418.400000
15570 10235 16876 1 149.00000 418.400000
15571 10236 16667 1 149.00000 418.400000
15571 10237 16185 1 149.00000 418.400000
13591 10238 15573 1 149.00000 418.400000
11777 10239 15573 1 149.00000 418.400000
15574 10240 16342 1 149.00000 418.400000
15574 10241 16322 1 149.00000 418.400000
15575 10242 16480 1 149.00000 418.400000
15575 10243 15883 1 149.00000 418.400000
15576 10244 17195 1 149.00000 418.400000
15578 10245 17074 1 149.00000 418.400000
15579 10246 16047 1 149.00000 418.400000
15580 10247 16104 1 149.00000 418.400000
14000 10248 15581 1 149.00000 418.400000
15581 10249 16851 1 149.00000 418.400000
15582 10250 15734 1 149.00000 418.400000
15583 10251 15946 1 149.00000 418.400000
15583 10252 15883 1 149.00000 418.400000
15585 10253 15656 1 149.00000 418.400000
15585 10254 15717 1 149.00000 418.400000
15587 10255 17144 1 149.00000 418.400000
15588 10256 17173 1 149.00000 418.400000
15588 10257 15947 1 149.00000 418.400000
15590 10258 17157 1 149.00000 418.400000
15168 10259 16222 1 149.00000 418.400000
15592 10260 16624 1 149.00000 418.400000
15592 10261 17000 1 149.00000 418.400000
15593 10262 15912 1 149.00000 418.400000
15594 10263 15724 1 149.00000 418.400000
15594 10264 16927 1 149.00000 418.400000
15595 10265 15674 1 149.00000 418.400000
15272 10266 15596 1 149.00000 418.400000
15596 10267 16278 1 149.00000 418.400000
15597 10268 16246 1 149.00000 418.400000
15597 10269 16403 1 149.00000 418.400000
15599 10270 15692 1 149.00000 418.400000
15599 10271 15741 1 149.00000 418.400000
14402 10272 17079 1 149.00000 418.400000
15600 10273 16709 1 149.00000 418.400000
15603 10274 17156 1 149.00000 418.400000
11671 10275 16592 1 149.00000 418.400000
15604 10276 15984 1 149.00000 418.400000
15606 10277 16426 1 149.00000 418.400000
15606 10278 15753 1 149.00000 418.400000
15608 10279 16777 1 149.00000 418.400000
15608 10280 17168 1 149.00000 418.400000
15609 10281 15652 1 149.00000 418.400000
15611 10282 16384 1 149.00000 418.400000
15611 10283 15657 1 149.00000 418.400000
15612 10284 16945 1 149.00000 418.400000
12911 10285 16827 1 149.00000 418.400000
15614 10286 16280 1 149.00000 418.400000
15616 10287 17068 1 149.00000 418.400000
15617 10288 16866 1 149.00000 418.400000
15619 10289 15832 1 149.00000 418.400000
12188 10290 13347 1 149.00000 418.400000
15620 10291 15754 1 149.00000 418.400000
15623 10292 17190 1 149.00000 418.400000
15624 10293 15706 1 149.00000 418.400000
15624 10294 16820 1 149.00000 418.400000
15625 10295 15887 1 149.00000 418.400000
14427 10296 17788 1 149.00000 418.400000
15631 10297 17197 1 149.00000 418.400000
15631 10298 17168 1 149.00000 418.400000
15633 10299 16978 1 149.00000 418.400000
15637 10300 16297 1 149.00000 418.400000
15637 10301 16622 1 149.00000 418.400000
16089 10302 16297 1 149.00000 418.400000
15638 10303 16698 1 149.00000 418.400000
15639 10304 15874 1 149.00000 418.400000
15640 10305 16639 1 149.00000 418.400000
16719 10306 17821 1 149.00000 418.400000
17794 10307 17821 1 149.00000 418.400000
15642 10308 16674 1 149.00000 418.400000
15643 10309 17168 1 149.00000 418.400000
15643 10310 16777 1 149.00000 418.400000
15644 10311 15748 1 149.00000 418.400000
15644 10312 15930 1 149.00000 418.400000
15645 10313 16692 1 149.00000 418.400000
15911 10314 17797 1 149.00000 418.400000
14738 10315 15646 1 149.00000 418.400000
15646 10316 15913 1 149.00000 418.400000
15647 10317 17130 1 149.00000 418.400000
15649 10318 16640 1 149.00000 418.400000
15649 10319 16626 1 149.00000 418.400000
15649 10320 16449 1 149.00000 418.400000
15650 10321 16349 1 149.00000 418.400000
15650 10322 16090 1 149.00000 418.400000
15652 10323 15952 1 149.00000 418.400000
15655 10324 16215 1 149.00000 418.400000
15656 10325 16082 1 149.00000 418.400000
15656 10326 16137 1 149.00000 418.400000
15657 10327 16165 1 149.00000 418.400000
15658 10328 15998 1 149.00000 418.400000
15659 10329 16802 1 149.00000 418.400000
16858 10330 17800 1 149.00000 418.400000
15660 10331 15840 1 149.00000 418.400000
12583 10332 15660 1 149.00000 418.400000
15662 10333 16541 1 149.00000 418.400000
15663 10334 16421 1 149.00000 418.400000
15663 10335 15719 1 149.00000 418.400000
15665 10336 16012 1 149.00000 418.400000
15666 10337 16441 1 149.00000 418.400000
15666 10338 16619 1 149.00000 418.400000
16267 10339 16740 1 149.00000 418.400000
15668 10340 16267 1 149.00000 418.400000
15669 10341 16095 1 149.00000 418.400000
15670 10342 15970 1 149.00000 418.400000
15670 10343 16697 1 149.00000 418.400000
15672 10344 17198 1 149.00000 418.400000
15672 10345 15756 1 149.00000 418.400000
15673 10346 16630 1 149.00000 418.400000
15674 10347 17113 1 149.00000 418.400000
15675 10348 16471 1 149.00000 418.400000
15676 10349 16312 1 149.00000 418.400000
15677 10350 17174 1 149.00000 418.400000
15680 10351 17000 1 149.00000 418.400000
15680 10352 16056 1 149.00000 418.400000
15680 10353 17078 1 149.00000 418.400000
15681 10354 16743 1 149.00000 418.400000
15682 10355 17953 1 149.00000 418.400000
13346 10356 17075 1 149.00000 418.400000
15685 10357 16726 1 149.00000 418.400000
15686 10358 15746 1 149.00000 418.400000
15686 10359 17015 1 149.00000 418.400000
15688 10360 17188 1 149.00000 418.400000
15688 10361 15979 1 149.00000 418.400000
15688 10362 16139 1 149.00000 418.400000
15689 10363 16976 1 149.00000 418.400000
15689 10364 16627 1 149.00000 418.400000
15689 10365 16501 1 149.00000 418.400000
15691 10366 16844 1 149.00000 418.400000
15691 10367 16517 1 149.00000 418.400000
15693 10368 17090 1 149.00000 418.400000
15693 10369 16049 1 149.00000 418.400000
14265 10370 15694 1 149.00000 418.400000
15694 10371 17062 1 149.00000 418.400000
15695 10372 16623 1 149.00000 418.400000
15695 10373 15860 1 149.00000 418.400000
15695 10374 17114 1 149.00000 418.400000
15695 10375 17087 1 149.00000 418.400000
15698 10376 16407 1 149.00000 418.400000
15699 10377 17010 1 149.00000 418.400000
15700 10378 16716 1 149.00000 418.400000
15700 10379 16753 1 149.00000 418.400000
15700 10380 15888 1 149.00000 418.400000
15701 10381 16316 1 149.00000 418.400000
15701 10382 15948 1 149.00000 418.400000
15702 10383 15793 1 149.00000 418.400000
15703 10384 16035 1 149.00000 418.400000
15704 10385 16802 1 149.00000 418.400000
15704 10386 17013 1 149.00000 418.400000
15705 10387 16683 1 149.00000 418.400000
15705 10388 16501 1 149.00000 418.400000
15711 10389 16718 1 149.00000 418.400000
15711 10390 16336 1 149.00000 418.400000
15715 10391 17159 1 149.00000 418.400000
15716 10392 16259 1 149.00000 418.400000
15716 10393 16837 1 149.00000 418.400000
15716 10394 16931 1 149.00000 418.400000
15718 10395 16527 1 149.00000 418.400000
15722 10396 16101 1 149.00000 418.400000
17626 10397 17812 1 149.00000 418.400000
15723 10398 15855 1 149.00000 418.400000
15725 10399 16187 1 149.00000 418.400000
15726 10400 16207 1 149.00000 418.400000
13891 10401 16734 1 149.00000 418.400000
15728 10402 17194 1 149.00000 418.400000
15729 10403 16366 1 149.00000 418.400000
15729 10404 16220 1 149.00000 418.400000
15730 10405 16272 1 149.00000 418.400000
14456 10406 15730 1 149.00000 418.400000
14452 10407 15811 1 149.00000 418.400000
15732 10408 15743 1 149.00000 418.400000
15733 10409 17854 1 149.00000 418.400000
15734 10410 15738 1 149.00000 418.400000
15735 10411 16773 1 149.00000 418.400000
15736 10412 16091 1 149.00000 418.400000
15737 10413 16924 1 149.00000 418.400000
14046 10414 15737 1 149.00000 418.400000
15738 10415 16836 1 149.00000 418.400000
15740 10416 16353 1 149.00000 418.400000
15740 10417 16018 1 149.00000 418.400000
15741 10418 16050 1 149.00000 418.400000
15743 10419 16996 1 149.00000 418.400000
15743 10420 16978 1 149.00000 418.400000
15744 10421 15766 1 149.00000 418.400000
11871 10422 16717 1 149.00000 418.400000
15748 10423 16062 1 149.00000 418.400000
15750 10424 16828 1 149.00000 418.400000
15751 10425 16240 1 149.00000 418.400000
15752 10426 16416 1 149.00000 418.400000
15754 10427 16570 1 149.00000 418.400000
15755 10428 15828 1 149.00000 418.400000
15755 10429 16765 1 149.00000 418.400000
15756 10430 15954 1 149.00000 418.400000
15756 10431 16036 1 149.00000 418.400000
15757 10432 15967 1 149.00000 418.400000
15762 10433 18119 1 149.00000 418.400000
15764 10434 16561 1 149.00000 418.400000
15765 10435 16603 1 149.00000 418.400000
15765 10436 17030 1 149.00000 418.400000
15770 10437 16320 1 149.00000 418.400000
15770 10438 15791 1 149.00000 418.400000
15770 10439 16372 1 149.00000 418.400000
15770 10440 16147 1 149.00000 418.400000
15771 10441 16218 1 149.00000 418.400000
15771 10442 16637 1 149.00000 418.400000
15772 10443 16434 1 149.00000 418.400000
15773 10444 16541 1 149.00000 418.400000
15773 10445 16845 1 149.00000 418.400000
15774 10446 17046 1 149.00000 418.400000
15775 10447 15857 1 149.00000 418.400000
15776 10448 16213 1 149.00000 418.400000
15777 10449 17146 1 149.00000 418.400000
15777 10450 17869 1 149.00000 418.400000
15778 10451 15836 1 149.00000 418.400000
15778 10452 16663 1 149.00000 418.400000
15778 10453 16411 1 149.00000 418.400000
15780 10454 17059 1 149.00000 418.400000
15780 10455 17070 1 149.00000 418.400000
15782 10456 16460 1 149.00000 418.400000
15783 10457 16456 1 149.00000 418.400000
15784 10458 16636 1 149.00000 418.400000
14768 10459 16323 1 149.00000 418.400000
15785 10460 16551 1 149.00000 418.400000
16190 10461 17815 1 149.00000 418.400000
16649 10462 17815 1 149.00000 418.400000
16651 10463 17818 1 149.00000 418.400000
15787 10464 16337 1 149.00000 418.400000
15789 10465 17131 1 149.00000 418.400000
15790 10466 16605 1 149.00000 418.400000
15165 10467 15790 1 149.00000 418.400000
12630 10468 15791 1 149.00000 418.400000
15792 10469 16568 1 149.00000 418.400000
15794 10470 16284 1 149.00000 418.400000
13302 10471 15795 1 149.00000 418.400000
15795 10472 16221 1 149.00000 418.400000
15796 10473 16680 1 149.00000 418.400000
15796 10474 16170 1 149.00000 418.400000
15797 10475 16469 1 149.00000 418.400000
15798 10476 16017 1 149.00000 418.400000
15800 10477 15997 1 149.00000 418.400000
15802 10478 15927 1 149.00000 418.400000
15803 10479 16235 1 149.00000 418.400000
13736 10480 15807 1 149.00000 418.400000
15807 10481 16799 1 149.00000 418.400000
15808 10482 15863 1 149.00000 418.400000
15809 10483 16642 1 149.00000 418.400000
15810 10484 16596 1 149.00000 418.400000
15811 10485 15973 1 149.00000 418.400000
15812 10486 15887 1 149.00000 418.400000
15814 10487 16419 1 149.00000 418.400000
15814 10488 16412 1 149.00000 418.400000
14430 10489 15815 1 149.00000 418.400000
15815 10490 16638 1 149.00000 418.400000
15816 10491 16258 1 149.00000 418.400000
12728 10492 15817 1 149.00000 418.400000
15819 10493 16435 1 149.00000 418.400000
15822 10494 16515 1 149.00000 418.400000
15823 10495 16673 1 149.00000 418.400000
12231 10496 15824 1 149.00000 418.400000
15826 10497 17096 1 149.00000 418.400000
15827 10498 16642 1 149.00000 418.400000
15828 10499 16239 1 149.00000 418.400000
15829 10500 16280 1 149.00000 418.400000
15831 10501 16735 1 149.00000 418.400000
15835 10502 16841 1 149.00000 418.400000
15835 10503 17064 1 149.00000 418.400000
15837 10504 16428 1 149.00000 418.400000
15838 10505 16744 1 149.00000 418.400000
15838 10506 15903 1 149.00000 418.400000
15839 10507 16090 1 149.00000 418.400000
15841 10508 15926 1 149.00000 418.400000
15843 10509 17024 1 149.00000 418.400000
15843 10510 17017 1 149.00000 418.400000
15843 10511 16044 1 149.00000 418.400000
15845 10512 16918 1 149.00000 418.400000
14046 10513 17833 1 149.00000 418.400000
14264 10514 17833 1 149.00000 418.400000
15849 10515 15921 1 149.00000 418.400000
15849 10516 15876 1 149.00000 418.400000
15850 10517 16143 1 149.00000 418.400000
12869 10518 13679 1 149.00000 418.400000
15852 10519 15948 1 149.00000 418.400000
15853 10520 16646 1 149.00000 418.400000
15138 10521 16208 1 149.00000 418.400000
15855 10522 15999 1 149.00000 418.400000
15855 10523 16605 1 149.00000 418.400000
15857 10524 16751 1 149.00000 418.400000
15857 10525 16944 1 149.00000 418.400000
15858 10526 15957 1 149.00000 418.400000
15860 10527 16467 1 149.00000 418.400000
15861 10528 16775 1 149.00000 418.400000
15863 10529 16707 1 149.00000 418.400000
15864 10530 15925 1 149.00000 418.400000
12910 10531 16548 1 149.00000 418.400000
12910 10532 16395 1 149.00000 418.400000
15867 10533 16861 1 149.00000 418.400000
15868 10534 16319 1 149.00000 418.400000
15868 10535 16587 1 149.00000 418.400000
15869 10536 16535 1 149.00000 418.400000
15870 10537 17015 1 149.00000 418.400000
15871 10538 15991 1 149.00000 418.400000
15872 10539 16316 1 149.00000 418.400000
15873 10540 15993 1 149.00000 418.400000
15874 10541 16219 1 149.00000 418.400000
15874 10542 16942 1 149.00000 418.400000
15875 10543 16604 1 149.00000 418.400000
15876 10544 16755 1 149.00000 418.400000
15878 10545 17055 1 149.00000 418.400000
15879 10546 16237 1 149.00000 418.400000
15879 10547 16197 1 149.00000 418.400000
15880 10548 17064 1 149.00000 418.400000
15881 10549 16190 1 149.00000 418.400000
15882 10550 16947 1 149.00000 418.400000
15882 10551 17893 1 149.00000 418.400000
15882 10552 15980 1 149.00000 418.400000
15884 10553 16713 1 149.00000 418.400000
15885 10554 17128 1 149.00000 418.400000
15885 10555 17151 1 149.00000 418.400000
15886 10556 16953 1 149.00000 418.400000
15886 10557 16901 1 149.00000 418.400000
15886 10558 15899 1 149.00000 418.400000
15888 10559 17126 1 149.00000 418.400000
15889 10560 17851 1 149.00000 418.400000
15889 10561 16749 1 149.00000 418.400000
15890 10562 16859 1 149.00000 418.400000
15890 10563 16595 1 149.00000 418.400000
15890 10564 16275 1 149.00000 418.400000
15891 10565 16488 1 149.00000 418.400000
15892 10566 15931 1 149.00000 418.400000
15893 10567 17923 1 149.00000 418.400000
15894 10568 16808 1 149.00000 418.400000
15896 10569 16737 1 149.00000 418.400000
15896 10570 16410 1 149.00000 418.400000
15898 10571 16066 1 149.00000 418.400000
15901 10572 16861 1 149.00000 418.400000
15902 10573 17175 1 149.00000 418.400000
15903 10574 16841 1 149.00000 418.400000
15904 10575 16335 1 149.00000 418.400000
13157 10576 15904 1 149.00000 418.400000
15904 10577 16895 1 149.00000 418.400000
15906 10578 16173 1 149.00000 418.400000
15908 10579 17043 1 149.00000 418.400000
15908 10580 16868 1 149.00000 418.400000
15909 10581 16387 1 149.00000 418.400000
15909 10582 16956 1 149.00000 418.400000
15911 10583 16841 1 149.00000 418.400000
15912 10584 16166 1 149.00000 418.400000
15912 10585 15945 1 149.00000 418.400000
15913 10586 15996 1 149.00000 418.400000
16855 10587 17839 1 149.00000 418.400000
15914 10588 16246 1 149.00000 418.400000
15917 10589 16865 1 149.00000 418.400000
15919 10590 17119 1 149.00000 418.400000
15921 10591 15943 1 149.00000 418.400000
15922 10592 16511 1 149.00000 418.400000
15922 10593 17089 1 149.00000 418.400000
15923 10594 16718 1 149.00000 418.400000
15924 10595 16800 1 149.00000 418.400000
15925 10596 17063 1 149.00000 418.400000
15926 10597 16385 1 149.00000 418.400000
15927 10598 16105 1 149.00000 418.400000
15928 10599 16573 1 149.00000 418.400000
15929 10600 17117 1 149.00000 418.400000
15929 10601 17019 1 149.00000 418.400000
15933 10602 17102 1 149.00000 418.400000
15934 10603 17974 1 149.00000 418.400000
15934 10604 15989 1 149.00000 418.400000
15935 10605 16204 1 149.00000 418.400000
15936 10606 17088 1 149.00000 418.400000
15937 10607 16637 1 149.00000 418.400000
15942 10608 16760 1 149.00000 418.400000
15942 10609 16930 1 149.00000 418.400000
15943 10610 16939 1 149.00000 418.400000
15943 10611 16597 1 149.00000 418.400000
15945 10612 16565 1 149.00000 418.400000
15945 10613 16697 1 149.00000 418.400000
15947 10614 17115 1 149.00000 418.400000
15949 10615 16881 1 149.00000 418.400000
15952 10616 16119 1 149.00000 418.400000
15953 10617 16374 1 149.00000 418.400000
15953 10618 16122 1 149.00000 418.400000
15954 10619 16701 1 149.00000 418.400000
15958 10620 16829 1 149.00000 418.400000
15958 10621 16136 1 149.00000 418.400000
15959 10622 16550 1 149.00000 418.400000
15960 10623 16910 1 149.00000 418.400000
15960 10624 17005 1 149.00000 418.400000
13774 10625 16206 1 149.00000 418.400000
17145 10626 17842 1 149.00000 418.400000
15961 10627 15970 1 149.00000 418.400000
13123 10628 16911 1 149.00000 418.400000
15962 10629 16406 1 149.00000 418.400000
15962 10630 16732 1 149.00000 418.400000
15963 10631 16486 1 149.00000 418.400000
15967 10632 17182 1 149.00000 418.400000
15968 10633 16107 1 149.00000 418.400000
15970 10634 16116 1 149.00000 418.400000
15972 10635 16562 1 149.00000 418.400000
15972 10636 16433 1 149.00000 418.400000
15974 10637 16873 1 149.00000 418.400000
14465 10638 15975 1 149.00000 418.400000
15976 10639 17010 1 149.00000 418.400000
15976 10640 16476 1 149.00000 418.400000
15976 10641 16545 1 149.00000 418.400000
15976 10642 16747 1 149.00000 418.400000
15977 10643 16547 1 149.00000 418.400000
15978 10644 16341 1 149.00000 418.400000
15981 10645 16709 1 149.00000 418.400000
15981 10646 16862 1 149.00000 418.400000
15960 10647 15982 1 149.00000 418.400000
15983 10648 16002 1 149.00000 418.400000
12416 10649 15984 1 149.00000 418.400000
15985 10650 16891 1 149.00000 418.400000
15987 10651 16973 1 149.00000 418.400000
15987 10652 16079 1 149.00000 418.400000
15988 10653 16811 1 149.00000 418.400000
15989 10654 16093 1 149.00000 418.400000
15990 10655 16643 1 149.00000 418.400000
15990 10656 16564 1 149.00000 418.400000
15990 10657 16419 1 149.00000 418.400000
15991 10658 16287 1 149.00000 418.400000
15994 10659 16053 1 149.00000 418.400000
15995 10660 16711 1 149.00000 418.400000
15700 10661 15995 1 149.00000 418.400000
15996 10662 16550 1 149.00000 418.400000
15997 10663 16551 1 149.00000 418.400000
15998 10664 16075 1 149.00000 418.400000
15999 10665 16135 1 149.00000 418.400000
16001 10666 16121 1 149.00000 418.400000
16003 10667 16220 1 149.00000 418.400000
16006 10668 16020 1 149.00000 418.400000
16008 10669 16533 1 149.00000 418.400000
16008 10670 17016 1 149.00000 418.400000
16008 10671 16528 1 149.00000 418.400000
15432 10672 16009 1 149.00000 418.400000
16014 10673 16362 1 149.00000 418.400000
16015 10674 17875 1 149.00000 418.400000
16016 10675 16104 1 149.00000 418.400000
12356 10676 16521 1 149.00000 418.400000
14581 10677 16018 1 149.00000 418.400000
16019 10678 17935 1 149.00000 418.400000
16019 10679 16666 1 149.00000 418.400000
15159 10680 17007 1 149.00000 418.400000
13157 10681 16436 1 149.00000 418.400000
16023 10682 16754 1 149.00000 418.400000
16024 10683 16446 1 149.00000 418.400000
16025 10684 16920 1 149.00000 418.400000
16028 10685 16670 1 149.00000 418.400000
16028 10686 17932 1 149.00000 418.400000
16029 10687 16394 1 149.00000 418.400000
16030 10688 17149 1 149.00000 418.400000
16030 10689 17135 1 149.00000 418.400000
16030 10690 16153 1 149.00000 418.400000
16031 10691 16809 1 149.00000 418.400000
16032 10692 16537 1 149.00000 418.400000
16032 10693 16653 1 149.00000 418.400000
16519 10694 17854 1 149.00000 418.400000
16034 10695 17107 1 149.00000 418.400000
16035 10696 16812 1 149.00000 418.400000
16039 10697 16618 1 149.00000 418.400000
15533 10698 16323 1 149.00000 418.400000
16043 10699 17020 1 149.00000 418.400000
16043 10700 16743 1 149.00000 418.400000
16045 10701 16268 1 149.00000 418.400000
16047 10702 16703 1 149.00000 418.400000
16053 10703 17090 1 149.00000 418.400000
13876 10704 16055 1 149.00000 418.400000
16057 10705 16397 1 149.00000 418.400000
16058 10706 16942 1 149.00000 418.400000
16060 10707 16936 1 149.00000 418.400000
16060 10708 16281 1 149.00000 418.400000
16061 10709 17028 1 149.00000 418.400000
16063 10710 16273 1 149.00000 418.400000
16063 10711 16987 1 149.00000 418.400000
16065 10712 16408 1 149.00000 418.400000
16065 10713 17120 1 149.00000 418.400000
16067 10714 16383 1 149.00000 418.400000
16067 10715 16445 1 149.00000 418.400000
16069 10716 16891 1 149.00000 418.400000
16070 10717 16766 1 149.00000 418.400000
16072 10718 16334 1 149.00000 418.400000
16074 10719 16831 1 149.00000 418.400000
16075 10720 16238 1 149.00000 418.400000
16076 10721 16692 1 149.00000 418.400000
16081 10722 16733 1 149.00000 418.400000
16081 10723 16136 1 149.00000 418.400000
16085 10724 16541 1 149.00000 418.400000
16085 10725 16219 1 149.00000 418.400000
16087 10726 16823 1 149.00000 418.400000
14498 10727 16556 1 149.00000 418.400000
16088 10728 16675 1 149.00000 418.400000
16091 10729 16496 1 149.00000 418.400000
16093 10730 16625 1 149.00000 418.400000
16094 10731 16274 1 149.00000 418.400000
16095 10732 16423 1 149.00000 418.400000
16096 10733 17046 1 149.00000 418.400000
16096 10734 16993 1 149.00000 418.400000
16097 10735 16574 1 149.00000 418.400000
16098 10736 16512 1 149.00000 418.400000
14930 10737 16426 1 149.00000 418.400000
16099 10738 16554 1 149.00000 418.400000
16100 10739 16616 1 149.00000 418.400000
16103 10740 16176 1 149.00000 418.400000
15790 10741 16104 1 149.00000 418.400000
17088 10742 17860 1 149.00000 418.400000
17132 10743 17860 1 149.00000 418.400000
16106 10744 16498 1 149.00000 418.400000
16107 10745 16703 1 149.00000 418.400000
16107 10746 16692 1 149.00000 418.400000
16108 10747 17968 1 149.00000 418.400000
16109 10748 17168 1 149.00000 418.400000
16110 10749 16323 1 149.00000 418.400000
16111 10750 16133 1 149.00000 418.400000
16114 10751 16648 1 149.00000 418.400000
16117 10752 16171 1 149.00000 418.400000
16118 10753 16315 1 149.00000 418.400000
16118 10754 16883 1 149.00000 418.400000
14824 10755 16125 1 149.00000 418.400000
16621 10756 17863 1 149.00000 418.400000
17124 10757 17863 1 149.00000 418.400000
16128 10758 16598 1 149.00000 418.400000
16129 10759 16402 1 149.00000 418.400000
16132 10760 16717 1 149.00000 418.400000
16133 10761 16688 1 149.00000 418.400000
16134 10762 16853 1 149.00000 418.400000
16136 10763 16510 1 149.00000 418.400000
16141 10764 16795 1 149.00000 418.400000
16141 10765 16157 1 149.00000 418.400000
16141 10766 16846 1 149.00000 418.400000
16142 10767 16144 1 149.00000 418.400000
16143 10768 16318 1 149.00000 418.400000
16144 10769 16513 1 149.00000 418.400000
16146 10770 16643 1 149.00000 418.400000
16148 10771 16317 1 149.00000 418.400000
16149 10772 16348 1 149.00000 418.400000
16150 10773 16272 1 149.00000 418.400000
16151 10774 16321 1 149.00000 418.400000
16152 10775 16540 1 149.00000 418.400000
16153 10776 16980 1 149.00000 418.400000
16153 10777 16687 1 149.00000 418.400000
16155 10778 16707 1 149.00000 418.400000
16156 10779 16366 1 149.00000 418.400000
16156 10780 16527 1 149.00000 418.400000
16161 10781 17105 1 149.00000 418.400000
16165 10782 16174 1 149.00000 418.400000
16165 10783 16181 1 149.00000 418.400000
16168 10784 16938 1 149.00000 418.400000
16171 10785 16256 1 149.00000 418.400000
16171 10786 18001 1 149.00000 418.400000
16174 10787 16261 1 149.00000 418.400000
16179 10788 16958 1 149.00000 418.400000
16181 10789 17068 1 149.00000 418.400000
16182 10790 17956 1 149.00000 418.400000
16183 10791 16866 1 149.00000 418.400000
16184 10792 17060 1 149.00000 418.400000
14292 10793 16184 1 149.00000 418.400000
16185 10794 16702 1 149.00000 418.400000
16186 10795 16852 1 149.00000 418.400000
16187 10796 17024 1 149.00000 418.400000
16189 10797 16388 1 149.00000 418.400000
16189 10798 16761 1 149.00000 418.400000
16191 10799 16706 1 149.00000 418.400000
16194 10800 17194 1 149.00000 418.400000
16194 10801 16429 1 149.00000 418.400000
16196 10802 16242 1 149.00000 418.400000
16200 10803 16742 1 149.00000 418.400000
17154 10804 17872 1 149.00000 418.400000
16201 10805 17112 1 149.00000 418.400000
16203 10806 16497 1 149.00000 418.400000
16206 10807 16784 1 149.00000 418.400000
16207 10808 17004 1 149.00000 418.400000
16208 10809 17022 1 149.00000 418.400000
16208 10810 16680 1 149.00000 418.400000
16211 10811 16463 1 149.00000 418.400000
16213 10812 17051 1 149.00000 418.400000
16216 10813 16241 1 149.00000 418.400000
16218 10814 16399 1 149.00000 418.400000
16222 10815 18119 1 149.00000 418.400000
16223 10816 16557 1 149.00000 418.400000
16225 10817 17118 1 149.00000 418.400000
16225 10818 16853 1 149.00000 418.400000
15120 10819 16227 1 149.00000 418.400000
16229 10820 16570 1 149.00000 418.400000
16233 10821 16915 1 149.00000 418.400000
15750 10822 16233 1 149.00000 418.400000
16234 10823 16833 1 149.00000 418.400000
16234 10824 16498 1 149.00000 418.400000
16235 10825 16482 1 149.00000 418.400000
16236 10826 16695 1 149.00000 418.400000
16241 10827 17056 1 149.00000 418.400000
16242 10828 16325 1 149.00000 418.400000
16249 10829 16481 1 149.00000 418.400000
16252 10830 17138 1 149.00000 418.400000
16255 10831 16649 1 149.00000 418.400000
16256 10832 16381 1 149.00000 418.400000
16258 10833 16926 1 149.00000 418.400000
16260 10834 16424 1 149.00000 418.400000
12064 10835 16260 1 149.00000 418.400000
15765 10836 16262 1 149.00000 418.400000
16262 10837 17127 1 149.00000 418.400000
16263 10838 16553 1 149.00000 418.400000
13898 10839 16279 1 149.00000 418.400000
16265 10840 16783 1 149.00000 418.400000
16265 10841 16591 1 149.00000 418.400000
16266 10842 16488 1 149.00000 418.400000
13302 10843 16266 1 149.00000 418.400000
16269 10844 16936 1 149.00000 418.400000
16270 10845 16879 1 149.00000 418.400000
16270 10846 16806 1 149.00000 418.400000
16271 10847 17040 1 149.00000 418.400000
16273 10848 17047 1 149.00000 418.400000
16276 10849 17107 1 149.00000 418.400000
16283 10850 17018 1 149.00000 418.400000
16283 10851 16829 1 149.00000 418.400000
16287 10852 18124 1 149.00000 418.400000
16289 10853 17135 1 149.00000 418.400000
16290 10854 16360 1 149.00000 418.400000
16291 10855 16365 1 149.00000 418.400000
16293 10856 16650 1 149.00000 418.400000
16293 10857 16469 1 149.00000 418.400000
16294 10858 16773 1 149.00000 418.400000
16296 10859 16299 1 149.00000 418.400000
16297 10860 16470 1 149.00000 418.400000
16297 10861 16770 1 149.00000 418.400000
14536 10862 16300 1 149.00000 418.400000
16303 10863 16436 1 149.00000 418.400000
13949 10864 16311 1 149.00000 418.400000
16307 10865 16358 1 149.00000 418.400000
16308 10866 16530 1 149.00000 418.400000
16311 10867 16373 1 149.00000 418.400000
16356 10868 17899 1 149.00000 418.400000
17164 10869 17899 1 149.00000 418.400000
16312 10870 16357 1 149.00000 418.400000
16319 10871 16635 1 149.00000 418.400000
14058 10872 16978 1 149.00000 418.400000
16320 10873 17132 1 149.00000 418.400000
16320 10874 16526 1 149.00000 418.400000
16321 10875 16443 1 149.00000 418.400000
16322 10876 16394 1 149.00000 418.400000
16110 10877 16864 1 149.00000 418.400000
16327 10878 16440 1 149.00000 418.400000
16327 10879 16663 1 149.00000 418.400000
16328 10880 17114 1 149.00000 418.400000
16329 10881 17166 1 149.00000 418.400000
16332 10882 16340 1 149.00000 418.400000
16333 10883 16658 1 149.00000 418.400000
14545 10884 16379 1 149.00000 418.400000
16333 10885 16683 1 149.00000 418.400000
16334 10886 17165 1 149.00000 418.400000
15036 10887 17043 1 149.00000 418.400000
16341 10888 17094 1 149.00000 418.400000
16342 10889 16377 1 149.00000 418.400000
16343 10890 16660 1 149.00000 418.400000
16346 10891 16957 1 149.00000 418.400000
16347 10892 16931 1 149.00000 418.400000
16347 10893 16646 1 149.00000 418.400000
16347 10894 17116 1 149.00000 418.400000
16348 10895 16770 1 149.00000 418.400000
16351 10896 17170 1 149.00000 418.400000
16355 10897 17037 1 149.00000 418.400000
16357 10898 16839 1 149.00000 418.400000
16357 10899 17058 1 149.00000 418.400000
16358 10900 16472 1 149.00000 418.400000
16290 10901 16863 1 149.00000 418.400000
12050 10902 16737 1 149.00000 418.400000
16365 10903 16393 1 149.00000 418.400000
16367 10904 16782 1 149.00000 418.400000
16367 10905 16607 1 149.00000 418.400000
16368 10906 17947 1 149.00000 418.400000
17013 10907 17911 1 149.00000 418.400000
16369 10908 16411 1 149.00000 418.400000
16371 10909 17050 1 149.00000 418.400000
16371 10910 16933 1 149.00000 418.400000
16372 10911 16451 1 149.00000 418.400000
16373 10912 17146 1 149.00000 418.400000
12431 10913 16805 1 149.00000 418.400000
16377 10914 16974 1 149.00000 418.400000
16380 10915 16628 1 149.00000 418.400000
16381 10916 16678 1 149.00000 418.400000
12210 10917 16382 1 149.00000 418.400000
16385 10918 16787 1 149.00000 418.400000
16392 10919 16514 1 149.00000 418.400000
14848 10920 16805 1 149.00000 418.400000
16396 10921 17033 1 149.00000 418.400000
16396 10922 16884 1 149.00000 418.400000
16397 10923 17941 1 149.00000 418.400000
16403 10924 16688 1 149.00000 418.400000
16407 10925 16599 1 149.00000 418.400000
16410 10926 16588 1 149.00000 418.400000
16411 10927 16612 1 149.00000 418.400000
16413 10928 16588 1 149.00000 418.400000
16413 10929 16999 1 149.00000 418.400000
16414 10930 16616 1 149.00000 418.400000
16421 10931 17086 1 149.00000 418.400000
16425 10932 16943 1 149.00000 418.400000
16428 10933 16758 1 149.00000 418.400000
16431 10934 17180 1 149.00000 418.400000
16436 10935 16788 1 149.00000 418.400000
16445 10936 16623 1 149.00000 418.400000
16447 10937 16823 1 149.00000 418.400000
16448 10938 17048 1 149.00000 418.400000
16453 10939 17169 1 149.00000 418.400000
16499 10940 17926 1 149.00000 418.400000
16454 10941 16830 1 149.00000 418.400000
16456 10942 16935 1 149.00000 418.400000
16461 10943 16760 1 149.00000 418.400000
14357 10944 16461 1 149.00000 418.400000
16463 10945 17995 1 149.00000 418.400000
16464 10946 16679 1 149.00000 418.400000
16465 10947 17183 1 149.00000 418.400000
16466 10948 16760 1 149.00000 418.400000
16489 10949 17929 1 149.00000 418.400000
16601 10950 17929 1 149.00000 418.400000
16470 10951 16543 1 149.00000 418.400000
16470 10952 16618 1 149.00000 418.400000
16471 10953 17102 1 149.00000 418.400000
16474 10954 16917 1 149.00000 418.400000
16475 10955 16596 1 149.00000 418.400000
16477 10956 16529 1 149.00000 418.400000
16481 10957 18134 1 149.00000 418.400000
16487 10958 16677 1 149.00000 418.400000
16490 10959 17113 1 149.00000 418.400000
16490 10960 16999 1 149.00000 418.400000
16490 10961 17170 1 149.00000 418.400000
16491 10962 16589 1 149.00000 418.400000
16493 10963 16688 1 149.00000 418.400000
16516 10964 17935 1 149.00000 418.400000
17002 10965 17935 1 149.00000 418.400000
16494 10966 16628 1 149.00000 418.400000
16496 10967 16885 1 149.00000 418.400000
16497 10968 16768 1 149.00000 418.400000
16498 10969 16600 1 149.00000 418.400000
16500 10970 16558 1 149.00000 418.400000
16501 10971 16670 1 149.00000 418.400000
16502 10972 16961 1 149.00000 418.400000
16505 10973 17006 1 149.00000 418.400000
12131 10974 17977 1 149.00000 418.400000
16508 10975 16770 1 149.00000 418.400000
16511 10976 16750 1 149.00000 418.400000
16514 10977 16572 1 149.00000 418.400000
16514 10978 17024 1 149.00000 418.400000
16515 10979 16853 1 149.00000 418.400000
16613 10980 16892 1 149.00000 418.400000
16516 10981 16892 1 149.00000 418.400000
16517 10982 16538 1 149.00000 418.400000
16522 10983 16865 1 149.00000 418.400000
16522 10984 16997 1 149.00000 418.400000
16522 10985 17086 1 149.00000 418.400000
16523 10986 16951 1 149.00000 418.400000
16527 10987 16786 1 149.00000 418.400000
16528 10988 17132 1 149.00000 418.400000
16529 10989 17048 1 149.00000 418.400000
16536 10990 16874 1 149.00000 418.400000
16539 10991 17089 1 149.00000 418.400000
16551 10992 16918 1 149.00000 418.400000
16554 10993 17080 1 149.00000 418.400000
16556 10994 16782 1 149.00000 418.400000
16563 10995 16602 1 149.00000 418.400000
16567 10996 17196 1 149.00000 418.400000
16568 10997 16885 1 149.00000 418.400000
12022 10998 16574 1 149.00000 418.400000
16576 10999 16654 1 149.00000 418.400000
16576 11000 16779 1 149.00000 418.400000
16577 11001 16941 1 149.00000 418.400000
16577 11002 16864 1 149.00000 418.400000
16579 11003 16693 1 149.00000 418.400000
16579 11004 16662 1 149.00000 418.400000
16587 11005 16979 1 149.00000 418.400000
14629 11006 16730 1 149.00000 418.400000
16594 11007 17069 1 149.00000 418.400000
16594 11008 16721 1 149.00000 418.400000
16597 11009 16778 1 149.00000 418.400000
16605 11010 16998 1 149.00000 418.400000
16608 11011 16874 1 149.00000 418.400000
16611 11012 16647 1 149.00000 418.400000
16612 11013 16991 1 149.00000 418.400000
16613 11014 17959 1 149.00000 418.400000
16614 11015 17175 1 149.00000 418.400000
16615 11016 17135 1 149.00000 418.400000
16414 11017 17038 1 149.00000 418.400000
16617 11018 17021 1 149.00000 418.400000
16617 11019 17163 1 149.00000 418.400000
16625 11020 16718 1 149.00000 418.400000
16718 11021 16922 1 149.00000 418.400000
15545 11022 16626 1 149.00000 418.400000
16627 11023 16717 1 149.00000 418.400000
16633 11024 17125 1 149.00000 418.400000
16633 11025 16813 1 149.00000 418.400000
16634 11026 16951 1 149.00000 418.400000
16638 11027 16936 1 149.00000 418.400000
16640 11028 16775 1 149.00000 418.400000
16641 11029 16971 1 149.00000 418.400000
16641 11030 16945 1 149.00000 418.400000
16642 11031 17040 1 149.00000 418.400000
17938 11032 17980 1 149.00000 418.400000
16647 11033 17178 1 149.00000 418.400000
16657 11034 16877 1 149.00000 418.400000
16663 11035 16787 1 149.00000 418.400000
16665 11036 17185 1 149.00000 418.400000
16667 11037 16729 1 149.00000 418.400000
16669 11038 16728 1 149.00000 418.400000
16677 11039 17124 1 149.00000 418.400000
13483 11040 16685 1 149.00000 418.400000
16689 11041 16893 1 149.00000 418.400000
16689 11042 16929 1 149.00000 418.400000
16694 11043 17130 1 149.00000 418.400000
16696 11044 16987 1 149.00000 418.400000
16698 11045 16813 1 149.00000 418.400000
16701 11046 16928 1 149.00000 418.400000
16701 11047 17120 1 149.00000 418.400000
16703 11048 17054 1 149.00000 418.400000
16704 11049 16955 1 149.00000 418.400000
16706 11050 16759 1 149.00000 418.400000
16713 11051 16833 1 149.00000 418.400000
16719 11052 16778 1 149.00000 418.400000
16720 11053 17007 1 149.00000 418.400000
15104 11054 17010 1 149.00000 418.400000
15104 11055 16992 1 149.00000 418.400000
16724 11056 17105 1 149.00000 418.400000
16732 11057 16857 1 149.00000 418.400000
16734 11058 17115 1 149.00000 418.400000
16736 11059 17156 1 149.00000 418.400000
16738 11060 16949 1 149.00000 418.400000
16738 11061 16840 1 149.00000 418.400000
12406 11062 16739 1 149.00000 418.400000
16741 11063 16958 1 149.00000 418.400000
16746 11064 17098 1 149.00000 418.400000
16748 11065 17019 1 149.00000 418.400000
16750 11066 17048 1 149.00000 418.400000
13039 11067 16942 1 149.00000 418.400000
16753 11068 17150 1 149.00000 418.400000
16755 11069 16963 1 149.00000 418.400000
16756 11070 16975 1 149.00000 418.400000
16757 11071 16792 1 149.00000 418.400000
16608 11072 16758 1 149.00000 418.400000
16758 11073 16913 1 149.00000 418.400000
16763 11074 16904 1 149.00000 418.400000
16764 11075 16773 1 149.00000 418.400000
16771 11076 16993 1 149.00000 418.400000
16780 11077 16798 1 149.00000 418.400000
12314 11078 16789 1 149.00000 418.400000
16792 11079 17065 1 149.00000 418.400000
16792 11080 16801 1 149.00000 418.400000
16796 11081 16846 1 149.00000 418.400000
16800 11082 17022 1 149.00000 418.400000
16807 11083 16918 1 149.00000 418.400000
16815 11084 17066 1 149.00000 418.400000
16817 11085 17083 1 149.00000 418.400000
16821 11086 16868 1 149.00000 418.400000
16824 11087 17003 1 149.00000 418.400000
16829 11088 17162 1 149.00000 418.400000
16831 11089 17084 1 149.00000 418.400000
13062 11090 16831 1 149.00000 418.400000
16832 11091 17096 1 149.00000 418.400000
16834 11092 16943 1 149.00000 418.400000
16842 11093 16964 1 149.00000 418.400000
16859 11094 17109 1 149.00000 418.400000
16867 11095 17043 1 149.00000 418.400000
16872 11096 17059 1 149.00000 418.400000
16882 11097 17043 1 149.00000 418.400000
16888 11098 16922 1 149.00000 418.400000
16899 11099 17178 1 149.00000 418.400000
16900 11100 17047 1 149.00000 418.400000
16902 11101 17095 1 149.00000 418.400000
16902 11102 16972 1 149.00000 418.400000
16903 11103 16937 1 149.00000 418.400000
16904 11104 16925 1 149.00000 418.400000
16907 11105 17164 1 149.00000 418.400000
16908 11106 16948 1 149.00000 418.400000
16910 11107 16920 1 149.00000 418.400000
16919 11108 17120 1 149.00000 418.400000
16927 11109 16988 1 149.00000 418.400000
16929 11110 16966 1 149.00000 418.400000
16936 11111 17129 1 149.00000 418.400000
16942 11112 17153 1 149.00000 418.400000
16943 11113 17046 1 149.00000 418.400000
16944 11114 17042 1 149.00000 418.400000
16954 11115 17010 1 149.00000 418.400000
16955 11116 17134 1 149.00000 418.400000
16960 11117 17139 1 149.00000 418.400000
16965 11118 17158 1 149.00000 418.400000
16970 11119 17195 1 149.00000 418.400000
16972 11120 17082 1 149.00000 418.400000
16975 11121 17108 1 149.00000 418.400000
16992 11122 17078 1 149.00000 418.400000
16995 11123 17061 1 149.00000 418.400000
17009 11124 17095 1 149.00000 418.400000
17088 11125 17989 1 149.00000 418.400000
17030 11126 17076 1 149.00000 418.400000
17034 11127 17052 1 149.00000 418.400000
17036 11128 17133 1 149.00000 418.400000
17038 11129 17073 1 149.00000 418.400000
17045 11130 17066 1 149.00000 418.400000
17056 11131 17171 1 149.00000 418.400000
17068 11132 17171 1 149.00000 418.400000
17087 11133 17148 1 149.00000 418.400000
17098 11134 17180 1 149.00000 418.400000
17101 11135 17163 1 149.00000 418.400000
17131 11136 17192 1 149.00000 418.400000
17136 11137 17161 1 149.00000 418.400000
12375 11138 13099 1 149.00000 418.400000
11612 11139 12883 1 149.00000 418.400000
13225 11140 14834 1 149.00000 418.400000
13856 11141 17980 1 149.00000 418.400000
14097 11142 16938 1 149.00000 418.400000
14628 11143 16601 1 149.00000 418.400000
14622 11144 17662 1 149.00000 418.400000
12944 11145 15431 1 149.00000 418.400000
14391 11146 17884 1 149.00000 418.400000
11669 11147 16182 1 149.00000 418.400000
13215 11148 16886 1 149.00000 418.400000
12825 11149 13665 1 149.00000 418.400000
12987 11150 15205 1 149.00000 418.400000
14709 11151 15378 1 149.00000 418.400000
16302 11152 17374 1 149.00000 418.400000
14216 11153 14270 1 149.00000 418.400000
14054 11154 15651 1 149.00000 418.400000
12504 11155 14655 1 149.00000 418.400000
12981 11156 16386 1 149.00000 418.400000
14836 11157 15516 1 149.00000 418.400000
13458 11158 14326 1 149.00000 418.400000
13868 11159 14156 1 149.00000 418.400000
12775 11160 16950 1 149.00000 418.400000
16188 11161 16693 1 149.00000 418.400000
14540 11162 17617 1 149.00000 418.400000
12609 11163 14485 1 149.00000 418.400000
13098 11164 15045 1 149.00000 418.400000
15510 11165 15986 1 149.00000 418.400000
13518 11166 13745 1 149.00000 418.400000
13005 11167 17302 1 149.00000 418.400000
13129 11168 16834 1 149.00000 418.400000
14556 11169 17362 1 149.00000 418.400000
13180 11170 17698 1 149.00000 418.400000
15567 11171 16838 1 149.00000 418.400000
13090 11172 15062 1 149.00000 418.400000
14227 11173 14895 1 149.00000 418.400000
13246 11174 17920 1 149.00000 418.400000
11984 11175 12144 1 149.00000 418.400000
12890 11176 16894 1 149.00000 418.400000
14834 11177 15330 1 149.00000 418.400000
12790 11178 15327 1 149.00000 418.400000
11832 11179 17755 1 149.00000 418.400000
12596 11180 14227 1 149.00000 418.400000
12227 11181 12697 1 149.00000 418.400000
14592 11182 16739 1 149.00000 418.400000
12699 11183 13771 1 149.00000 418.400000
13438 11184 15877 1 149.00000 418.400000
13745 11185 16245 1 149.00000 418.400000
12417 11186 17923 1 149.00000 418.400000
15951 11187 17971 1 149.00000 418.400000
12521 11188 13018 1 149.00000 418.400000
15023 11189 16028 1 149.00000 418.400000
15330 11190 16138 1 149.00000 418.400000
11676 11191 11975 1 149.00000 418.400000
14485 11192 16916 1 149.00000 418.400000
13104 11193 14462 1 149.00000 418.400000
13496 11194 15881 1 149.00000 418.400000
15127 11195 15334 1 149.00000 418.400000
14733 11196 16696 1 149.00000 418.400000
11725 11197 13509 1 149.00000 418.400000
11632 11198 16375 1 149.00000 418.400000
16375 11199 17548 1 149.00000 418.400000
16772 11200 17542 1 149.00000 418.400000
13060 11201 13491 1 149.00000 418.400000
11918 11202 15235 1 149.00000 418.400000
13435 11203 13614 1 149.00000 418.400000
14493 11204 15377 1 149.00000 418.400000
11819 11205 12725 1 149.00000 418.400000
12888 11206 13334 1 149.00000 418.400000
16178 11207 17854 1 149.00000 418.400000
11852 11208 17130 1 149.00000 418.400000
12756 11209 16005 1 149.00000 418.400000
13796 11210 14655 1 149.00000 418.400000
12174 11211 13207 1 149.00000 418.400000
14374 11212 17566 1 149.00000 418.400000
13119 11213 14767 1 149.00000 418.400000
15239 11214 17941 1 149.00000 418.400000
11644 11215 14513 1 149.00000 418.400000
15431 11216 17800 1 149.00000 418.400000
12083 11217 14156 1 149.00000 418.400000
13762 11218 15897 1 149.00000 418.400000
13315 11219 16059 1 149.00000 418.400000
12432 11220 12978 1 149.00000 418.400000
16591 11221 17890 1 149.00000 418.400000
15031 11222 16186 1 149.00000 418.400000
12726 11223 17707 1 149.00000 418.400000
15817 11224 15940 1 149.00000 418.400000
16980 11225 17209 1 149.00000 418.400000
11923 11226 17605 1 149.00000 418.400000
15407 11227 16364 1 149.00000 418.400000
12874 11228 16594 1 149.00000 418.400000
14743 11229 17716 1 149.00000 418.400000
12604 11230 17075 1 149.00000 418.400000
12434 11231 13230 1 149.00000 418.400000
13835 11232 17055 1 149.00000 418.400000
15877 11233 17293 1 149.00000 418.400000
14612 11234 14880 1 149.00000 418.400000
11956 11235 12973 1 149.00000 418.400000
11614 11236 14857 1 149.00000 418.400000
13293 11237 16915 1 149.00000 418.400000
12221 11238 17332 1 149.00000 418.400000
15102 11239 17665 1 149.00000 418.400000
11719 11240 15411 1 149.00000 418.400000
11873 11241 16855 1 149.00000 418.400000
12074 11242 17161 1 149.00000 418.400000
12040 11243 16755 1 149.00000 418.400000
12432 11244 14066 1 149.00000 418.400000
13043 11245 13609 1 149.00000 418.400000
15156 11246 17632 1 149.00000 418.400000
14632 11247 15151 1 149.00000 418.400000
13846 11248 17488 1 149.00000 418.400000
15424 11249 17650 1 149.00000 418.400000
12596 11250 17563 1 149.00000 418.400000
15062 11251 17584 1 149.00000 418.400000
14881 11252 16955 1 149.00000 418.400000
12297 11253 14628 1 149.00000 418.400000
11749 11254 11910 1 149.00000 418.400000
13903 11255 17416 1 149.00000 418.400000
12604 11256 13667 1 149.00000 418.400000
12218 11257 17794 1 149.00000 418.400000
11791 11258 16518 1 149.00000 418.400000
11716 11259 17147 1 149.00000 418.400000
16737 11260 17440 1 149.00000 418.400000
12264 11261 15737 1 149.00000 418.400000
14881 11262 15690 1 149.00000 418.400000
11725 11263 15659 1 149.00000 418.400000
16429 11264 17353 1 149.00000 418.400000
13018 11265 17797 1 149.00000 418.400000
12033 11266 17260 1 149.00000 418.400000
14591 11267 17587 1 149.00000 418.400000
12520 11268 17575 1 149.00000 418.400000
12315 11269 16712 1 149.00000 418.400000
12010 11270 13743 1 149.00000 418.400000
12101 11271 13424 1 149.00000 418.400000
15033 11272 17344 1 149.00000 418.400000
13889 11273 16947 1 149.00000 418.400000
13152 11274 15366 1 149.00000 418.400000
12429 11275 13511 1 149.00000 418.400000
13357 11276 14985 1 149.00000 418.400000
15471 11277 17275 1 149.00000 418.400000
11792 11278 15176 1 149.00000 418.400000
14513 11279 15584 1 149.00000 418.400000
16499 11280 17881 1 149.00000 418.400000
15313 11281 15767 1 149.00000 418.400000
12799 11282 17446 1 149.00000 418.400000
13448 11283 15225 1 149.00000 418.400000
12270 11284 17413 1 149.00000 418.400000
12262 11285 14526 1 149.00000 418.400000
14410 11286 16241 1 149.00000 418.400000
11992 11287 15607 1 149.00000 418.400000
12585 11288 15881 1 149.00000 418.400000
11988 11289 12350 1 149.00000 418.400000
16621 11290 17533 1 149.00000 418.400000
12145 11291 17653 1 149.00000 418.400000
16789 11292 17500 1 149.00000 418.400000
12262 11293 17944 1 149.00000 418.400000
11986 11294 13534 1 149.00000 418.400000
11640 11295 12699 1 149.00000 418.400000
12190 11296 15251 1 149.00000 418.400000
12883 11297 15030 1 149.00000 418.400000
14717 11298 15374 1 149.00000 418.400000
12375 11299 17224 1 149.00000 418.400000
15225 11300 17926 1 149.00000 418.400000
13416 11301 14887 1 149.00000 418.400000
11658 11302 12040 1 149.00000 418.400000
14337 11303 16041 1 149.00000 418.400000
11736 11304 17713 1 149.00000 418.400000
16481 11305 16696 1 149.00000 418.400000
14596 11306 15136 1 149.00000 418.400000
12859 11307 14469 1 149.00000 418.400000
13605 11308 16950 1 149.00000 418.400000
14078 11309 14288 1 149.00000 418.400000
13160 11310 16602 1 149.00000 418.400000
14384 11311 18001 1 149.00000 418.400000
12219 11312 14441 1 149.00000 418.400000
13748 11313 16917 1 149.00000 418.400000
13825 11314 17236 1 149.00000 418.400000
16855 11315 17308 1 149.00000 418.400000
12190 11316 13808 1 149.00000 418.400000
16880 11317 17443 1 149.00000 418.400000
15129 11318 17734 1 149.00000 418.400000
15206 11319 15511 1 149.00000 418.400000
13010 11320 14690 1 149.00000 418.400000
14119 11321 16882 1 149.00000 418.400000
15816 11322 17404 1 149.00000 418.400000
12585 11323 17545 1 149.00000 418.400000
15074 11324 16712 1 149.00000 418.400000
14113 11325 15006 1 149.00000 418.400000
12050 11326 17917 1 149.00000 418.400000
15133 11327 16534 1 149.00000 418.400000
15453 11328 17407 1 149.00000 418.400000
12466 11329 15145 1 149.00000 418.400000
12777 11330 14200 1 149.00000 418.400000
12295 11331 17866 1 149.00000 418.400000
13614 11332 17494 1 149.00000 418.400000
13058 11333 16280 1 149.00000 418.400000
13043 11334 17623 1 149.00000 418.400000
13493 11335 16581 1 149.00000 418.400000
16916 11336 17203 1 149.00000 418.400000
13366 11337 16966 1 149.00000 418.400000
12200 11338 15394 1 149.00000 418.400000
16138 11339 17749 1 149.00000 418.400000
15893 11340 17695 1 149.00000 418.400000
13042 11341 17347 1 149.00000 418.400000
12477 11342 17245 1 149.00000 418.400000
12179 11343 17812 1 149.00000 418.400000
16147 11344 16320 1 149.00000 418.400000
11992 11345 17320 1 149.00000 418.400000
15084 11346 16452 1 149.00000 418.400000
12217 11347 17626 1 149.00000 418.400000
11694 11348 13198 1 149.00000 418.400000
15507 11349 17455 1 149.00000 418.400000
15955 11350 17239 1 149.00000 418.400000
13757 11351 17830 1 149.00000 418.400000
13152 11352 17401 1 149.00000 418.400000
14572 11353 17461 1 149.00000 418.400000
14857 11354 17857 1 149.00000 418.400000
12892 11355 15074 1 149.00000 418.400000
16399 11356 17578 1 149.00000 418.400000
15690 11357 17953 1 149.00000 418.400000
12041 11358 13769 1 149.00000 418.400000
12065 11359 14692 1 149.00000 418.400000
14240 11360 16098 1 149.00000 418.400000
15452 11361 17062 1 149.00000 418.400000
11956 11362 16549 1 149.00000 418.400000
15050 11363 17740 1 149.00000 418.400000
13673 11364 17758 1 149.00000 418.400000
11779 11365 14478 1 149.00000 418.400000
12892 11366 12994 1 149.00000 418.400000
13808 11367 17377 1 149.00000 418.400000
12065 11368 17335 1 149.00000 418.400000
11952 11369 16652 1 149.00000 418.400000
12999 11370 15003 1 149.00000 418.400000
12422 11371 13608 1 149.00000 418.400000
12105 11372 14342 1 149.00000 418.400000
15380 11373 17899 1 149.00000 418.400000
13173 11374 17111 1 149.00000 418.400000
16479 11375 17992 1 149.00000 418.400000
12610 11376 17824 1 149.00000 418.400000
15312 11377 17395 1 149.00000 418.400000
13605 11378 17791 1 149.00000 418.400000
14632 11379 17809 1 149.00000 418.400000
16344 11380 16597 1 149.00000 418.400000
15573 11381 17099 1 149.00000 418.400000
13850 11382 16386 1 149.00000 418.400000
16456 11383 17704 1 149.00000 418.400000
13306 11384 13588 1 149.00000 418.400000
15070 11385 15516 1 149.00000 418.400000
12466 11386 15467 1 149.00000 418.400000
15205 11387 17641 1 149.00000 418.400000
16834 11388 17428 1 149.00000 418.400000
12505 11389 13366 1 149.00000 418.400000
15413 11390 16651 1 149.00000 418.400000
13667 11391 14877 1 149.00000 418.400000
12919 11392 17656 1 149.00000 418.400000
14710 11393 16123 1 149.00000 418.400000
16295 11394 17806 1 149.00000 418.400000
12984 11395 16412 1 149.00000 418.400000
17004 11396 17123 1 149.00000 418.400000
12976 11397 13688 1 149.00000 418.400000
14815 11398 16045 1 149.00000 418.400000
12264 11399 14648 1 149.00000 418.400000
14045 11400 14293 1 149.00000 418.400000
15897 11401 17512 1 149.00000 418.400000
15604 11402 16506 1 149.00000 418.400000
15964 11403 17767 1 149.00000 418.400000
12533 11404 16489 1 149.00000 418.400000
13098 11405 13536 1 149.00000 418.400000
12328 11406 17848 1 149.00000 418.400000
13164 11407 14680 1 149.00000 418.400000
13935 11408 16019 1 149.00000 418.400000
17055 11409 17719 1 149.00000 418.400000
11966 11410 16277 1 149.00000 418.400000
13334 11411 14835 1 149.00000 418.400000
12010 11412 17380 1 149.00000 418.400000
15692 11413 15825 1 149.00000 418.400000
14748 11414 16915 1 149.00000 418.400000
13552 11415 13639 1 149.00000 418.400000
14453 11416 16130 1 149.00000 418.400000
12195 11417 17569 1 149.00000 418.400000
11918 11418 17599 1 149.00000 418.400000
13591 11419 17659 1 149.00000 418.400000
11719 11420 14532 1 149.00000 418.400000
15296 11421 15505 1 149.00000 418.400000
15627 11422 16924 1 149.00000 418.400000
12288 11423 16196 1 149.00000 418.400000
12976 11424 15378 1 149.00000 418.400000
15346 11425 16938 1 149.00000 418.400000
13886 11426 14458 1 149.00000 418.400000
11658 11427 13392 1 149.00000 418.400000
13209 11428 14783 1 149.00000 418.400000
14767 11429 15440 1 149.00000 418.400000
16240 11430 17151 1 149.00000 418.400000
16005 11431 16163 1 149.00000 418.400000
13012 11432 14051 1 149.00000 418.400000
13386 11433 15377 1 149.00000 418.400000
12560 11434 13454 1 149.00000 418.400000
14188 11435 16059 1 149.00000 418.400000
13404 11436 14303 1 149.00000 418.400000
11626 11437 13058 1 149.00000 418.400000
12350 11438 12415 1 149.00000 418.400000
14648 11439 14684 1 149.00000 418.400000
13173 11440 14877 1 149.00000 418.400000
14453 11441 14604 1 149.00000 418.400000
13802 11442 15332 1 149.00000 418.400000
12839 11443 14264 1 149.00000 418.400000
16147 11444 16372 1 149.00000 418.400000
11748 11445 13935 1 149.00000 418.400000
13978 11446 15070 1 149.00000 418.400000
11968 11447 16177 1 149.00000 418.400000
13055 11448 15930 1 149.00000 418.400000
12255 11449 12404 1 149.00000 418.400000
11792 11450 14249 1 149.00000 418.400000
12544 11451 16128 1 149.00000 418.400000
13397 11452 16410 1 149.00000 418.400000
14661 11453 17172 1 149.00000 418.400000
15541 11454 16057 1 149.00000 418.400000
16106 11455 16364 1 149.00000 418.400000
14883 11456 15023 1 149.00000 418.400000
12454 11457 15901 1 149.00000 418.400000
12909 11458 14128 1 149.00000 418.400000
12180 11459 14663 1 149.00000 418.400000
13124 11460 16027 1 149.00000 418.400000
13464 11461 15242 1 149.00000 418.400000
15230 11462 16563 1 149.00000 418.400000
14748 11463 16233 1 149.00000 418.400000
14893 11464 15685 1 149.00000 418.400000
12256 11465 16346 1 149.00000 418.400000
13022 11466 16397 1 149.00000 418.400000
16041 11467 16308 1 149.00000 418.400000
12396 11468 13790 1 149.00000 418.400000
12297 11469 16489 1 149.00000 418.400000
15240 11470 16457 1 149.00000 418.400000
11975 11471 13782 1 149.00000 418.400000
11716 11472 14342 1 149.00000 418.400000
15271 11473 16511 1 149.00000 418.400000
15922 11474 16539 1 149.00000 418.400000
14088 11475 15771 1 149.00000 418.400000
12874 11476 13408 1 149.00000 418.400000
14717 11477 16468 1 149.00000 418.400000
12068 11478 13932 1 149.00000 418.400000
12272 11479 16854 1 149.00000 418.400000
14410 11480 15253 1 149.00000 418.400000
15448 11481 16314 1 149.00000 418.400000
11819 11482 15918 1 149.00000 418.400000
14478 11483 15848 1 149.00000 418.400000
15679 11484 15939 1 149.00000 418.400000
15584 11485 16956 1 149.00000 418.400000
13104 11486 15109 1 149.00000 418.400000
12386 11487 15473 1 149.00000 418.400000
12298 11488 12505 1 149.00000 418.400000
13165 11489 15277 1 149.00000 418.400000
11940 11490 15759 1 149.00000 418.400000
12384 11491 16242 1 149.00000 418.400000
13416 11492 16530 1 149.00000 418.400000
11856 11493 12890 1 149.00000 418.400000
13748 11494 16534 1 149.00000 418.400000
14241 11495 16905 1 149.00000 418.400000
12337 11496 15099 1 149.00000 418.400000
11737 11497 15030 1 149.00000 418.400000
13064 11498 15502 1 149.00000 418.400000
11852 11499 15206 1 149.00000 418.400000
13164 11500 16188 1 149.00000 418.400000
15909 11501 16971 1 149.00000 418.400000
12829 11502 15252 1 149.00000 418.400000
16651 11503 16678 1 149.00000 418.400000
14756 11504 16947 1 149.00000 418.400000
12955 11505 16671 1 149.00000 418.400000
12227 11506 12974 1 149.00000 418.400000
12754 11507 13220 1 149.00000 418.400000
12584 11508 13769 1 149.00000 418.400000
12994 11509 13796 1 149.00000 418.400000
13925 11510 16791 1 149.00000 418.400000
13478 11511 14832 1 149.00000 418.400000
13611 11512 16245 1 149.00000 418.400000
14654 11513 16838 1 149.00000 418.400000
13382 11514 16987 1 149.00000 418.400000
12531 11515 15618 1 149.00000 418.400000
14689 11516 15084 1 149.00000 418.400000
12098 11517 13536 1 149.00000 418.400000
13163 11518 14148 1 149.00000 418.400000
13265 11519 15825 1 149.00000 418.400000
12063 11520 14045 1 149.00000 418.400000
16344 11521 16778 1 149.00000 418.400000
12434 11522 16822 1 149.00000 418.400000
12458 11523 16535 1 149.00000 418.400000
12999 11524 15767 1 149.00000 418.400000
12982 11525 15006 1 149.00000 418.400000
15221 11526 17145 1 149.00000 418.400000
13394 11527 15921 1 149.00000 418.400000
13540 11528 16370 1 149.00000 418.400000
13242 11529 16652 1 149.00000 418.400000
13010 11530 15595 1 149.00000 418.400000
16405 11531 16549 1 149.00000 418.400000
13198 11532 13850 1 149.00000 418.400000
16045 11533 16277 1 149.00000 418.400000
11759 11534 16311 1 149.00000 418.400000
11617 11535 14464 1 149.00000 418.400000
13296 11536 16451 1 149.00000 418.400000
14149 11537 15557 1 149.00000 418.400000
15797 11538 15895 1 149.00000 418.400000
13424 11539 17182 1 149.00000 418.400000
15510 11540 16172 1 149.00000 418.400000
12848 11541 15399 1 149.00000 418.400000
12924 11542 14347 1 149.00000 418.400000
16054 11543 16793 1 149.00000 418.400000
13678 11544 17016 1 149.00000 418.400000
11973 11545 12563 1 149.00000 418.400000
14650 11546 16288 1 149.00000 418.400000
14710 11547 16886 1 149.00000 418.400000
15467 11548 15801 1 149.00000 418.400000
16795 11549 16846 1 149.00000 418.400000
15937 11550 16218 1 149.00000 418.400000
15489 11551 16802 1 149.00000 418.400000
15289 11552 16265 1 149.00000 418.400000
14835 11553 16528 1 149.00000 418.400000
14520 11554 15472 1 149.00000 418.400000
13537 11555 16402 1 149.00000 418.400000
13060 11556 14985 1 149.00000 418.400000
13985 11557 15671 1 149.00000 418.400000
11869 11558 14054 1 149.00000 418.400000
11927 11559 13187 1 149.00000 418.400000
11640 11560 17161 1 149.00000 418.400000
13427 11561 14736 1 149.00000 418.400000
13588 11562 15765 1 149.00000 418.400000
12178 11563 14935 1 149.00000 418.400000
12219 11564 13346 1 149.00000 418.400000
12730 11565 14333 1 149.00000 418.400000
13990 11566 14803 1 149.00000 418.400000
16294 11567 16764 1 149.00000 418.400000
14325 11568 14956 1 149.00000 418.400000
13592 11569 13840 1 149.00000 418.400000
14880 11570 16518 1 149.00000 418.400000
15127 11571 15356 1 149.00000 418.400000
12873 11572 15841 1 149.00000 418.400000
13338 11573 13490 1 149.00000 418.400000
16338 11574 16882 1 149.00000 418.400000
12984 11575 16158 1 149.00000 418.400000
12200 11576 15173 1 149.00000 418.400000
13188 11577 14326 1 149.00000 418.400000
13292 11578 13493 1 149.00000 418.400000
12416 11579 13140 1 149.00000 418.400000
16108 11580 17186 1 149.00000 418.400000
13336 11581 16481 1 149.00000 418.400000
12511 11582 13639 1 149.00000 418.400000
12983 11583 16455 1 149.00000 418.400000
12038 11584 13567 1 149.00000 418.400000
11986 11585 14872 1 149.00000 418.400000
11710 11586 12734 1 149.00000 418.400000
11984 11587 12825 1 149.00000 418.400000
12051 11588 14596 1 149.00000 418.400000
15452 11589 17004 1 149.00000 418.400000
12174 11590 16186 1 149.00000 418.400000
11910 11591 15846 1 149.00000 418.400000
13994 11592 15889 1 149.00000 418.400000
13192 11593 15036 1 149.00000 418.400000
12422 11594 15659 1 149.00000 418.400000
11777 11595 13024 1 149.00000 418.400000
12638 11596 14361 1 149.00000 418.400000
15211 11597 15721 1 149.00000 418.400000
12816 11598 16071 1 149.00000 418.400000
12790 11599 14216 1 149.00000 418.400000
11669 11600 14066 1 149.00000 418.400000
13543 11601 14078 1 149.00000 418.400000
12681 11602 14660 1 149.00000 418.400000
14344 11603 15604 1 149.00000 418.400000
13160 11604 16739 1 149.00000 418.400000
12777 11605 15213 1 149.00000 418.400000
12083 11606 14662 1 149.00000 418.400000
14469 11607 17099 1 149.00000 418.400000
13088 11608 14240 1 149.00000 418.400000
13511 11609 15940 1 149.00000 418.400000
1 11610 2 1 109.50000 418.400000
1 11610 3 1 109.50000 418.400000
1 11610 4 1 109.50000 418.400000
2 11610 3 1 109.50000 418.400000
2 11610 4 1 109.50000 418.400000
3 11610 4 1 109.50000 418.400000
7 11611 8 1 109.50000 418.400000
7 11611 9 1 109.50000 418.400000
7 11611 10 1 109.50000 418.400000
8 11611 9 1 109.50000 418.400000
8 11611 10 1 109.50000 418.400000
9 11611 10 1 109.50000 418.400000
11 11612 12 1 109.50000 418.400000
11 11612 13 1 109.50000 418.400000
11 11612 11139 1 109.50000 418.400000
12 11612 13 1 109.50000 418.400000
12 11612 11139 1 109.50000 418.400000
13 11612 11139 1 109.50000 418.400000
14 11613 15 1 109.50000 418.400000
14 11613 16 1 109.50000 418.400000
14 11613 17 1 109.50000 418.400000
15 11613 16 1 109.50000 418.400000
15 11613 17 1 109.50000 418.400000
16 11613 17 1 109.50000 418.400000
19 11614 20 1 109.50000 418.400000
19 11614 21 1 109.50000 418.400000
19 11614 11236 1 109.50000 418.400000
20 11614 21 1 109.50000 418.400000
20 11614 11236 1 109.50000 418.400000
21 11614 11236 1 109.50000 418.400000
22 11615 23 1 109.50000 418.400000
22 11615 24 1 109.50000 418.400000
22 11615 25 1 109.50000 418.400000
23 11615 24 1 109.50000 418.400000
23 11615 25 1 109.50000 418.400000
24 11615 25 1 109.50000 418.400000
26 11616 27 1 109.50000 418.400000
26 11616 28 1 109.50000 418.400000
26 11616 29 1 109.50000 418.400000
27 11616 28 1 109.50000 418.400000
27 11616 29 1 109.50000 418.400000
28 11616 29 1 109.50000 418.400000
30 11617 31 1 109.50000 418.400000
30 11617 32 1 109.50000 418.400000
30 11617 11535 1 109.50000 418.400000
31 11617 32 1 109.50000 418.400000
31 11617 11535 1 109.50000 418.400000
32 11617 11535 1 109.50000 418.400000
33 11618 34 1 109.50000 418.400000
33 11618 35 1 109.50000 418.400000
33 11618 36 1 109.50000 418.400000
34 11618 35 1 109.50000 418.400000
34 11618 36 1 109.50000 418.400000
35 11618 36 1 109.50000 418.400000
37 11619 38 1 109.50000 418.400000
37 11619 39 1 109.50000 418.400000
37 11619 40 1 109.50000 418.400000
38 11619 39 1 109.50000 418.400000
38 11619 40 1 109.50000 418.400000
39 11619 40 1 109.50000 418.400000
41 11620 42 1 109.50000 418.400000
41 11620 43 1 109.50000 418.400000
41 11620 44 1 109.50000 418.400000
42 11620 43 1 109.50000 418.400000
42 11620 44 1 109.50000 418.400000
43 11620 44 1 109.50000 418.400000
45 11621 46 1 109.50000 418.400000
45 11621 47 1 109.50000 418.400000
45 11621 48 1 109.50000 418.400000
46 11621 47 1 109.50000 418.400000
46 11621 48 1 109.50000 418.400000
47 11621 48 1 109.50000 418.400000
49 11622 50 1 109.50000 418.400000
49 11622 51 1 109.50000 418.400000
49 11622 52 1 109.50000 418.400000
50 11622 51 1 109.50000 418.400000
50 11622 52 1 109.50000 418.400000
51 11622 52 1 109.50000 418.400000
53 11623 54 1 109.50000 418.400000
53 11623 55 1 109.50000 418.400000
53 11623 56 1 109.50000 418.400000
54 11623 55 1 109.50000 418.400000
54 11623 56 1 109.50000 418.400000
55 11623 56 1 109.50000 418.400000
57 11624 58 1 109.50000 418.400000
57 11624 59 1 109.50000 418.400000
57 11624 60 1 109.50000 418.400000
58 11624 59 1 109.50000 418.400000
58 11624 60 1 109.50000 418.400000
59 11624 60 1 109.50000 418.400000
61 11625 62 1 109.50000 418.400000
61 11625 63 1 109.50000 418.400000
61 11625 64 1 109.50000 418.400000
62 11625 63 1 109.50000 418.400000
62 11625 64 1 109.50000 418.400000
63 11625 64 1 109.50000 418.400000
65 11626 66 1 109.50000 418.400000
65 11626 67 1 109.50000 418.400000
65 11626 11437 1 109.50000 418.400000
66 11626 67 1 109.50000 418.400000
66 11626 11437 1 109.50000 418.400000
67 11626 11437 1 109.50000 418.400000
70 11627 71 1 109.50000 418.400000
70 11627 72 1 109.50000 418.400000
70 11627 73 1 109.50000 418.400000
71 11627 72 1 109.50000 418.400000
71 11627 73 1 109.50000 418.400000
72 11627 73 1 109.50000 418.400000
74 11628 75 1 109.50000 418.400000
74 11628 76 1 109.50000 418.400000
74 11628 77 1 109.50000 418.400000
75 11628 76 1 109.50000 418.400000
75 11628 77 1 109.50000 418.400000
76 11628 77 1 109.50000 418.400000
78 11629 79 1 109.50000 418.400000
78 11629 80 1 109.50000 418.400000
78 11629 81 1 109.50000 418.400000
79 11629 80 1 109.50000 418.400000
79 11629 81 1 109.50000 418.400000
80 11629 81 1 109.50000 418.400000
82 11630 83 1 109.50000 418.400000
82 11630 84 1 109.50000 418.400000
82 11630 85 1 109.50000 418.400000
83 11630 84 1 109.50000 418.400000
83 11630 85 1 109.50000 418.400000
84 11630 85 1 109.50000 418.400000
87 11631 88 1 109.50000 418.400000
87 11631 89 1 109.50000 418.400000
87 11631 5157 1 109.50000 418.400000
88 11631 89 1 109.50000 418.400000
88 11631 5157 1 109.50000 418.400000
89 11631 5157 1 109.50000 418.400000
90 11632 91 1 109.50000 418.400000
90 11632 92 1 109.50000 418.400000
90 11632 11198 1 109.50000 418.400000
91 11632 92 1 109.50000 418.400000
91 11632 11198 1 109.50000 418.400000
92 11632 11198 1 109.50000 418.400000
93 11633 94 1 109.50000 418.400000
93 11633 95 1 109.50000 418.400000
93 11633 96 1 109.50000 418.400000
94 11633 95 1 109.50000 418.400000
94 11633 96 1 109.50000 418.400000
95 11633 96 1 109.50000 418.400000
97 11634 98 1 109.50000 418.400000
97 11634 99 1 109.50000 418.400000
97 11634 100 1 109.50000 418.400000
98 11634 99 1 109.50000 418.400000
98 11634 100 1 109.50000 418.400000
99 11634 100 1 109.50000 418.400000
101 11635 102 1 109.50000 418.400000
101 11635 103 1 109.50000 418.400000
101 11635 104 1 109.50000 418.400000
102 11635 103 1 109.50000 418.400000
102 11635 104 1 109.50000 418.400000
103 11635 104 1 109.50000 418.400000
105 11636 106 1 109.50000 418.400000
105 11636 107 1 109.50000 418.400000
105 11636 108 1 109.50000 418.400000
106 11636 107 1 109.50000 418.400000
106 11636 108 1 109.50000 418.400000
107 11636 108 1 109.50000 418.400000
109 11637 110 1 109.50000 418.400000
109 11637 111 1 109.50000 418.400000
109 11637 112 1 109.50000 418.400000
110 11637 111 1 109.50000 418.400000
110 11637 112 1 109.50000 418.400000
111 11637 112 1 109.50000 418.400000
113 11638 114 1 109.50000 418.400000
113 11638 115 1 109.50000 418.400000
113 11638 116 1 109.50000 418.400000
114 11638 115 1 109.50000 418.400000
114 11638 116 1 109.50000 418.400000
115 11638 116 1 109.50000 418.400000
117 11639 118 1 109.50000 418.400000
117 11639 119 1 109.50000 418.400000
117 11639 120 1 109.50000 418.400000
118 11639 119 1 109.50000 418.400000
118 11639 120 1 109.50000 418.400000
119 11639 120 1 109.50000 418.400000
121 11640 122 1 109.50000 418.400000
121 11640 11295 1 109.50000 418.400000
121 11640 11560 1 109.50000 418.400000
122 11640 11295 1 109.50000 418.400000
122 11640 11560 1 109.50000 418.400000
11295 11640 11560 1 109.50000 418.400000
126 11641 127 1 109.50000 418.400000
126 11641 128 1 109.50000 418.400000
126 11641 129 1 109.50000 418.400000
127 11641 128 1 109.50000 418.400000
127 11641 129 1 109.50000 418.400000
128 11641 129 1 109.50000 418.400000
130 11642 131 1 109.50000 418.400000
130 11642 132 1 109.50000 418.400000
130 11642 133 1 109.50000 418.400000
131 11642 132 1 109.50000 418.400000
131 11642 133 1 109.50000 418.400000
132 11642 133 1 109.50000 418.400000
127 11643 134 1 109.50000 418.400000
127 11643 135 1 109.50000 418.400000
127 11643 136 1 109.50000 418.400000
134 11643 135 1 109.50000 418.400000
134 11643 136 1 109.50000 418.400000
135 11643 136 1 109.50000 418.400000
137 11644 138 1 109.50000 418.400000
137 11644 139 1 109.50000 418.400000
137 11644 11215 1 109.50000 418.400000
138 11644 139 1 109.50000 418.400000
138 11644 11215 1 109.50000 418.400000
139 11644 11215 1 109.50000 418.400000
140 11645 141 1 109.50000 418.400000
140 11645 142 1 109.50000 418.400000
140 11645 143 1 109.50000 418.400000
141 11645 142 1 109.50000 418.400000
141 11645 143 1 109.50000 418.400000
142 11645 143 1 109.50000 418.400000
144 11646 145 1 109.50000 418.400000
144 11646 146 1 109.50000 418.400000
144 11646 147 1 109.50000 418.400000
145 11646 146 1 109.50000 418.400000
145 11646 147 1 109.50000 418.400000
146 11646 147 1 109.50000 418.400000
149 11647 150 1 109.50000 418.400000
149 11647 151 1 109.50000 418.400000
149 11647 3054 1 109.50000 418.400000
150 11647 151 1 109.50000 418.400000
150 11647 3054 1 109.50000 418.400000
151 11647 3054 1 109.50000 418.400000
152 11648 153 1 109.50000 418.400000
152 11648 154 1 109.50000 418.400000
152 11648 155 1 109.50000 418.400000
153 11648 154 1 109.50000 418.400000
153 11648 155 1 109.50000 418.400000
154 11648 155 1 109.50000 418.400000
14 11649 156 1 109.50000 418.400000
14 11649 157 1 109.50000 418.400000
14 11649 158 1 109.50000 418.400000
156 11649 157 1 109.50000 418.400000
156 11649 158 1 109.50000 418.400000
157 11649 158 1 109.50000 418.400000
160 11650 161 1 109.50000 418.400000
160 11650 162 1 109.50000 418.400000
160 11650 7368 1 109.50000 418.400000
161 11650 162 1 109.50000 418.400000
161 11650 7368 1 109.50000 418.400000
162 11650 7368 1 109.50000 418.400000
163 11651 164 1 109.50000 418.400000
163 11651 165 1 109.50000 418.400000
163 11651 166 1 109.50000 418.400000
164 11651 165 1 109.50000 418.400000
164 11651 166 1 109.50000 418.400000
165 11651 166 1 109.50000 418.400000
63 11652 167 1 109.50000 418.400000
63 11652 168 1 109.50000 418.400000
63 11652 169 1 109.50000 418.400000
167 11652 168 1 109.50000 418.400000
167 11652 169 1 109.50000 418.400000
168 11652 169 1 109.50000 418.400000
170 11653 171 1 109.50000 418.400000
170 11653 172 1 109.50000 418.400000
170 11653 173 1 109.50000 418.400000
171 11653 172 1 109.50000 418.400000
171 11653 173 1 109.50000 418.400000
172 11653 173 1 109.50000 418.400000
174 11654 175 1 109.50000 418.400000
174 11654 176 1 109.50000 418.400000
174 11654 177 1 109.50000 418.400000
175 11654 176 1 109.50000 418.400000
175 11654 177 1 109.50000 418.400000
176 11654 177 1 109.50000 418.400000
180 11655 181 1 109.50000 418.400000
180 11655 182 1 109.50000 418.400000
180 11655 183 1 109.50000 418.400000
181 11655 182 1 109.50000 418.400000
181 11655 183 1 109.50000 418.400000
182 11655 183 1 109.50000 418.400000
184 11656 185 1 109.50000 418.400000
184 11656 186 1 109.50000 418.400000
184 11656 187 1 109.50000 418.400000
185 11656 186 1 109.50000 418.400000
185 11656 187 1 109.50000 418.400000
186 11656 187 1 109.50000 418.400000
188 11657 189 1 109.50000 418.400000
188 11657 190 1 109.50000 418.400000
188 11657 191 1 109.50000 418.400000
189 11657 190 1 109.50000 418.400000
189 11657 191 1 109.50000 418.400000
190 11657 191 1 109.50000 418.400000
192 11658 1858 1 109.50000 418.400000
192 11658 11302 1 109.50000 418.400000
192 11658 11427 1 109.50000 418.400000
1858 11658 11302 1 109.50000 418.400000
1858 11658 11427 1 109.50000 418.400000
11302 11658 11427 1 109.50000 418.400000
193 11659 194 1 109.50000 418.400000
193 11659 195 1 109.50000 418.400000
193 11659 196 1 109.50000 418.400000
194 11659 195 1 109.50000 418.400000
194 11659 196 1 109.50000 418.400000
195 11659 196 1 109.50000 418.400000
197 11660 198 1 109.50000 418.400000
197 11660 199 1 109.50000 418.400000
197 11660 200 1 109.50000 418.400000
198 11660 199 1 109.50000 418.400000
198 11660 200 1 109.50000 418.400000
199 11660 200 1 109.50000 418.400000
201 11661 202 1 109.50000 418.400000
201 11661 203 1 109.50000 418.400000
201 11661 8675 1 109.50000 418.400000
202 11661 203 1 109.50000 418.400000
202 11661 8675 1 109.50000 418.400000
203 11661 8675 1 109.50000 418.400000
206 11662 207 1 109.50000 418.400000
206 11662 208 1 109.50000 418.400000
206 11662 2442 1 109.50000 418.400000
207 11662 208 1 109.50000 418.400000
207 11662 2442 1 109.50000 418.400000
208 11662 2442 1 109.50000 418.400000
209 11663 210 1 109.50000 418.400000
209 11663 211 1 109.50000 418.400000
209 11663 212 1 109.50000 418.400000
210 11663 211 1 109.50000 418.400000
210 11663 212 1 109.50000 418.400000
211 11663 212 1 109.50000 418.400000
214 11664 215 1 109.50000 418.400000
214 11664 216 1 109.50000 418.400000
214 11664 1197 1 109.50000 418.400000
215 11664 216 1 109.50000 418.400000
215 11664 1197 1 109.50000 418.400000
216 11664 1197 1 109.50000 418.400000
217 11665 218 1 109.50000 418.400000
217 11665 219 1 109.50000 418.400000
217 11665 220 1 109.50000 418.400000
218 11665 219 1 109.50000 418.400000
218 11665 220 1 109.50000 418.400000
219 11665 220 1 109.50000 418.400000
224 11666 225 1 109.50000 418.400000
224 11666 226 1 109.50000 418.400000
224 11666 227 1 109.50000 418.400000
225 11666 226 1 109.50000 418.400000
225 11666 227 1 109.50000 418.400000
226 11666 227 1 109.50000 418.400000
228 11667 229 1 109.50000 418.400000
228 11667 230 1 109.50000 418.400000
228 11667 231 1 109.50000 418.400000
229 11667 230 1 109.50000 418.400000
229 11667 231 1 109.50000 418.400000
230 11667 231 1 109.50000 418.400000
237 11668 8525 1 109.50000 418.400000
237 11668 8526 1 109.50000 418.400000
237 11668 8527 1 109.50000 418.400000
8525 11668 8526 1 109.50000 418.400000
8525 11668 8527 1 109.50000 418.400000
8526 11668 8527 1 109.50000 418.400000
245 11669 9797 1 109.50000 418.400000
245 11669 11147 1 109.50000 418.400000
245 11669 11600 1 109.50000 418.400000
9797 11669 11147 1 109.50000 418.400000
9797 11669 11600 1 109.50000 418.400000
11147 11669 11600 1 109.50000 418.400000
246 11670 247 1 109.50000 418.400000
246 11670 248 1 109.50000 418.400000
246 11670 249 1 109.50000 418.400000
247 11670 248 1 109.50000 418.400000
247 11670 249 1 109.50000 418.400000
248 11670 249 1 109.50000 418.400000
251 11671 252 1 109.50000 418.400000
251 11671 253 1 109.50000 418.400000
251 11671 10275 1 109.50000 418.400000
252 11671 253 1 109.50000 418.400000
252 11671 10275 1 109.50000 418.400000
253 11671 10275 1 109.50000 418.400000
256 11672 257 1 109.50000 418.400000
256 11672 258 1 109.50000 418.400000
256 11672 259 1 109.50000 418.400000
257 11672 258 1 109.50000 418.400000
257 11672 259 1 109.50000 418.400000
258 11672 259 1 109.50000 418.400000
260 11673 261 1 109.50000 418.400000
260 11673 262 1 109.50000 418.400000
260 11673 263 1 109.50000 418.400000
261 11673 262 1 109.50000 418.400000
261 11673 263 1 109.50000 418.400000
262 11673 263 1 109.50000 418.400000
264 11674 265 1 109.50000 418.400000
264 11674 266 1 109.50000 418.400000
264 11674 267 1 109.50000 418.400000
265 11674 266 1 109.50000 418.400000
265 11674 267 1 109.50000 418.400000
266 11674 267 1 109.50000 418.400000
268 11675 269 1 109.50000 418.400000
268 11675 270 1 109.50000 418.400000
268 11675 271 1 109.50000 418.400000
269 11675 270 1 109.50000 418.400000
269 11675 271 1 109.50000 418.400000
270 11675 271 1 109.50000 418.400000
272 11676 273 1 109.50000 418.400000
272 11676 274 1 109.50000 418.400000
272 11676 11191 1 109.50000 418.400000
273 11676 274 1 109.50000 418.400000
273 11676 11191 1 109.50000 418.400000
274 11676 11191 1 109.50000 418.400000
275 11677 276 1 109.50000 418.400000
275 11677 277 1 109.50000 418.400000
275 11677 278 1 109.50000 418.400000
276 11677 277 1 109.50000 418.400000
276 11677 278 1 109.50000 418.400000
277 11677 278 1 109.50000 418.400000
279 11678 280 1 109.50000 418.400000
279 11678 281 1 109.50000 418.400000
279 11678 282 1 109.50000 418.400000
280 11678 281 1 109.50000 418.400000
280 11678 282 1 109.50000 418.400000
281 11678 282 1 109.50000 418.400000
286 11679 287 1 109.50000 418.400000
286 11679 288 1 109.50000 418.400000
286 11679 289 1 109.50000 418.400000
287 11679 288 1 109.50000 418.400000
287 11679 289 1 109.50000 418.400000
288 11679 289 1 109.50000 418.400000
290 11680 291 1 109.50000 418.400000
290 11680 292 1 109.50000 418.400000
290 11680 1212 1 109.50000 418.400000
291 11680 292 1 109.50000 418.400000
291 11680 1212 1 109.50000 418.400000
292 11680 1212 1 109.50000 418.400000
294 11681 295 1 109.50000 418.400000
294 11681 296 1 109.50000 418.400000
294 11681 9847 1 109.50000 418.400000
295 11681 296 1 109.50000 418.400000
295 11681 9847 1 109.50000 418.400000
296 11681 9847 1 109.50000 418.400000
298 11682 299 1 109.50000 418.400000
298 11682 300 1 109.50000 418.400000
298 11682 301 1 109.50000 418.400000
299 11682 300 1 109.50000 418.400000
299 11682 301 1 109.50000 418.400000
300 11682 301 1 109.50000 418.400000
302 11683 303 1 109.50000 418.400000
302 11683 304 1 109.50000 418.400000
302 11683 305 1 109.50000 418.400000
303 11683 304 1 109.50000 418.400000
303 11683 305 1 109.50000 418.400000
304 11683 305 1 109.50000 418.400000
306 11684 307 1 109.50000 418.400000
306 11684 308 1 109.50000 418.400000
306 11684 309 1 109.50000 418.400000
307 11684 308 1 109.50000 418.400000
307 11684 309 1 109.50000 418.400000
308 11684 309 1 109.50000 418.400000
310 11685 311 1 109.50000 418.400000
310 11685 312 1 109.50000 418.400000
310 11685 313 1 109.50000 418.400000
311 11685 312 1 109.50000 418.400000
311 11685 313 1 109.50000 418.400000
312 11685 313 1 109.50000 418.400000
316 11686 317 1 109.50000 418.400000
316 11686 318 1 109.50000 418.400000
316 11686 319 1 109.50000 418.400000
317 11686 318 1 109.50000 418.400000
317 11686 319 1 109.50000 418.400000
318 11686 319 1 109.50000 418.400000
289 11687 321 1 109.50000 418.400000
289 11687 322 1 109.50000 418.400000
289 11687 323 1 109.50000 418.400000
321 11687 322 1 109.50000 418.400000
321 11687 323 1 109.50000 418.400000
322 11687 323 1 109.50000 418.400000
324 11688 325 1 109.50000 418.400000
324 11688 326 1 109.50000 418.400000
324 11688 327 1 109.50000 418.400000
325 11688 326 1 109.50000 418.400000
325 11688 327 1 109.50000 418.400000
326 11688 327 1 109.50000 418.400000
328 11689 329 1 109.50000 418.400000
328 11689 330 1 109.50000 418.400000
328 11689 331 1 109.50000 418.400000
329 11689 330 1 109.50000 418.400000
329 11689 331 1 109.50000 418.400000
330 11689 331 1 109.50000 418.400000
332 11690 333 1 109.50000 418.400000
332 11690 334 1 109.50000 418.400000
332 11690 335 1 109.50000 418.400000
333 11690 334 1 109.50000 418.400000
333 11690 335 1 109.50000 418.400000
334 11690 335 1 109.50000 418.400000
338 11691 770 1 109.50000 418.400000
338 11691 5300 1 109.50000 418.400000
338 11691 5799 1 109.50000 418.400000
770 11691 5300 1 109.50000 418.400000
770 11691 5799 1 109.50000 418.400000
5300 11691 5799 1 109.50000 418.400000
340 11692 341 1 109.50000 418.400000
340 11692 342 1 109.50000 418.400000
340 11692 343 1 109.50000 418.400000
341 11692 342 1 109.50000 418.400000
341 11692 343 1 109.50000 418.400000
342 11692 343 1 109.50000 418.400000
344 11693 345 1 109.50000 418.400000
344 11693 346 1 109.50000 418.400000
344 11693 347 1 109.50000 418.400000
345 11693 346 1 109.50000 418.400000
345 11693 347 1 109.50000 418.400000
346 11693 347 1 109.50000 418.400000
350 11694 351 1 109.50000 418.400000
350 11694 6650 1 109.50000 418.400000
350 11694 11348 1 109.50000 418.400000
351 11694 6650 1 109.50000 418.400000
351 11694 11348 1 109.50000 418.400000
6650 11694 11348 1 109.50000 418.400000
352 11695 353 1 109.50000 418.400000
352 11695 354 1 109.50000 418.400000
352 11695 355 1 109.50000 418.400000
353 11695 354 1 109.50000 418.400000
353 11695 355 1 109.50000 418.400000
354 11695 355 1 109.50000 418.400000
356 11696 357 1 109.50000 418.400000
356 11696 358 1 109.50000 418.400000
356 11696 359 1 109.50000 418.400000
357 11696 358 1 109.50000 418.400000
357 11696 359 1 109.50000 418.400000
358 11696 359 1 109.50000 418.400000
360 11697 361 1 109.50000 418.400000
360 11697 362 1 109.50000 418.400000
360 11697 363 1 109.50000 418.400000
361 11697 362 1 109.50000 418.400000
361 11697 363 1 109.50000 418.400000
362 11697 363 1 109.50000 418.400000
364 11698 365 1 109.50000 418.400000
364 11698 366 1 109.50000 418.400000
364 11698 367 1 109.50000 418.400000
365 11698 366 1 109.50000 418.400000
365 11698 367 1 109.50000 418.400000
366 11698 367 1 109.50000 418.400000
372 11699 374 1 109.50000 418.400000
372 11699 2432 1 109.50000 418.400000
372 11699 6266 1 109.50000 418.400000
374 11699 2432 1 109.50000 418.400000
374 11699 6266 1 109.50000 418.400000
2432 11699 6266 1 109.50000 418.400000
377 11700 378 1 109.50000 418.400000
377 11700 1946 1 109.50000 418.400000
377 11700 1948 1 109.50000 418.400000
378 11700 1946 1 109.50000 418.400000
378 11700 1948 1 109.50000 418.400000
1946 11700 1948 1 109.50000 418.400000
379 11701 380 1 109.50000 418.400000
379 11701 381 1 109.50000 418.400000
379 11701 382 1 109.50000 418.400000
380 11701 381 1 109.50000 418.400000
380 11701 382 1 109.50000 418.400000
381 11701 382 1 109.50000 418.400000
383 11702 384 1 109.50000 418.400000
383 11702 385 1 109.50000 418.400000
383 11702 386 1 109.50000 418.400000
384 11702 385 1 109.50000 418.400000
384 11702 386 1 109.50000 418.400000
385 11702 386 1 109.50000 418.400000
387 11703 388 1 109.50000 418.400000
387 11703 389 1 109.50000 418.400000
387 11703 390 1 109.50000 418.400000
388 11703 389 1 109.50000 418.400000
388 11703 390 1 109.50000 418.400000
389 11703 390 1 109.50000 418.400000
391 11704 392 1 109.50000 418.400000
391 11704 393 1 109.50000 418.400000
391 11704 394 1 109.50000 418.400000
392 11704 393 1 109.50000 418.400000
392 11704 394 1 109.50000 418.400000
393 11704 394 1 109.50000 418.400000
397 11705 399 1 109.50000 418.400000
397 11705 400 1 109.50000 418.400000
397 11705 4444 1 109.50000 418.400000
399 11705 400 1 109.50000 418.400000
399 11705 4444 1 109.50000 418.400000
400 11705 4444 1 109.50000 418.400000
401 11706 402 1 109.50000 418.400000
401 11706 403 1 109.50000 418.400000
401 11706 404 1 109.50000 418.400000
402 11706 403 1 109.50000 418.400000
402 11706 404 1 109.50000 418.400000
403 11706 404 1 109.50000 418.400000
405 11707 406 1 109.50000 418.400000
405 11707 408 1 109.50000 418.400000
405 11707 8729 1 109.50000 418.400000
406 11707 408 1 109.50000 418.400000
406 11707 8729 1 109.50000 418.400000
408 11707 8729 1 109.50000 418.400000
409 11708 410 1 109.50000 418.400000
409 11708 411 1 109.50000 418.400000
409 11708 412 1 109.50000 418.400000
410 11708 411 1 109.50000 418.400000
410 11708 412 1 109.50000 418.400000
411 11708 412 1 109.50000 418.400000
413 11709 414 1 109.50000 418.400000
413 11709 415 1 109.50000 418.400000
413 11709 416 1 109.50000 418.400000
414 11709 415 1 109.50000 418.400000
414 11709 416 1 109.50000 418.400000
415 11709 416 1 109.50000 418.400000
417 11710 418 1 109.50000 418.400000
417 11710 419 1 109.50000 418.400000
417 11710 11586 1 109.50000 418.400000
418 11710 419 1 109.50000 418.400000
418 11710 11586 1 109.50000 418.400000
419 11710 11586 1 109.50000 418.400000
420 11711 421 1 109.50000 418.400000
420 11711 422 1 109.50000 418.400000
420 11711 423 1 109.50000 418.400000
421 11711 422 1 109.50000 418.400000
421 11711 423 1 109.50000 418.400000
422 11711 423 1 109.50000 418.400000
271 11712 424 1 109.50000 418.400000
271 11712 425 1 109.50000 418.400000
271 11712 426 1 109.50000 418.400000
424 11712 425 1 109.50000 418.400000
424 11712 426 1 109.50000 418.400000
425 11712 426 1 109.50000 418.400000
427 11713 428 1 109.50000 418.400000
427 11713 429 1 109.50000 418.400000
427 11713 430 1 109.50000 418.400000
428 11713 429 1 109.50000 418.400000
428 11713 430 1 109.50000 418.400000
429 11713 430 1 109.50000 418.400000
431 11714 432 1 109.50000 418.400000
431 11714 433 1 109.50000 418.400000
431 11714 434 1 109.50000 418.400000
432 11714 433 1 109.50000 418.400000
432 11714 434 1 109.50000 418.400000
433 11714 434 1 109.50000 418.400000
436 11715 437 1 109.50000 418.400000
436 11715 438 1 109.50000 418.400000
436 11715 2817 1 109.50000 418.400000
437 11715 438 1 109.50000 418.400000
437 11715 2817 1 109.50000 418.400000
438 11715 2817 1 109.50000 418.400000
439 11716 440 1 109.50000 418.400000
439 11716 11259 1 109.50000 418.400000
439 11716 11472 1 109.50000 418.400000
440 11716 11259 1 109.50000 418.400000
440 11716 11472 1 109.50000 418.400000
11259 11716 11472 1 109.50000 418.400000
441 11717 442 1 109.50000 418.400000
441 11717 443 1 109.50000 418.400000
441 11717 444 1 109.50000 418.400000
442 11717 443 1 109.50000 418.400000
442 11717 444 1 109.50000 418.400000
443 11717 444 1 109.50000 418.400000
445 11718 446 1 109.50000 418.400000
445 11718 447 1 109.50000 418.400000
445 11718 448 1 109.50000 418.400000
446 11718 447 1 109.50000 418.400000
446 11718 448 1 109.50000 418.400000
447 11718 448 1 109.50000 418.400000
449 11719 450 1 109.50000 418.400000
449 11719 11240 1 109.50000 418.400000
449 11719 11420 1 109.50000 418.400000
450 11719 11240 1 109.50000 418.400000
450 11719 11420 1 109.50000 418.400000
11240 11719 11420 1 109.50000 418.400000
451 11720 452 1 109.50000 418.400000
451 11720 453 1 109.50000 418.400000
451 11720 454 1 109.50000 418.400000
452 11720 453 1 109.50000 418.400000
452 11720 454 1 109.50000 418.400000
453 11720 454 1 109.50000 418.400000
455 11721 456 1 109.50000 418.400000
455 11721 457 1 109.50000 418.400000
455 11721 458 1 109.50000 418.400000
456 11721 457 1 109.50000 418.400000
456 11721 458 1 109.50000 418.400000
457 11721 458 1 109.50000 418.400000
461 11722 462 1 109.50000 418.400000
461 11722 463 1 109.50000 418.400000
461 11722 464 1 109.50000 418.400000
462 11722 463 1 109.50000 418.400000
462 11722 464 1 109.50000 418.400000
463 11722 464 1 109.50000 418.400000
465 11723 466 1 109.50000 418.400000
465 11723 467 1 109.50000 418.400000
465 11723 468 1 109.50000 418.400000
466 11723 467 1 109.50000 418.400000
466 11723 468 1 109.50000 418.400000
467 11723 468 1 109.50000 418.400000
469 11724 470 1 109.50000 418.400000
469 11724 471 1 109.50000 418.400000
469 11724 472 1 109.50000 418.400000
470 11724 471 1 109.50000 418.400000
470 11724 472 1 109.50000 418.400000
471 11724 472 1 109.50000 418.400000
473 11725 474 1 109.50000 418.400000
473 11725 11197 1 109.50000 418.400000
473 11725 11263 1 109.50000 418.400000
474 11725 11197 1 109.50000 418.400000
474 11725 11263 1 109.50000 418.400000
11197 11725 11263 1 109.50000 418.400000
475 11726 476 1 109.50000 418.400000
475 11726 477 1 109.50000 418.400000
475 11726 478 1 109.50000 418.400000
476 11726 477 1 109.50000 418.400000
476 11726 478 1 109.50000 418.400000
477 11726 478 1 109.50000 418.400000
479 11727 482 1 109.50000 418.400000
479 11727 4167 1 109.50000 418.400000
479 11727 4168 1 109.50000 418.400000
482 11727 4167 1 109.50000 418.400000
482 11727 4168 1 109.50000 418.400000
4167 11727 4168 1 109.50000 418.400000
483 11728 484 1 109.50000 418.400000
483 11728 485 1 109.50000 418.400000
483 11728 486 1 109.50000 418.400000
484 11728 485 1 109.50000 418.400000
484 11728 486 1 109.50000 418.400000
485 11728 486 1 109.50000 418.400000
487 11729 488 1 109.50000 418.400000
487 11729 489 1 109.50000 418.400000
487 11729 490 1 109.50000 418.400000
488 11729 489 1 109.50000 418.400000
488 11729 490 1 109.50000 418.400000
489 11729 490 1 109.50000 418.400000
491 11730 492 1 109.50000 418.400000
491 11730 493 1 109.50000 418.400000
491 11730 494 1 109.50000 418.400000
492 11730 493 1 109.50000 418.400000
492 11730 494 1 109.50000 418.400000
493 11730 494 1 109.50000 418.400000
496 11731 497 1 109.50000 418.400000
496 11731 498 1 109.50000 418.400000
496 11731 7669 1 109.50000 418.400000
497 11731 498 1 109.50000 418.400000
497 11731 7669 1 109.50000 418.400000
498 11731 7669 1 109.50000 418.400000
500 11732 501 1 109.50000 418.400000
500 11732 502 1 109.50000 418.400000
500 11732 503 1 109.50000 418.400000
501 11732 502 1 109.50000 418.400000
501 11732 503 1 109.50000 418.400000
502 11732 503 1 109.50000 418.400000
504 11733 505 1 109.50000 418.400000
504 11733 506 1 109.50000 418.400000
504 11733 507 1 109.50000 418.400000
505 11733 506 1 109.50000 418.400000
505 11733 507 1 109.50000 418.400000
506 11733 507 1 109.50000 418.400000
508 11734 509 1 109.50000 418.400000
508 11734 510 1 109.50000 418.400000
508 11734 511 1 109.50000 418.400000
509 11734 510 1 109.50000 418.400000
509 11734 511 1 109.50000 418.400000
510 11734 511 1 109.50000 418.400000
123 11735 512 1 109.50000 418.400000
123 11735 513 1 109.50000 418.400000
123 11735 514 1 109.50000 418.400000
512 11735 513 1 109.50000 418.400000
512 11735 514 1 109.50000 418.400000
513 11735 514 1 109.50000 418.400000
515 11736 516 1 109.50000 418.400000
515 11736 517 1 109.50000 418.400000
515 11736 11304 1 109.50000 418.400000
516 11736 517 1 109.50000 418.400000
516 11736 11304 1 109.50000 418.400000
517 11736 11304 1 109.50000 418.400000
518 11737 519 1 109.50000 418.400000
518 11737 520 1 109.50000 418.400000
518 11737 11497 1 109.50000 418.400000
519 11737 520 1 109.50000 418.400000
519 11737 11497 1 109.50000 418.400000
520 11737 11497 1 109.50000 418.400000
521 11738 522 1 109.50000 418.400000
521 11738 524 1 109.50000 418.400000
521 11738 4624 1 109.50000 418.400000
522 11738 524 1 109.50000 418.400000
522 11738 4624 1 109.50000 418.400000
524 11738 4624 1 109.50000 418.400000
525 11739 526 1 109.50000 418.400000
525 11739 527 1 109.50000 418.400000
525 11739 528 1 109.50000 418.400000
526 11739 527 1 109.50000 418.400000
526 11739 528 1 109.50000 418.400000
527 11739 528 1 109.50000 418.400000
529 11740 530 1 109.50000 418.400000
529 11740 531 1 109.50000 418.400000
529 11740 532 1 109.50000 418.400000
530 11740 531 1 109.50000 418.400000
530 11740 532 1 109.50000 418.400000
531 11740 532 1 109.50000 418.400000
503 11741 533 1 109.50000 418.400000
503 11741 534 1 109.50000 418.400000
503 11741 535 1 109.50000 418.400000
533 11741 534 1 109.50000 418.400000
533 11741 535 1 109.50000 418.400000
534 11741 535 1 109.50000 418.400000
5 11742 536 1 109.50000 418.400000
5 11742 537 1 109.50000 418.400000
5 11742 538 1 109.50000 418.400000
536 11742 537 1 109.50000 418.400000
536 11742 538 1 109.50000 418.400000
537 11742 538 1 109.50000 418.400000
539 11743 540 1 109.50000 418.400000
539 11743 541 1 109.50000 418.400000
539 11743 542 1 109.50000 418.400000
540 11743 541 1 109.50000 418.400000
540 11743 542 1 109.50000 418.400000
541 11743 542 1 109.50000 418.400000
545 11744 1597 1 109.50000 418.400000
545 11744 4639 1 109.50000 418.400000
545 11744 4640 1 109.50000 418.400000
1597 11744 4639 1 109.50000 418.400000
1597 11744 4640 1 109.50000 418.400000
4639 11744 4640 1 109.50000 418.400000
249 11745 426 1 109.50000 418.400000
249 11745 546 1 109.50000 418.400000
249 11745 547 1 109.50000 418.400000
426 11745 546 1 109.50000 418.400000
426 11745 547 1 109.50000 418.400000
546 11745 547 1 109.50000 418.400000
548 11746 549 1 109.50000 418.400000
548 11746 550 1 109.50000 418.400000
548 11746 551 1 109.50000 418.400000
549 11746 550 1 109.50000 418.400000
549 11746 551 1 109.50000 418.400000
550 11746 551 1 109.50000 418.400000
552 11747 553 1 109.50000 418.400000
552 11747 554 1 109.50000 418.400000
552 11747 1131 1 109.50000 418.400000
553 11747 554 1 109.50000 418.400000
553 11747 1131 1 109.50000 418.400000
554 11747 1131 1 109.50000 418.400000
556 11748 557 1 109.50000 418.400000
556 11748 558 1 109.50000 418.400000
556 11748 11445 1 109.50000 418.400000
557 11748 558 1 109.50000 418.400000
557 11748 11445 1 109.50000 418.400000
558 11748 11445 1 109.50000 418.400000
559 11749 560 1 109.50000 418.400000
559 11749 561 1 109.50000 418.400000
559 11749 11254 1 109.50000 418.400000
560 11749 561 1 109.50000 418.400000
560 11749 11254 1 109.50000 418.400000
561 11749 11254 1 109.50000 418.400000
562 11750 563 1 109.50000 418.400000
562 11750 564 1 109.50000 418.400000
562 11750 565 1 109.50000 418.400000
563 11750 564 1 109.50000 418.400000
563 11750 565 1 109.50000 418.400000
564 11750 565 1 109.50000 418.400000
566 11751 567 1 109.50000 418.400000
566 11751 568 1 109.50000 418.400000
566 11751 569 1 109.50000 418.400000
567 11751 568 1 109.50000 418.400000
567 11751 569 1 109.50000 418.400000
568 11751 569 1 109.50000 418.400000
570 11752 571 1 109.50000 418.400000
570 11752 572 1 109.50000 418.400000
570 11752 573 1 109.50000 418.400000
571 11752 572 1 109.50000 418.400000
571 11752 573 1 109.50000 418.400000
572 11752 573 1 109.50000 418.400000
574 11753 575 1 109.50000 418.400000
574 11753 576 1 109.50000 418.400000
574 11753 577 1 109.50000 418.400000
575 11753 576 1 109.50000 418.400000
575 11753 577 1 109.50000 418.400000
576 11753 577 1 109.50000 418.400000
347 11754 580 1 109.50000 418.400000
347 11754 581 1 109.50000 418.400000
347 11754 582 1 109.50000 418.400000
580 11754 581 1 109.50000 418.400000
580 11754 582 1 109.50000 418.400000
581 11754 582 1 109.50000 418.400000
585 11755 586 1 109.50000 418.400000
585 11755 587 1 109.50000 418.400000
585 11755 588 1 109.50000 418.400000
586 11755 587 1 109.50000 418.400000
586 11755 588 1 109.50000 418.400000
587 11755 588 1 109.50000 418.400000
589 11756 590 1 109.50000 418.400000
589 11756 591 1 109.50000 418.400000
589 11756 592 1 109.50000 418.400000
590 11756 591 1 109.50000 418.400000
590 11756 592 1 109.50000 418.400000
591 11756 592 1 109.50000 418.400000
593 11757 594 1 109.50000 418.400000
593 11757 595 1 109.50000 418.400000
593 11757 596 1 109.50000 418.400000
594 11757 595 1 109.50000 418.400000
594 11757 596 1 109.50000 418.400000
595 11757 596 1 109.50000 418.400000
597 11758 598 1 109.50000 418.400000
597 11758 599 1 109.50000 418.400000
597 11758 600 1 109.50000 418.400000
598 11758 599 1 109.50000 418.400000
598 11758 600 1 109.50000 418.400000
599 11758 600 1 109.50000 418.400000
601 11759 602 1 109.50000 418.400000
601 11759 603 1 109.50000 418.400000
601 11759 11534 1 109.50000 418.400000
602 11759 603 1 109.50000 418.400000
602 11759 11534 1 109.50000 418.400000
603 11759 11534 1 109.50000 418.400000
604 11760 605 1 109.50000 418.400000
604 11760 606 1 109.50000 418.400000
604 11760 607 1 109.50000 418.400000
605 11760 606 1 109.50000 418.400000
605 11760 607 1 109.50000 418.400000
606 11760 607 1 109.50000 418.400000
606 11761 608 1 109.50000 418.400000
606 11761 609 1 109.50000 418.400000
606 11761 610 1 109.50000 418.400000
608 11761 609 1 109.50000 418.400000
608 11761 610 1 109.50000 418.400000
609 11761 610 1 109.50000 418.400000
611 11762 612 1 109.50000 418.400000
611 11762 613 1 109.50000 418.400000
611 11762 614 1 109.50000 418.400000
612 11762 613 1 109.50000 418.400000
612 11762 614 1 109.50000 418.400000
613 11762 614 1 109.50000 418.400000
615 11763 616 1 109.50000 418.400000
615 11763 617 1 109.50000 418.400000
615 11763 618 1 109.50000 418.400000
616 11763 617 1 109.50000 418.400000
616 11763 618 1 109.50000 418.400000
617 11763 618 1 109.50000 418.400000
622 11764 623 1 109.50000 418.400000
622 11764 624 1 109.50000 418.400000
622 11764 625 1 109.50000 418.400000
623 11764 624 1 109.50000 418.400000
623 11764 625 1 109.50000 418.400000
624 11764 625 1 109.50000 418.400000
375 11765 626 1 109.50000 418.400000
375 11765 627 1 109.50000 418.400000
375 11765 628 1 109.50000 418.400000
626 11765 627 1 109.50000 418.400000
626 11765 628 1 109.50000 418.400000
627 11765 628 1 109.50000 418.400000
292 11766 629 1 109.50000 418.400000
292 11766 630 1 109.50000 418.400000
292 11766 631 1 109.50000 418.400000
629 11766 630 1 109.50000 418.400000
629 11766 631 1 109.50000 418.400000
630 11766 631 1 109.50000 418.400000
632 11767 633 1 109.50000 418.400000
632 11767 634 1 109.50000 418.400000
632 11767 635 1 109.50000 418.400000
633 11767 634 1 109.50000 418.400000
633 11767 635 1 109.50000 418.400000
634 11767 635 1 109.50000 418.400000
636 11768 637 1 109.50000 418.400000
636 11768 638 1 109.50000 418.400000
636 11768 639 1 109.50000 418.400000
637 11768 638 1 109.50000 418.400000
637 11768 639 1 109.50000 418.400000
638 11768 639 1 109.50000 418.400000
640 11769 641 1 109.50000 418.400000
640 11769 642 1 109.50000 418.400000
640 11769 643 1 109.50000 418.400000
641 11769 642 1 109.50000 418.400000
641 11769 643 1 109.50000 418.400000
642 11769 643 1 109.50000 418.400000
445 11770 644 1 109.50000 418.400000
445 11770 645 1 109.50000 418.400000
445 11770 646 1 109.50000 418.400000
644 11770 645 1 109.50000 418.400000
644 11770 646 1 109.50000 418.400000
645 11770 646 1 109.50000 418.400000
647 11771 648 1 109.50000 418.400000
647 11771 649 1 109.50000 418.400000
647 11771 650 1 109.50000 418.400000
648 11771 649 1 109.50000 418.400000
648 11771 650 1 109.50000 418.400000
649 11771 650 1 109.50000 418.400000
651 11772 652 1 109.50000 418.400000
651 11772 653 1 109.50000 418.400000
651 11772 654 1 109.50000 418.400000
652 11772 653 1 109.50000 418.400000
652 11772 654 1 109.50000 418.400000
653 11772 654 1 109.50000 418.400000
388 11773 629 1 109.50000 418.400000
388 11773 655 1 109.50000 418.400000
388 11773 656 1 109.50000 418.400000
629 11773 655 1 109.50000 418.400000
629 11773 656 1 109.50000 418.400000
655 11773 656 1 109.50000 418.400000
657 11774 658 1 109.50000 418.400000
657 11774 659 1 109.50000 418.400000
657 11774 4295 1 109.50000 418.400000
658 11774 659 1 109.50000 418.400000
658 11774 4295 1 109.50000 418.400000
659 11774 4295 1 109.50000 418.400000
661 11775 662 1 109.50000 418.400000
661 11775 664 1 109.50000 418.400000
661 11775 6555 1 109.50000 418.400000
662 11775 664 1 109.50000 418.400000
662 11775 6555 1 109.50000 418.400000
664 11775 6555 1 109.50000 418.400000
665 11776 667 1 109.50000 418.400000
665 11776 668 1 109.50000 418.400000
665 11776 3695 1 109.50000 418.400000
667 11776 668 1 109.50000 418.400000
667 11776 3695 1 109.50000 418.400000
668 11776 3695 1 109.50000 418.400000
669 11777 670 1 109.50000 418.400000
669 11777 10239 1 109.50000 418.400000
669 11777 11595 1 109.50000 418.400000
670 11777 10239 1 109.50000 418.400000
670 11777 11595 1 109.50000 418.400000
10239 11777 11595 1 109.50000 418.400000
671 11778 672 1 109.50000 418.400000
671 11778 674 1 109.50000 418.400000
671 11778 8622 1 109.50000 418.400000
672 11778 674 1 109.50000 418.400000
672 11778 8622 1 109.50000 418.400000
674 11778 8622 1 109.50000 418.400000
675 11779 676 1 109.50000 418.400000
675 11779 677 1 109.50000 418.400000
675 11779 11365 1 109.50000 418.400000
676 11779 677 1 109.50000 418.400000
676 11779 11365 1 109.50000 418.400000
677 11779 11365 1 109.50000 418.400000
678 11780 679 1 109.50000 418.400000
678 11780 680 1 109.50000 418.400000
678 11780 850 1 109.50000 418.400000
679 11780 680 1 109.50000 418.400000
679 11780 850 1 109.50000 418.400000
680 11780 850 1 109.50000 418.400000
682 11781 684 1 109.50000 418.400000
682 11781 685 1 109.50000 418.400000
682 11781 760 1 109.50000 418.400000
684 11781 685 1 109.50000 418.400000
684 11781 760 1 109.50000 418.400000
685 11781 760 1 109.50000 418.400000
686 11782 687 1 109.50000 418.400000
686 11782 688 1 109.50000 418.400000
686 11782 689 1 109.50000 418.400000
687 11782 688 1 109.50000 418.400000
687 11782 689 1 109.50000 418.400000
688 11782 689 1 109.50000 418.400000
401 11783 690 1 109.50000 418.400000
401 11783 692 1 109.50000 418.400000
401 11783 1749 1 109.50000 418.400000
690 11783 692 1 109.50000 418.400000
690 11783 1749 1 109.50000 418.400000
692 11783 1749 1 109.50000 418.400000
693 11784 694 1 109.50000 418.400000
693 11784 695 1 109.50000 418.400000
693 11784 696 1 109.50000 418.400000
694 11784 695 1 109.50000 418.400000
694 11784 696 1 109.50000 418.400000
695 11784 696 1 109.50000 418.400000
697 11785 698 1 109.50000 418.400000
697 11785 699 1 109.50000 418.400000
697 11785 700 1 109.50000 418.400000
698 11785 699 1 109.50000 418.400000
698 11785 700 1 109.50000 418.400000
699 11785 700 1 109.50000 418.400000
176 11786 701 1 109.50000 418.400000
176 11786 702 1 109.50000 418.400000
176 11786 703 1 109.50000 418.400000
701 11786 702 1 109.50000 418.400000
701 11786 703 1 109.50000 418.400000
702 11786 703 1 109.50000 418.400000
704 11787 705 1 109.50000 418.400000
704 11787 706 1 109.50000 418.400000
704 11787 707 1 109.50000 418.400000
705 11787 706 1 109.50000 418.400000
705 11787 707 1 109.50000 418.400000
706 11787 707 1 109.50000 418.400000
708 11788 709 1 109.50000 418.400000
708 11788 710 1 109.50000 418.400000
708 11788 711 1 109.50000 418.400000
709 11788 710 1 109.50000 418.400000
709 11788 711 1 109.50000 418.400000
710 11788 711 1 109.50000 418.400000
712 11789 713 1 109.50000 418.400000
712 11789 714 1 109.50000 418.400000
712 11789 7002 1 109.50000 418.400000
713 11789 714 1 109.50000 418.400000
713 11789 7002 1 109.50000 418.400000
714 11789 7002 1 109.50000 418.400000
717 11790 718 1 109.50000 418.400000
717 11790 3464 1 109.50000 418.400000
717 11790 7773 1 109.50000 418.400000
718 11790 3464 1 109.50000 418.400000
718 11790 7773 1 109.50000 418.400000
3464 11790 7773 1 109.50000 418.400000
719 11791 720 1 109.50000 418.400000
719 11791 721 1 109.50000 418.400000
719 11791 11258 1 109.50000 418.400000
720 11791 721 1 109.50000 418.400000
720 11791 11258 1 109.50000 418.400000
721 11791 11258 1 109.50000 418.400000
722 11792 8412 1 109.50000 418.400000
722 11792 11278 1 109.50000 418.400000
722 11792 11450 1 109.50000 418.400000
8412 11792 11278 1 109.50000 418.400000
8412 11792 11450 1 109.50000 418.400000
11278 11792 11450 1 109.50000 418.400000
725 11793 726 1 109.50000 418.400000
725 11793 727 1 109.50000 418.400000
725 11793 728 1 109.50000 418.400000
726 11793 727 1 109.50000 418.400000
726 11793 728 1 109.50000 418.400000
727 11793 728 1 109.50000 418.400000
729 11794 730 1 109.50000 418.400000
729 11794 731 1 109.50000 418.400000
729 11794 732 1 109.50000 418.400000
730 11794 731 1 109.50000 418.400000
730 11794 732 1 109.50000 418.400000
731 11794 732 1 109.50000 418.400000
733 11795 734 1 109.50000 418.400000
733 11795 735 1 109.50000 418.400000
733 11795 736 1 109.50000 418.400000
734 11795 735 1 109.50000 418.400000
734 11795 736 1 109.50000 418.400000
735 11795 736 1 109.50000 418.400000
737 11796 738 1 109.50000 418.400000
737 11796 739 1 109.50000 418.400000
737 11796 740 1 109.50000 418.400000
738 11796 739 1 109.50000 418.400000
738 11796 740 1 109.50000 418.400000
739 11796 740 1 109.50000 418.400000
741 11797 742 1 109.50000 418.400000
741 11797 743 1 109.50000 418.400000
741 11797 744 1 109.50000 418.400000
742 11797 743 1 109.50000 418.400000
742 11797 744 1 109.50000 418.400000
743 11797 744 1 109.50000 418.400000
745 11798 746 1 109.50000 418.400000
745 11798 747 1 109.50000 418.400000
745 11798 748 1 109.50000 418.400000
746 11798 747 1 109.50000 418.400000
746 11798 748 1 109.50000 418.400000
747 11798 748 1 109.50000 418.400000
749 11799 750 1 109.50000 418.400000
749 11799 751 1 109.50000 418.400000
749 11799 752 1 109.50000 418.400000
750 11799 751 1 109.50000 418.400000
750 11799 752 1 109.50000 418.400000
751 11799 752 1 109.50000 418.400000
753 11800 754 1 109.50000 418.400000
753 11800 755 1 109.50000 418.400000
753 11800 756 1 109.50000 418.400000
754 11800 755 1 109.50000 418.400000
754 11800 756 1 109.50000 418.400000
755 11800 756 1 109.50000 418.400000
757 11801 758 1 109.50000 418.400000
757 11801 759 1 109.50000 418.400000
757 11801 760 1 109.50000 418.400000
758 11801 759 1 109.50000 418.400000
758 11801 760 1 109.50000 418.400000
759 11801 760 1 109.50000 418.400000
761 11802 762 1 109.50000 418.400000
761 11802 763 1 109.50000 418.400000
761 11802 764 1 109.50000 418.400000
762 11802 763 1 109.50000 418.400000
762 11802 764 1 109.50000 418.400000
763 11802 764 1 109.50000 418.400000
765 11803 766 1 109.50000 418.400000
765 11803 767 1 109.50000 418.400000
765 11803 768 1 109.50000 418.400000
766 11803 767 1 109.50000 418.400000
766 11803 768 1 109.50000 418.400000
767 11803 768 1 109.50000 418.400000
769 11804 770 1 109.50000 418.400000
769 11804 771 1 109.50000 418.400000
769 11804 772 1 109.50000 418.400000
770 11804 771 1 109.50000 418.400000
770 11804 772 1 109.50000 418.400000
771 11804 772 1 109.50000 418.400000
65 11805 773 1 109.50000 418.400000
65 11805 774 1 109.50000 418.400000
65 11805 775 1 109.50000 418.400000
773 11805 774 1 109.50000 418.400000
773 11805 775 1 109.50000 418.400000
774 11805 775 1 109.50000 418.400000
362 11806 776 1 109.50000 418.400000
362 11806 777 1 109.50000 418.400000
362 11806 2574 1 109.50000 418.400000
776 11806 777 1 109.50000 418.400000
776 11806 2574 1 109.50000 418.400000
777 11806 2574 1 109.50000 418.400000
779 11807 780 1 109.50000 418.400000
779 11807 781 1 109.50000 418.400000
779 11807 782 1 109.50000 418.400000
780 11807 781 1 109.50000 418.400000
780 11807 782 1 109.50000 418.400000
781 11807 782 1 109.50000 418.400000
786 11808 787 1 109.50000 418.400000
786 11808 788 1 109.50000 418.400000
786 11808 789 1 109.50000 418.400000
787 11808 788 1 109.50000 418.400000
787 11808 789 1 109.50000 418.400000
788 11808 789 1 109.50000 418.400000
599 11809 794 1 109.50000 418.400000
599 11809 795 1 109.50000 418.400000
599 11809 796 1 109.50000 418.400000
794 11809 795 1 109.50000 418.400000
794 11809 796 1 109.50000 418.400000
795 11809 796 1 109.50000 418.400000
802 11810 803 1 109.50000 418.400000
802 11810 804 1 109.50000 418.400000
802 11810 805 1 109.50000 418.400000
803 11810 804 1 109.50000 418.400000
803 11810 805 1 109.50000 418.400000
804 11810 805 1 109.50000 418.400000
806 11811 807 1 109.50000 418.400000
806 11811 808 1 109.50000 418.400000
806 11811 2074 1 109.50000 418.400000
807 11811 808 1 109.50000 418.400000
807 11811 2074 1 109.50000 418.400000
808 11811 2074 1 109.50000 418.400000
813 11812 843 1 109.50000 418.400000
813 11812 5920 1 109.50000 418.400000
813 11812 7740 1 109.50000 418.400000
843 11812 5920 1 109.50000 418.400000
843 11812 7740 1 109.50000 418.400000
5920 11812 7740 1 109.50000 418.400000
814 11813 815 1 109.50000 418.400000
814 11813 816 1 109.50000 418.400000
814 11813 817 1 109.50000 418.400000
815 11813 816 1 109.50000 418.400000
815 11813 817 1 109.50000 418.400000
816 11813 817 1 109.50000 418.400000
818 11814 819 1 109.50000 418.400000
818 11814 820 1 109.50000 418.400000
818 11814 821 1 109.50000 418.400000
819 11814 820 1 109.50000 418.400000
819 11814 821 1 109.50000 418.400000
820 11814 821 1 109.50000 418.400000
404 11815 822 1 109.50000 418.400000
404 11815 823 1 109.50000 418.400000
404 11815 824 1 109.50000 418.400000
822 11815 823 1 109.50000 418.400000
822 11815 824 1 109.50000 418.400000
823 11815 824 1 109.50000 418.400000
825 11816 827 1 109.50000 418.400000
825 11816 828 1 109.50000 418.400000
825 11816 6852 1 109.50000 418.400000
827 11816 828 1 109.50000 418.400000
827 11816 6852 1 109.50000 418.400000
828 11816 6852 1 109.50000 418.400000
829 11817 830 1 109.50000 418.400000
829 11817 831 1 109.50000 418.400000
829 11817 832 1 109.50000 418.400000
830 11817 831 1 109.50000 418.400000
830 11817 832 1 109.50000 418.400000
831 11817 832 1 109.50000 418.400000
833 11818 834 1 109.50000 418.400000
833 11818 835 1 109.50000 418.400000
833 11818 836 1 109.50000 418.400000
834 11818 835 1 109.50000 418.400000
834 11818 836 1 109.50000 418.400000
835 11818 836 1 109.50000 418.400000
840 11819 8869 1 109.50000 418.400000
840 11819 11205 1 109.50000 418.400000
840 11819 11482 1 109.50000 418.400000
8869 11819 11205 1 109.50000 418.400000
8869 11819 11482 1 109.50000 418.400000
11205 11819 11482 1 109.50000 418.400000
841 11820 842 1 109.50000 418.400000
841 11820 843 1 109.50000 418.400000
841 11820 844 1 109.50000 418.400000
842 11820 843 1 109.50000 418.400000
842 11820 844 1 109.50000 418.400000
843 11820 844 1 109.50000 418.400000
430 11821 846 1 109.50000 418.400000
430 11821 847 1 109.50000 418.400000
430 11821 848 1 109.50000 418.400000
846 11821 847 1 109.50000 418.400000
846 11821 848 1 109.50000 418.400000
847 11821 848 1 109.50000 418.400000
678 11822 681 1 109.50000 418.400000
678 11822 849 1 109.50000 418.400000
678 11822 851 1 109.50000 418.400000
681 11822 849 1 109.50000 418.400000
681 11822 851 1 109.50000 418.400000
849 11822 851 1 109.50000 418.400000
852 11823 853 1 109.50000 418.400000
852 11823 854 1 109.50000 418.400000
852 11823 855 1 109.50000 418.400000
853 11823 854 1 109.50000 418.400000
853 11823 855 1 109.50000 418.400000
854 11823 855 1 109.50000 418.400000
856 11824 857 1 109.50000 418.400000
856 11824 858 1 109.50000 418.400000
856 11824 859 1 109.50000 418.400000
857 11824 858 1 109.50000 418.400000
857 11824 859 1 109.50000 418.400000
858 11824 859 1 109.50000 418.400000
860 11825 861 1 109.50000 418.400000
860 11825 862 1 109.50000 418.400000
860 11825 863 1 109.50000 418.400000
861 11825 862 1 109.50000 418.400000
861 11825 863 1 109.50000 418.400000
862 11825 863 1 109.50000 418.400000
864 11826 865 1 109.50000 418.400000
864 11826 867 1 109.50000 418.400000
864 11826 986 1 109.50000 418.400000
865 11826 867 1 109.50000 418.400000
865 11826 986 1 109.50000 418.400000
867 11826 986 1 109.50000 418.400000
723 11827 868 1 109.50000 418.400000
723 11827 869 1 109.50000 418.400000
723 11827 870 1 109.50000 418.400000
868 11827 869 1 109.50000 418.400000
868 11827 870 1 109.50000 418.400000
869 11827 870 1 109.50000 418.400000
871 11828 872 1 109.50000 418.400000
871 11828 873 1 109.50000 418.400000
871 11828 874 1 109.50000 418.400000
872 11828 873 1 109.50000 418.400000
872 11828 874 1 109.50000 418.400000
873 11828 874 1 109.50000 418.400000
875 11829 876 1 109.50000 418.400000
875 11829 877 1 109.50000 418.400000
875 11829 878 1 109.50000 418.400000
876 11829 877 1 109.50000 418.400000
876 11829 878 1 109.50000 418.400000
877 11829 878 1 109.50000 418.400000
879 11830 880 1 109.50000 418.400000
879 11830 881 1 109.50000 418.400000
879 11830 882 1 109.50000 418.400000
880 11830 881 1 109.50000 418.400000
880 11830 882 1 109.50000 418.400000
881 11830 882 1 109.50000 418.400000
883 11831 884 1 109.50000 418.400000
883 11831 885 1 109.50000 418.400000
883 11831 886 1 109.50000 418.400000
884 11831 885 1 109.50000 418.400000
884 11831 886 1 109.50000 418.400000
885 11831 886 1 109.50000 418.400000
887 11832 888 1 109.50000 418.400000
887 11832 889 1 109.50000 418.400000
887 11832 11179 1 109.50000 418.400000
888 11832 889 1 109.50000 418.400000
888 11832 11179 1 109.50000 418.400000
889 11832 11179 1 109.50000 418.400000
890 11833 891 1 109.50000 418.400000
890 11833 892 1 109.50000 418.400000
890 11833 893 1 109.50000 418.400000
891 11833 892 1 109.50000 418.400000
891 11833 893 1 109.50000 418.400000
892 11833 893 1 109.50000 418.400000
894 11834 1220 1 109.50000 418.400000
894 11834 4030 1 109.50000 418.400000
894 11834 9955 1 109.50000 418.400000
1220 11834 4030 1 109.50000 418.400000
1220 11834 9955 1 109.50000 418.400000
4030 11834 9955 1 109.50000 418.400000
898 11835 899 1 109.50000 418.400000
898 11835 900 1 109.50000 418.400000
898 11835 901 1 109.50000 418.400000
899 11835 900 1 109.50000 418.400000
899 11835 901 1 109.50000 418.400000
900 11835 901 1 109.50000 418.400000
904 11836 1030 1 109.50000 418.400000
904 11836 4463 1 109.50000 418.400000
904 11836 5476 1 109.50000 418.400000
1030 11836 4463 1 109.50000 418.400000
1030 11836 5476 1 109.50000 418.400000
4463 11836 5476 1 109.50000 418.400000
907 11837 908 1 109.50000 418.400000
907 11837 909 1 109.50000 418.400000
907 11837 5450 1 109.50000 418.400000
908 11837 909 1 109.50000 418.400000
908 11837 5450 1 109.50000 418.400000
909 11837 5450 1 109.50000 418.400000
910 11838 911 1 109.50000 418.400000
910 11838 912 1 109.50000 418.400000
910 11838 913 1 109.50000 418.400000
911 11838 912 1 109.50000 418.400000
911 11838 913 1 109.50000 418.400000
912 11838 913 1 109.50000 418.400000
914 11839 915 1 109.50000 418.400000
914 11839 916 1 109.50000 418.400000
914 11839 917 1 109.50000 418.400000
915 11839 916 1 109.50000 418.400000
915 11839 917 1 109.50000 418.400000
916 11839 917 1 109.50000 418.400000
488 11840 918 1 109.50000 418.400000
488 11840 919 1 109.50000 418.400000
488 11840 920 1 109.50000 418.400000
918 11840 919 1 109.50000 418.400000
918 11840 920 1 109.50000 418.400000
919 11840 920 1 109.50000 418.400000
921 11841 922 1 109.50000 418.400000
921 11841 923 1 109.50000 418.400000
921 11841 924 1 109.50000 418.400000
922 11841 923 1 109.50000 418.400000
922 11841 924 1 109.50000 418.400000
923 11841 924 1 109.50000 418.400000
925 11842 926 1 109.50000 418.400000
925 11842 927 1 109.50000 418.400000
925 11842 928 1 109.50000 418.400000
926 11842 927 1 109.50000 418.400000
926 11842 928 1 109.50000 418.400000
927 11842 928 1 109.50000 418.400000
929 11843 930 1 109.50000 418.400000
929 11843 931 1 109.50000 418.400000
929 11843 932 1 109.50000 418.400000
930 11843 931 1 109.50000 418.400000
930 11843 932 1 109.50000 418.400000
931 11843 932 1 109.50000 418.400000
933 11844 934 1 109.50000 418.400000
933 11844 935 1 109.50000 418.400000
933 11844 936 1 109.50000 418.400000
934 11844 935 1 109.50000 418.400000
934 11844 936 1 109.50000 418.400000
935 11844 936 1 109.50000 418.400000
937 11845 938 1 109.50000 418.400000
937 11845 939 1 109.50000 418.400000
937 11845 940 1 109.50000 418.400000
938 11845 939 1 109.50000 418.400000
938 11845 940 1 109.50000 418.400000
939 11845 940 1 109.50000 418.400000
941 11846 942 1 109.50000 418.400000
941 11846 943 1 109.50000 418.400000
941 11846 944 1 109.50000 418.400000
942 11846 943 1 109.50000 418.400000
942 11846 944 1 109.50000 418.400000
943 11846 944 1 109.50000 418.400000
945 11847 946 1 109.50000 418.400000
945 11847 947 1 109.50000 418.400000
945 11847 948 1 109.50000 418.400000
946 11847 947 1 109.50000 418.400000
946 11847 948 1 109.50000 418.400000
947 11847 948 1 109.50000 418.400000
950 11848 951 1 109.50000 418.400000
950 11848 952 1 109.50000 418.400000
950 11848 8456 1 109.50000 418.400000
951 11848 952 1 109.50000 418.400000
951 11848 8456 1 109.50000 418.400000
952 11848 8456 1 109.50000 418.400000
953 11849 954 1 109.50000 418.400000
953 11849 955 1 109.50000 418.400000
953 11849 956 1 109.50000 418.400000
954 11849 955 1 109.50000 418.400000
954 11849 956 1 109.50000 418.400000
955 11849 956 1 109.50000 418.400000
957 11850 958 1 109.50000 418.400000
957 11850 1203 1 109.50000 418.400000
957 11850 3770 1 109.50000 418.400000
958 11850 1203 1 109.50000 418.400000
958 11850 3770 1 109.50000 418.400000
1203 11850 3770 1 109.50000 418.400000
925 11851 961 1 109.50000 418.400000
925 11851 962 1 109.50000 418.400000
925 11851 963 1 109.50000 418.400000
961 11851 962 1 109.50000 418.400000
961 11851 963 1 109.50000 418.400000
962 11851 963 1 109.50000 418.400000
964 11852 965 1 109.50000 418.400000
964 11852 11208 1 109.50000 418.400000
964 11852 11499 1 109.50000 418.400000
965 11852 11208 1 109.50000 418.400000
965 11852 11499 1 109.50000 418.400000
11208 11852 11499 1 109.50000 418.400000
966 11853 967 1 109.50000 418.400000
966 11853 968 1 109.50000 418.400000
966 11853 969 1 109.50000 418.400000
967 11853 968 1 109.50000 418.400000
967 11853 969 1 109.50000 418.400000
968 11853 969 1 109.50000 418.400000
970 11854 971 1 109.50000 418.400000
970 11854 972 1 109.50000 418.400000
970 11854 973 1 109.50000 418.400000
971 11854 972 1 109.50000 418.400000
971 11854 973 1 109.50000 418.400000
972 11854 973 1 109.50000 418.400000
974 11855 975 1 109.50000 418.400000
974 11855 976 1 109.50000 418.400000
974 11855 977 1 109.50000 418.400000
975 11855 976 1 109.50000 418.400000
975 11855 977 1 109.50000 418.400000
976 11855 977 1 109.50000 418.400000
978 11856 979 1 109.50000 418.400000
978 11856 980 1 109.50000 418.400000
978 11856 11493 1 109.50000 418.400000
979 11856 980 1 109.50000 418.400000
979 11856 11493 1 109.50000 418.400000
980 11856 11493 1 109.50000 418.400000
981 11857 983 1 109.50000 418.400000
981 11857 984 1 109.50000 418.400000
981 11857 5879 1 109.50000 418.400000
983 11857 984 1 109.50000 418.400000
983 11857 5879 1 109.50000 418.400000
984 11857 5879 1 109.50000 418.400000
865 11858 866 1 109.50000 418.400000
865 11858 987 1 109.50000 418.400000
865 11858 988 1 109.50000 418.400000
866 11858 987 1 109.50000 418.400000
866 11858 988 1 109.50000 418.400000
987 11858 988 1 109.50000 418.400000
989 11859 990 1 109.50000 418.400000
989 11859 991 1 109.50000 418.400000
989 11859 992 1 109.50000 418.400000
990 11859 991 1 109.50000 418.400000
990 11859 992 1 109.50000 418.400000
991 11859 992 1 109.50000 418.400000
331 11860 993 1 109.50000 418.400000
331 11860 994 1 109.50000 418.400000
331 11860 995 1 109.50000 418.400000
993 11860 994 1 109.50000 418.400000
993 11860 995 1 109.50000 418.400000
994 11860 995 1 109.50000 418.400000
996 11861 997 1 109.50000 418.400000
996 11861 998 1 109.50000 418.400000
996 11861 999 1 109.50000 418.400000
997 11861 998 1 109.50000 418.400000
997 11861 999 1 109.50000 418.400000
998 11861 999 1 109.50000 418.400000
1000 11862 1001 1 109.50000 418.400000
1000 11862 1002 1 109.50000 418.400000
1000 11862 1003 1 109.50000 418.400000
1001 11862 1002 1 109.50000 418.400000
1001 11862 1003 1 109.50000 418.400000
1002 11862 1003 1 109.50000 418.400000
1004 11863 1005 1 109.50000 418.400000
1004 11863 1006 1 109.50000 418.400000
1004 11863 1007 1 109.50000 418.400000
1005 11863 1006 1 109.50000 418.400000
1005 11863 1007 1 109.50000 418.400000
1006 11863 1007 1 109.50000 418.400000
1008 11864 1009 1 109.50000 418.400000
1008 11864 1011 1 109.50000 418.400000
1008 11864 9846 1 109.50000 418.400000
1009 11864 1011 1 109.50000 418.400000
1009 11864 9846 1 109.50000 418.400000
1011 11864 9846 1 109.50000 418.400000
1012 11865 1013 1 109.50000 418.400000
1012 11865 1014 1 109.50000 418.400000
1012 11865 1015 1 109.50000 418.400000
1013 11865 1014 1 109.50000 418.400000
1013 11865 1015 1 109.50000 418.400000
1014 11865 1015 1 109.50000 418.400000
1016 11866 1017 1 109.50000 418.400000
1016 11866 1018 1 109.50000 418.400000
1016 11866 1019 1 109.50000 418.400000
1017 11866 1018 1 109.50000 418.400000
1017 11866 1019 1 109.50000 418.400000
1018 11866 1019 1 109.50000 418.400000
953 11867 1020 1 109.50000 418.400000
953 11867 1021 1 109.50000 418.400000
953 11867 1022 1 109.50000 418.400000
1020 11867 1021 1 109.50000 418.400000
1020 11867 1022 1 109.50000 418.400000
1021 11867 1022 1 109.50000 418.400000
1023 11868 1024 1 109.50000 418.400000
1023 11868 1025 1 109.50000 418.400000
1023 11868 1026 1 109.50000 418.400000
1024 11868 1025 1 109.50000 418.400000
1024 11868 1026 1 109.50000 418.400000
1025 11868 1026 1 109.50000 418.400000
1027 11869 1028 1 109.50000 418.400000
1027 11869 1029 1 109.50000 418.400000
1027 11869 11558 1 109.50000 418.400000
1028 11869 1029 1 109.50000 418.400000
1028 11869 11558 1 109.50000 418.400000
1029 11869 11558 1 109.50000 418.400000
1030 11870 1031 1 109.50000 418.400000
1030 11870 1032 1 109.50000 418.400000
1030 11870 1033 1 109.50000 418.400000
1031 11870 1032 1 109.50000 418.400000
1031 11870 1033 1 109.50000 418.400000
1032 11870 1033 1 109.50000 418.400000
1039 11871 1312 1 109.50000 418.400000
1039 11871 2942 1 109.50000 418.400000
1039 11871 10422 1 109.50000 418.400000
1312 11871 2942 1 109.50000 418.400000
1312 11871 10422 1 109.50000 418.400000
2942 11871 10422 1 109.50000 418.400000
869 11872 1040 1 109.50000 418.400000
869 11872 1041 1 109.50000 418.400000
869 11872 1042 1 109.50000 418.400000
1040 11872 1041 1 109.50000 418.400000
1040 11872 1042 1 109.50000 418.400000
1041 11872 1042 1 109.50000 418.400000
1042 11873 1043 1 109.50000 418.400000
1042 11873 1044 1 109.50000 418.400000
1042 11873 11241 1 109.50000 418.400000
1043 11873 1044 1 109.50000 418.400000
1043 11873 11241 1 109.50000 418.400000
1044 11873 11241 1 109.50000 418.400000
1045 11874 1046 1 109.50000 418.400000
1045 11874 1047 1 109.50000 418.400000
1045 11874 1048 1 109.50000 418.400000
1046 11874 1047 1 109.50000 418.400000
1046 11874 1048 1 109.50000 418.400000
1047 11874 1048 1 109.50000 418.400000
398 11875 1049 1 109.50000 418.400000
398 11875 1050 1 109.50000 418.400000
398 11875 1051 1 109.50000 418.400000
1049 11875 1050 1 109.50000 418.400000
1049 11875 1051 1 109.50000 418.400000
1050 11875 1051 1 109.50000 418.400000
1052 11876 1053 1 109.50000 418.400000
1052 11876 1054 1 109.50000 418.400000
1052 11876 1055 1 109.50000 418.400000
1053 11876 1054 1 109.50000 418.400000
1053 11876 1055 1 109.50000 418.400000
1054 11876 1055 1 109.50000 418.400000
1056 11877 1057 1 109.50000 418.400000
1056 11877 1058 1 109.50000 418.400000
1056 11877 1059 1 109.50000 418.400000
1057 11877 1058 1 109.50000 418.400000
1057 11877 1059 1 109.50000 418.400000
1058 11877 1059 1 109.50000 418.400000
856 11878 1060 1 109.50000 418.400000
856 11878 1061 1 109.50000 418.400000
856 11878 8585 1 109.50000 418.400000
1060 11878 1061 1 109.50000 418.400000
1060 11878 8585 1 109.50000 418.400000
1061 11878 8585 1 109.50000 418.400000
1064 11879 6547 1 109.50000 418.400000
1064 11879 6548 1 109.50000 418.400000
1064 11879 6549 1 109.50000 418.400000
6547 11879 6548 1 109.50000 418.400000
6547 11879 6549 1 109.50000 418.400000
6548 11879 6549 1 109.50000 418.400000
1066 11880 1067 1 109.50000 418.400000
1066 11880 1068 1 109.50000 418.400000
1066 11880 1069 1 109.50000 418.400000
1067 11880 1068 1 109.50000 418.400000
1067 11880 1069 1 109.50000 418.400000
1068 11880 1069 1 109.50000 418.400000
570 11881 1070 1 109.50000 418.400000
570 11881 1071 1 109.50000 418.400000
570 11881 1072 1 109.50000 418.400000
1070 11881 1071 1 109.50000 418.400000
1070 11881 1072 1 109.50000 418.400000
1071 11881 1072 1 109.50000 418.400000
1073 11882 1074 1 109.50000 418.400000
1073 11882 1075 1 109.50000 418.400000
1073 11882 1076 1 109.50000 418.400000
1074 11882 1075 1 109.50000 418.400000
1074 11882 1076 1 109.50000 418.400000
1075 11882 1076 1 109.50000 418.400000
1077 11883 1078 1 109.50000 418.400000
1077 11883 1079 1 109.50000 418.400000
1077 11883 1080 1 109.50000 418.400000
1078 11883 1079 1 109.50000 418.400000
1078 11883 1080 1 109.50000 418.400000
1079 11883 1080 1 109.50000 418.400000
1081 11884 1082 1 109.50000 418.400000
1081 11884 1083 1 109.50000 418.400000
1081 11884 1084 1 109.50000 418.400000
1082 11884 1083 1 109.50000 418.400000
1082 11884 1084 1 109.50000 418.400000
1083 11884 1084 1 109.50000 418.400000
1085 11885 1086 1 109.50000 418.400000
1085 11885 1087 1 109.50000 418.400000
1085 11885 1088 1 109.50000 418.400000
1086 11885 1087 1 109.50000 418.400000
1086 11885 1088 1 109.50000 418.400000
1087 11885 1088 1 109.50000 418.400000
1089 11886 1090 1 109.50000 418.400000
1089 11886 1091 1 109.50000 418.400000
1089 11886 1092 1 109.50000 418.400000
1090 11886 1091 1 109.50000 418.400000
1090 11886 1092 1 109.50000 418.400000
1091 11886 1092 1 109.50000 418.400000
609 11887 1093 1 109.50000 418.400000
609 11887 1094 1 109.50000 418.400000
609 11887 1095 1 109.50000 418.400000
1093 11887 1094 1 109.50000 418.400000
1093 11887 1095 1 109.50000 418.400000
1094 11887 1095 1 109.50000 418.400000
1096 11888 1097 1 109.50000 418.400000
1096 11888 1098 1 109.50000 418.400000
1096 11888 1099 1 109.50000 418.400000
1097 11888 1098 1 109.50000 418.400000
1097 11888 1099 1 109.50000 418.400000
1098 11888 1099 1 109.50000 418.400000
1100 11889 1101 1 109.50000 418.400000
1100 11889 1102 1 109.50000 418.400000
1100 11889 1103 1 109.50000 418.400000
1101 11889 1102 1 109.50000 418.400000
1101 11889 1103 1 109.50000 418.400000
1102 11889 1103 1 109.50000 418.400000
101 11890 1104 1 109.50000 418.400000
101 11890 1105 1 109.50000 418.400000
101 11890 1106 1 109.50000 418.400000
1104 11890 1105 1 109.50000 418.400000
1104 11890 1106 1 109.50000 418.400000
1105 11890 1106 1 109.50000 418.400000
1107 11891 1647 1 109.50000 418.400000
1107 11891 1649 1 109.50000 418.400000
1107 11891 3057 1 109.50000 418.400000
1647 11891 1649 1 109.50000 418.400000
1647 11891 3057 1 109.50000 418.400000
1649 11891 3057 1 109.50000 418.400000
1113 11892 1115 1 109.50000 418.400000
1113 11892 1116 1 109.50000 418.400000
1113 11892 4528 1 109.50000 418.400000
1115 11892 1116 1 109.50000 418.400000
1115 11892 4528 1 109.50000 418.400000
1116 11892 4528 1 109.50000 418.400000
1117 11893 1118 1 109.50000 418.400000
1117 11893 1119 1 109.50000 418.400000
1117 11893 1120 1 109.50000 418.400000
1118 11893 1119 1 109.50000 418.400000
1118 11893 1120 1 109.50000 418.400000
1119 11893 1120 1 109.50000 418.400000
1121 11894 1122 1 109.50000 418.400000
1121 11894 1123 1 109.50000 418.400000
1121 11894 1124 1 109.50000 418.400000
1122 11894 1123 1 109.50000 418.400000
1122 11894 1124 1 109.50000 418.400000
1123 11894 1124 1 109.50000 418.400000
1008 11895 1125 1 109.50000 418.400000
1008 11895 1126 1 109.50000 418.400000
1008 11895 1127 1 109.50000 418.400000
1125 11895 1126 1 109.50000 418.400000
1125 11895 1127 1 109.50000 418.400000
1126 11895 1127 1 109.50000 418.400000
758 11896 992 1 109.50000 418.400000
758 11896 1128 1 109.50000 418.400000
758 11896 1129 1 109.50000 418.400000
992 11896 1128 1 109.50000 418.400000
992 11896 1129 1 109.50000 418.400000
1128 11896 1129 1 109.50000 418.400000
553 11897 555 1 109.50000 418.400000
553 11897 1130 1 109.50000 418.400000
553 11897 1132 1 109.50000 418.400000
555 11897 1130 1 109.50000 418.400000
555 11897 1132 1 109.50000 418.400000
1130 11897 1132 1 109.50000 418.400000
1133 11898 1134 1 109.50000 418.400000
1133 11898 1135 1 109.50000 418.400000
1133 11898 1136 1 109.50000 418.400000
1134 11898 1135 1 109.50000 418.400000
1134 11898 1136 1 109.50000 418.400000
1135 11898 1136 1 109.50000 418.400000
1138 11899 1139 1 109.50000 418.400000
1138 11899 1140 1 109.50000 418.400000
1138 11899 1141 1 109.50000 418.400000
1139 11899 1140 1 109.50000 418.400000
1139 11899 1141 1 109.50000 418.400000
1140 11899 1141 1 109.50000 418.400000
1142 11900 1143 1 109.50000 418.400000
1142 11900 1144 1 109.50000 418.400000
1142 11900 1145 1 109.50000 418.400000
1143 11900 1144 1 109.50000 418.400000
1143 11900 1145 1 109.50000 418.400000
1144 11900 1145 1 109.50000 418.400000
1146 11901 1147 1 109.50000 418.400000
1146 11901 1148 1 109.50000 418.400000
1146 11901 1149 1 109.50000 418.400000
1147 11901 1148 1 109.50000 418.400000
1147 11901 1149 1 109.50000 418.400000
1148 11901 1149 1 109.50000 418.400000
151 11902 1150 1 109.50000 418.400000
151 11902 1152 1 109.50000 418.400000
151 11902 7371 1 109.50000 418.400000
1150 11902 1152 1 109.50000 418.400000
1150 11902 7371 1 109.50000 418.400000
1152 11902 7371 1 109.50000 418.400000
1153 11903 1154 1 109.50000 418.400000
1153 11903 1155 1 109.50000 418.400000
1153 11903 1156 1 109.50000 418.400000
1154 11903 1155 1 109.50000 418.400000
1154 11903 1156 1 109.50000 418.400000
1155 11903 1156 1 109.50000 418.400000
941 11904 1157 1 109.50000 418.400000
941 11904 1158 1 109.50000 418.400000
941 11904 1159 1 109.50000 418.400000
1157 11904 1158 1 109.50000 418.400000
1157 11904 1159 1 109.50000 418.400000
1158 11904 1159 1 109.50000 418.400000
1161 11905 1162 1 109.50000 418.400000
1161 11905 6020 1 109.50000 418.400000
1161 11905 6021 1 109.50000 418.400000
1162 11905 6020 1 109.50000 418.400000
1162 11905 6021 1 109.50000 418.400000
6020 11905 6021 1 109.50000 418.400000
1164 11906 1165 1 109.50000 418.400000
1164 11906 1166 1 109.50000 418.400000
1164 11906 1167 1 109.50000 418.400000
1165 11906 1166 1 109.50000 418.400000
1165 11906 1167 1 109.50000 418.400000
1166 11906 1167 1 109.50000 418.400000
1168 11907 1169 1 109.50000 418.400000
1168 11907 1170 1 109.50000 418.400000
1168 11907 1171 1 109.50000 418.400000
1169 11907 1170 1 109.50000 418.400000
1169 11907 1171 1 109.50000 418.400000
1170 11907 1171 1 109.50000 418.400000
1172 11908 1173 1 109.50000 418.400000
1172 11908 1174 1 109.50000 418.400000
1172 11908 1175 1 109.50000 418.400000
1173 11908 1174 1 109.50000 418.400000
1173 11908 1175 1 109.50000 418.400000
1174 11908 1175 1 109.50000 418.400000
531 11909 1176 1 109.50000 418.400000
531 11909 1177 1 109.50000 418.400000
531 11909 1178 1 109.50000 418.400000
1176 11909 1177 1 109.50000 418.400000
1176 11909 1178 1 109.50000 418.400000
1177 11909 1178 1 109.50000 418.400000
1179 11910 1180 1 109.50000 418.400000
1179 11910 11254 1 109.50000 418.400000
1179 11910 11591 1 109.50000 418.400000
1180 11910 11254 1 109.50000 418.400000
1180 11910 11591 1 109.50000 418.400000
11254 11910 11591 1 109.50000 418.400000
1181 11911 1182 1 109.50000 418.400000
1181 11911 1183 1 109.50000 418.400000
1181 11911 1184 1 109.50000 418.400000
1182 11911 1183 1 109.50000 418.400000
1182 11911 1184 1 109.50000 418.400000
1183 11911 1184 1 109.50000 418.400000
1185 11912 1186 1 109.50000 418.400000
1185 11912 1187 1 109.50000 418.400000
1185 11912 1188 1 109.50000 418.400000
1186 11912 1187 1 109.50000 418.400000
1186 11912 1188 1 109.50000 418.400000
1187 11912 1188 1 109.50000 418.400000
1189 11913 1190 1 109.50000 418.400000
1189 11913 1191 1 109.50000 418.400000
1189 11913 5161 1 109.50000 418.400000
1190 11913 1191 1 109.50000 418.400000
1190 11913 5161 1 109.50000 418.400000
1191 11913 5161 1 109.50000 418.400000
1193 11914 1194 1 109.50000 418.400000
1193 11914 1195 1 109.50000 418.400000
1193 11914 1196 1 109.50000 418.400000
1194 11914 1195 1 109.50000 418.400000
1194 11914 1196 1 109.50000 418.400000
1195 11914 1196 1 109.50000 418.400000
1143 11915 1197 1 109.50000 418.400000
1143 11915 1198 1 109.50000 418.400000
1143 11915 10092 1 109.50000 418.400000
1197 11915 1198 1 109.50000 418.400000
1197 11915 10092 1 109.50000 418.400000
1198 11915 10092 1 109.50000 418.400000
1200 11916 1201 1 109.50000 418.400000
1200 11916 1202 1 109.50000 418.400000
1200 11916 7373 1 109.50000 418.400000
1201 11916 1202 1 109.50000 418.400000
1201 11916 7373 1 109.50000 418.400000
1202 11916 7373 1 109.50000 418.400000
957 11917 959 1 109.50000 418.400000
957 11917 1204 1 109.50000 418.400000
957 11917 1205 1 109.50000 418.400000
959 11917 1204 1 109.50000 418.400000
959 11917 1205 1 109.50000 418.400000
1204 11917 1205 1 109.50000 418.400000
1206 11918 1207 1 109.50000 418.400000
1206 11918 11202 1 109.50000 418.400000
1206 11918 11418 1 109.50000 418.400000
1207 11918 11202 1 109.50000 418.400000
1207 11918 11418 1 109.50000 418.400000
11202 11918 11418 1 109.50000 418.400000
316 11919 1208 1 109.50000 418.400000
316 11919 1209 1 109.50000 418.400000
316 11919 1210 1 109.50000 418.400000
1208 11919 1209 1 109.50000 418.400000
1208 11919 1210 1 109.50000 418.400000
1209 11919 1210 1 109.50000 418.400000
1211 11920 1212 1 109.50000 418.400000
1211 11920 1213 1 109.50000 418.400000
1211 11920 1214 1 109.50000 418.400000
1212 11920 1213 1 109.50000 418.400000
1212 11920 1214 1 109.50000 418.400000
1213 11920 1214 1 109.50000 418.400000
1215 11921 1216 1 109.50000 418.400000
1215 11921 1217 1 109.50000 418.400000
1215 11921 1218 1 109.50000 418.400000
1216 11921 1217 1 109.50000 418.400000
1216 11921 1218 1 109.50000 418.400000
1217 11921 1218 1 109.50000 418.400000
894 11922 896 1 109.50000 418.400000
894 11922 1219 1 109.50000 418.400000
894 11922 1221 1 109.50000 418.400000
896 11922 1219 1 109.50000 418.400000
896 11922 1221 1 109.50000 418.400000
1219 11922 1221 1 109.50000 418.400000
1222 11923 1223 1 109.50000 418.400000
1222 11923 1224 1 109.50000 418.400000
1222 11923 11226 1 109.50000 418.400000
1223 11923 1224 1 109.50000 418.400000
1223 11923 11226 1 109.50000 418.400000
1224 11923 11226 1 109.50000 418.400000
1225 11924 1226 1 109.50000 418.400000
1225 11924 1227 1 109.50000 418.400000
1225 11924 1228 1 109.50000 418.400000
1226 11924 1227 1 109.50000 418.400000
1226 11924 1228 1 109.50000 418.400000
1227 11924 1228 1 109.50000 418.400000
1229 11925 1230 1 109.50000 418.400000
1229 11925 1231 1 109.50000 418.400000
1229 11925 1232 1 109.50000 418.400000
1230 11925 1231 1 109.50000 418.400000
1230 11925 1232 1 109.50000 418.400000
1231 11925 1232 1 109.50000 418.400000
1233 11926 1234 1 109.50000 418.400000
1233 11926 1235 1 109.50000 418.400000
1233 11926 1236 1 109.50000 418.400000
1234 11926 1235 1 109.50000 418.400000
1234 11926 1236 1 109.50000 418.400000
1235 11926 1236 1 109.50000 418.400000
1237 11927 1238 1 109.50000 418.400000
1237 11927 1239 1 109.50000 418.400000
1237 11927 11559 1 109.50000 418.400000
1238 11927 1239 1 109.50000 418.400000
1238 11927 11559 1 109.50000 418.400000
1239 11927 11559 1 109.50000 418.400000
687 11928 1240 1 109.50000 418.400000
687 11928 1241 1 109.50000 418.400000
687 11928 1242 1 109.50000 418.400000
1240 11928 1241 1 109.50000 418.400000
1240 11928 1242 1 109.50000 418.400000
1241 11928 1242 1 109.50000 418.400000
390 11929 1243 1 109.50000 418.400000
390 11929 1244 1 109.50000 418.400000
390 11929 1245 1 109.50000 418.400000
1243 11929 1244 1 109.50000 418.400000
1243 11929 1245 1 109.50000 418.400000
1244 11929 1245 1 109.50000 418.400000
1246 11930 1247 1 109.50000 418.400000
1246 11930 1248 1 109.50000 418.400000
1246 11930 1249 1 109.50000 418.400000
1247 11930 1248 1 109.50000 418.400000
1247 11930 1249 1 109.50000 418.400000
1248 11930 1249 1 109.50000 418.400000
1250 11931 1251 1 109.50000 418.400000
1250 11931 1252 1 109.50000 418.400000
1250 11931 1253 1 109.50000 418.400000
1251 11931 1252 1 109.50000 418.400000
1251 11931 1253 1 109.50000 418.400000
1252 11931 1253 1 109.50000 418.400000
1254 11932 1255 1 109.50000 418.400000
1254 11932 1256 1 109.50000 418.400000
1254 11932 1257 1 109.50000 418.400000
1255 11932 1256 1 109.50000 418.400000
1255 11932 1257 1 109.50000 418.400000
1256 11932 1257 1 109.50000 418.400000
1259 11933 1260 1 109.50000 418.400000
1259 11933 1261 1 109.50000 418.400000
1259 11933 1262 1 109.50000 418.400000
1260 11933 1261 1 109.50000 418.400000
1260 11933 1262 1 109.50000 418.400000
1261 11933 1262 1 109.50000 418.400000
160 11934 1263 1 109.50000 418.400000
160 11934 1264 1 109.50000 418.400000
160 11934 1265 1 109.50000 418.400000
1263 11934 1264 1 109.50000 418.400000
1263 11934 1265 1 109.50000 418.400000
1264 11934 1265 1 109.50000 418.400000
1266 11935 1267 1 109.50000 418.400000
1266 11935 1268 1 109.50000 418.400000
1266 11935 1269 1 109.50000 418.400000
1267 11935 1268 1 109.50000 418.400000
1267 11935 1269 1 109.50000 418.400000
1268 11935 1269 1 109.50000 418.400000
1270 11936 1271 1 109.50000 418.400000
1270 11936 1272 1 109.50000 418.400000
1270 11936 1273 1 109.50000 418.400000
1271 11936 1272 1 109.50000 418.400000
1271 11936 1273 1 109.50000 418.400000
1272 11936 1273 1 109.50000 418.400000
1274 11937 1275 1 109.50000 418.400000
1274 11937 1276 1 109.50000 418.400000
1274 11937 1277 1 109.50000 418.400000
1275 11937 1276 1 109.50000 418.400000
1275 11937 1277 1 109.50000 418.400000
1276 11937 1277 1 109.50000 418.400000
1278 11938 1279 1 109.50000 418.400000
1278 11938 1280 1 109.50000 418.400000
1278 11938 1281 1 109.50000 418.400000
1279 11938 1280 1 109.50000 418.400000
1279 11938 1281 1 109.50000 418.400000
1280 11938 1281 1 109.50000 418.400000
1282 11939 1283 1 109.50000 418.400000
1282 11939 1285 1 109.50000 418.400000
1282 11939 8383 1 109.50000 418.400000
1283 11939 1285 1 109.50000 418.400000
1283 11939 8383 1 109.50000 418.400000
1285 11939 8383 1 109.50000 418.400000
1286 11940 1288 1 109.50000 418.400000
1286 11940 9978 1 109.50000 418.400000
1286 11940 11490 1 109.50000 418.400000
1288 11940 9978 1 109.50000 418.400000
1288 11940 11490 1 109.50000 418.400000
9978 11940 11490 1 109.50000 418.400000
949 11941 1289 1 109.50000 418.400000
949 11941 1290 1 109.50000 418.400000
949 11941 1291 1 109.50000 418.400000
1289 11941 1290 1 109.50000 418.400000
1289 11941 1291 1 109.50000 418.400000
1290 11941 1291 1 109.50000 418.400000
1292 11942 1293 1 109.50000 418.400000
1292 11942 1294 1 109.50000 418.400000
1292 11942 1295 1 109.50000 418.400000
1293 11942 1294 1 109.50000 418.400000
1293 11942 1295 1 109.50000 418.400000
1294 11942 1295 1 109.50000 418.400000
668 11943 1296 1 109.50000 418.400000
668 11943 1297 1 109.50000 418.400000
668 11943 1298 1 109.50000 418.400000
1296 11943 1297 1 109.50000 418.400000
1296 11943 1298 1 109.50000 418.400000
1297 11943 1298 1 109.50000 418.400000
1299 11944 1300 1 109.50000 418.400000
1299 11944 1301 1 109.50000 418.400000
1299 11944 1302 1 109.50000 418.400000
1300 11944 1301 1 109.50000 418.400000
1300 11944 1302 1 109.50000 418.400000
1301 11944 1302 1 109.50000 418.400000
1303 11945 1305 1 109.50000 418.400000
1303 11945 1306 1 109.50000 418.400000
1303 11945 8986 1 109.50000 418.400000
1305 11945 1306 1 109.50000 418.400000
1305 11945 8986 1 109.50000 418.400000
1306 11945 8986 1 109.50000 418.400000
1047 11946 1307 1 109.50000 418.400000
1047 11946 1308 1 109.50000 418.400000
1047 11946 1309 1 109.50000 418.400000
1307 11946 1308 1 109.50000 418.400000
1307 11946 1309 1 109.50000 418.400000
1308 11946 1309 1 109.50000 418.400000
1225 11947 1310 1 109.50000 418.400000
1225 11947 1311 1 109.50000 418.400000
1225 11947 1312 1 109.50000 418.400000
1310 11947 1311 1 109.50000 418.400000
1310 11947 1312 1 109.50000 418.400000
1311 11947 1312 1 109.50000 418.400000
1313 11948 1314 1 109.50000 418.400000
1313 11948 1315 1 109.50000 418.400000
1313 11948 1316 1 109.50000 418.400000
1314 11948 1315 1 109.50000 418.400000
1314 11948 1316 1 109.50000 418.400000
1315 11948 1316 1 109.50000 418.400000
1317 11949 1318 1 109.50000 418.400000
1317 11949 1319 1 109.50000 418.400000
1317 11949 1320 1 109.50000 418.400000
1318 11949 1319 1 109.50000 418.400000
1318 11949 1320 1 109.50000 418.400000
1319 11949 1320 1 109.50000 418.400000
1321 11950 1322 1 109.50000 418.400000
1321 11950 1323 1 109.50000 418.400000
1321 11950 1324 1 109.50000 418.400000
1322 11950 1323 1 109.50000 418.400000
1322 11950 1324 1 109.50000 418.400000
1323 11950 1324 1 109.50000 418.400000
1325 11951 1326 1 109.50000 418.400000
1325 11951 1327 1 109.50000 418.400000
1325 11951 1328 1 109.50000 418.400000
1326 11951 1327 1 109.50000 418.400000
1326 11951 1328 1 109.50000 418.400000
1327 11951 1328 1 109.50000 418.400000
1329 11952 1331 1 109.50000 418.400000
1329 11952 2429 1 109.50000 418.400000
1329 11952 11369 1 109.50000 418.400000
1331 11952 2429 1 109.50000 418.400000
1331 11952 11369 1 109.50000 418.400000
2429 11952 11369 1 109.50000 418.400000
1332 11953 1333 1 109.50000 418.400000
1332 11953 1334 1 109.50000 418.400000
1332 11953 1335 1 109.50000 418.400000
1333 11953 1334 1 109.50000 418.400000
1333 11953 1335 1 109.50000 418.400000
1334 11953 1335 1 109.50000 418.400000
1336 11954 1337 1 109.50000 418.400000
1336 11954 1338 1 109.50000 418.400000
1336 11954 1339 1 109.50000 418.400000
1337 11954 1338 1 109.50000 418.400000
1337 11954 1339 1 109.50000 418.400000
1338 11954 1339 1 109.50000 418.400000
311 11955 1340 1 109.50000 418.400000
311 11955 1341 1 109.50000 418.400000
311 11955 1342 1 109.50000 418.400000
1340 11955 1341 1 109.50000 418.400000
1340 11955 1342 1 109.50000 418.400000
1341 11955 1342 1 109.50000 418.400000
1343 11956 1344 1 109.50000 418.400000
1343 11956 11235 1 109.50000 418.400000
1343 11956 11362 1 109.50000 418.400000
1344 11956 11235 1 109.50000 418.400000
1344 11956 11362 1 109.50000 418.400000
11235 11956 11362 1 109.50000 418.400000
1345 11957 1346 1 109.50000 418.400000
1345 11957 1347 1 109.50000 418.400000
1345 11957 1348 1 109.50000 418.400000
1346 11957 1347 1 109.50000 418.400000
1346 11957 1348 1 109.50000 418.400000
1347 11957 1348 1 109.50000 418.400000
1351 11958 5197 1 109.50000 418.400000
1351 11958 7319 1 109.50000 418.400000
1351 11958 7320 1 109.50000 418.400000
5197 11958 7319 1 109.50000 418.400000
5197 11958 7320 1 109.50000 418.400000
7319 11958 7320 1 109.50000 418.400000
1353 11959 1355 1 109.50000 418.400000
1353 11959 1356 1 109.50000 418.400000
1353 11959 9709 1 109.50000 418.400000
1355 11959 1356 1 109.50000 418.400000
1355 11959 9709 1 109.50000 418.400000
1356 11959 9709 1 109.50000 418.400000
1358 11960 1360 1 109.50000 418.400000
1358 11960 3234 1 109.50000 418.400000
1358 11960 3235 1 109.50000 418.400000
1360 11960 3234 1 109.50000 418.400000
1360 11960 3235 1 109.50000 418.400000
3234 11960 3235 1 109.50000 418.400000
1361 11961 1362 1 109.50000 418.400000
1361 11961 1363 1 109.50000 418.400000
1361 11961 1364 1 109.50000 418.400000
1362 11961 1363 1 109.50000 418.400000
1362 11961 1364 1 109.50000 418.400000
1363 11961 1364 1 109.50000 418.400000
1365 11962 1366 1 109.50000 418.400000
1365 11962 1367 1 109.50000 418.400000
1365 11962 1368 1 109.50000 418.400000
1366 11962 1367 1 109.50000 418.400000
1366 11962 1368 1 109.50000 418.400000
1367 11962 1368 1 109.50000 418.400000
1369 11963 1370 1 109.50000 418.400000
1369 11963 1371 1 109.50000 418.400000
1369 11963 1372 1 109.50000 418.400000
1370 11963 1371 1 109.50000 418.400000
1370 11963 1372 1 109.50000 418.400000
1371 11963 1372 1 109.50000 418.400000
4 11964 1373 1 109.50000 418.400000
4 11964 1374 1 109.50000 418.400000
4 11964 1375 1 109.50000 418.400000
1373 11964 1374 1 109.50000 418.400000
1373 11964 1375 1 109.50000 418.400000
1374 11964 1375 1 109.50000 418.400000
1376 11965 1377 1 109.50000 418.400000
1376 11965 1378 1 109.50000 418.400000
1376 11965 1379 1 109.50000 418.400000
1377 11965 1378 1 109.50000 418.400000
1377 11965 1379 1 109.50000 418.400000
1378 11965 1379 1 109.50000 418.400000
1380 11966 1381 1 109.50000 418.400000
1380 11966 1382 1 109.50000 418.400000
1380 11966 11410 1 109.50000 418.400000
1381 11966 1382 1 109.50000 418.400000
1381 11966 11410 1 109.50000 418.400000
1382 11966 11410 1 109.50000 418.400000
1383 11967 1384 1 109.50000 418.400000
1383 11967 1385 1 109.50000 418.400000
1383 11967 1386 1 109.50000 418.400000
1384 11967 1385 1 109.50000 418.400000
1384 11967 1386 1 109.50000 418.400000
1385 11967 1386 1 109.50000 418.400000
1387 11968 1388 1 109.50000 418.400000
1387 11968 1389 1 109.50000 418.400000
1387 11968 11447 1 109.50000 418.400000
1388 11968 1389 1 109.50000 418.400000
1388 11968 11447 1 109.50000 418.400000
1389 11968 11447 1 109.50000 418.400000
1390 11969 1391 1 109.50000 418.400000
1390 11969 1392 1 109.50000 418.400000
1390 11969 1393 1 109.50000 418.400000
1391 11969 1392 1 109.50000 418.400000
1391 11969 1393 1 109.50000 418.400000
1392 11969 1393 1 109.50000 418.400000
1394 11970 1395 1 109.50000 418.400000
1394 11970 1396 1 109.50000 418.400000
1394 11970 1397 1 109.50000 418.400000
1395 11970 1396 1 109.50000 418.400000
1395 11970 1397 1 109.50000 418.400000
1396 11970 1397 1 109.50000 418.400000
1398 11971 1399 1 109.50000 418.400000
1398 11971 1400 1 109.50000 418.400000
1398 11971 1401 1 109.50000 418.400000
1399 11971 1400 1 109.50000 418.400000
1399 11971 1401 1 109.50000 418.400000
1400 11971 1401 1 109.50000 418.400000
1402 11972 1404 1 109.50000 418.400000
1402 11972 1405 1 109.50000 418.400000
1402 11972 3796 1 109.50000 418.400000
1404 11972 1405 1 109.50000 418.400000
1404 11972 3796 1 109.50000 418.400000
1405 11972 3796 1 109.50000 418.400000
1406 11973 1407 1 109.50000 418.400000
1406 11973 1408 1 109.50000 418.400000
1406 11973 11545 1 109.50000 418.400000
1407 11973 1408 1 109.50000 418.400000
1407 11973 11545 1 109.50000 418.400000
1408 11973 11545 1 109.50000 418.400000
1410 11974 1411 1 109.50000 418.400000
1410 11974 1412 1 109.50000 418.400000
1410 11974 5204 1 109.50000 418.400000
1411 11974 1412 1 109.50000 418.400000
1411 11974 5204 1 109.50000 418.400000
1412 11974 5204 1 109.50000 418.400000
1413 11975 1414 1 109.50000 418.400000
1413 11975 11191 1 109.50000 418.400000
1413 11975 11471 1 109.50000 418.400000
1414 11975 11191 1 109.50000 418.400000
1414 11975 11471 1 109.50000 418.400000
11191 11975 11471 1 109.50000 418.400000
1218 11976 1415 1 109.50000 418.400000
1218 11976 1416 1 109.50000 418.400000
1218 11976 1417 1 109.50000 418.400000
1415 11976 1416 1 109.50000 418.400000
1415 11976 1417 1 109.50000 418.400000
1416 11976 1417 1 109.50000 418.400000
1418 11977 1419 1 109.50000 418.400000
1418 11977 1420 1 109.50000 418.400000
1418 11977 1421 1 109.50000 418.400000
1419 11977 1420 1 109.50000 418.400000
1419 11977 1421 1 109.50000 418.400000
1420 11977 1421 1 109.50000 418.400000
1422 11978 1423 1 109.50000 418.400000
1422 11978 1424 1 109.50000 418.400000
1422 11978 1425 1 109.50000 418.400000
1423 11978 1424 1 109.50000 418.400000
1423 11978 1425 1 109.50000 418.400000
1424 11978 1425 1 109.50000 418.400000
1426 11979 1427 1 109.50000 418.400000
1426 11979 1428 1 109.50000 418.400000
1426 11979 1429 1 109.50000 418.400000
1427 11979 1428 1 109.50000 418.400000
1427 11979 1429 1 109.50000 418.400000
1428 11979 1429 1 109.50000 418.400000
984 11980 1430 1 109.50000 418.400000
984 11980 1431 1 109.50000 418.400000
984 11980 1432 1 109.50000 418.400000
1430 11980 1431 1 109.50000 418.400000
1430 11980 1432 1 109.50000 418.400000
1431 11980 1432 1 109.50000 418.400000
339 11981 1433 1 109.50000 418.400000
339 11981 1434 1 109.50000 418.400000
339 11981 1435 1 109.50000 418.400000
1433 11981 1434 1 109.50000 418.400000
1433 11981 1435 1 109.50000 418.400000
1434 11981 1435 1 109.50000 418.400000
1436 11982 1437 1 109.50000 418.400000
1436 11982 1438 1 109.50000 418.400000
1436 11982 1439 1 109.50000 418.400000
1437 11982 1438 1 109.50000 418.400000
1437 11982 1439 1 109.50000 418.400000
1438 11982 1439 1 109.50000 418.400000
1440 11983 1441 1 109.50000 418.400000
1440 11983 1442 1 109.50000 418.400000
1440 11983 8166 1 109.50000 418.400000
1441 11983 1442 1 109.50000 418.400000
1441 11983 8166 1 109.50000 418.400000
1442 11983 8166 1 109.50000 418.400000
1443 11984 1444 1 109.50000 418.400000
1443 11984 11175 1 109.50000 418.400000
1443 11984 11587 1 109.50000 418.400000
1444 11984 11175 1 109.50000 418.400000
1444 11984 11587 1 109.50000 418.400000
11175 11984 11587 1 109.50000 418.400000
1445 11985 1446 1 109.50000 418.400000
1445 11985 1447 1 109.50000 418.400000
1445 11985 1448 1 109.50000 418.400000
1446 11985 1447 1 109.50000 418.400000
1446 11985 1448 1 109.50000 418.400000
1447 11985 1448 1 109.50000 418.400000
1449 11986 1450 1 109.50000 418.400000
1449 11986 11294 1 109.50000 418.400000
1449 11986 11585 1 109.50000 418.400000
1450 11986 11294 1 109.50000 418.400000
1450 11986 11585 1 109.50000 418.400000
11294 11986 11585 1 109.50000 418.400000
129 11987 1451 1 109.50000 418.400000
129 11987 1452 1 109.50000 418.400000
129 11987 1453 1 109.50000 418.400000
1451 11987 1452 1 109.50000 418.400000
1451 11987 1453 1 109.50000 418.400000
1452 11987 1453 1 109.50000 418.400000
1454 11988 1455 1 109.50000 418.400000
1454 11988 1456 1 109.50000 418.400000
1454 11988 11289 1 109.50000 418.400000
1455 11988 1456 1 109.50000 418.400000
1455 11988 11289 1 109.50000 418.400000
1456 11988 11289 1 109.50000 418.400000
1256 11989 1457 1 109.50000 418.400000
1256 11989 1458 1 109.50000 418.400000
1256 11989 1459 1 109.50000 418.400000
1457 11989 1458 1 109.50000 418.400000
1457 11989 1459 1 109.50000 418.400000
1458 11989 1459 1 109.50000 418.400000
1461 11990 1462 1 109.50000 418.400000
1461 11990 8161 1 109.50000 418.400000
1461 11990 8162 1 109.50000 418.400000
1462 11990 8161 1 109.50000 418.400000
1462 11990 8162 1 109.50000 418.400000
8161 11990 8162 1 109.50000 418.400000
1464 11991 1465 1 109.50000 418.400000
1464 11991 1466 1 109.50000 418.400000
1464 11991 1467 1 109.50000 418.400000
1465 11991 1466 1 109.50000 418.400000
1465 11991 1467 1 109.50000 418.400000
1466 11991 1467 1 109.50000 418.400000
1470 11992 1471 1 109.50000 418.400000
1470 11992 11287 1 109.50000 418.400000
1470 11992 11345 1 109.50000 418.400000
1471 11992 11287 1 109.50000 418.400000
1471 11992 11345 1 109.50000 418.400000
11287 11992 11345 1 109.50000 418.400000
1472 11993 1473 1 109.50000 418.400000
1472 11993 1474 1 109.50000 418.400000
1472 11993 1475 1 109.50000 418.400000
1473 11993 1474 1 109.50000 418.400000
1473 11993 1475 1 109.50000 418.400000
1474 11993 1475 1 109.50000 418.400000
1478 11994 1479 1 109.50000 418.400000
1478 11994 1480 1 109.50000 418.400000
1478 11994 1481 1 109.50000 418.400000
1479 11994 1480 1 109.50000 418.400000
1479 11994 1481 1 109.50000 418.400000
1480 11994 1481 1 109.50000 418.400000
1482 11995 1483 1 109.50000 418.400000
1482 11995 1484 1 109.50000 418.400000
1482 11995 1485 1 109.50000 418.400000
1483 11995 1484 1 109.50000 418.400000
1483 11995 1485 1 109.50000 418.400000
1484 11995 1485 1 109.50000 418.400000
1486 11996 1487 1 109.50000 418.400000
1486 11996 1488 1 109.50000 418.400000
1486 11996 1489 1 109.50000 418.400000
1487 11996 1488 1 109.50000 418.400000
1487 11996 1489 1 109.50000 418.400000
1488 11996 1489 1 109.50000 418.400000
1490 11997 1491 1 109.50000 418.400000
1490 11997 1492 1 109.50000 418.400000
1490 11997 1493 1 109.50000 418.400000
1491 11997 1492 1 109.50000 418.400000
1491 11997 1493 1 109.50000 418.400000
1492 11997 1493 1 109.50000 418.400000
1494 11998 1495 1 109.50000 418.400000
1494 11998 1496 1 109.50000 418.400000
1494 11998 1497 1 109.50000 418.400000
1495 11998 1496 1 109.50000 418.400000
1495 11998 1497 1 109.50000 418.400000
1496 11998 1497 1 109.50000 418.400000
1498 11999 1500 1 109.50000 418.400000
1498 11999 1501 1 109.50000 418.400000
1498 11999 3617 1 109.50000 418.400000
1500 11999 1501 1 109.50000 418.400000
1500 11999 3617 1 109.50000 418.400000
1501 11999 3617 1 109.50000 418.400000
1502 12000 1503 1 109.50000 418.400000
1502 12000 1504 1 109.50000 418.400000
1502 12000 1505 1 109.50000 418.400000
1503 12000 1504 1 109.50000 418.400000
1503 12000 1505 1 109.50000 418.400000
1504 12000 1505 1 109.50000 418.400000
1506 12001 1507 1 109.50000 418.400000
1506 12001 1508 1 109.50000 418.400000
1506 12001 1509 1 109.50000 418.400000
1507 12001 1508 1 109.50000 418.400000
1507 12001 1509 1 109.50000 418.400000
1508 12001 1509 1 109.50000 418.400000
1510 12002 1511 1 109.50000 418.400000
1510 12002 1512 1 109.50000 418.400000
1510 12002 1513 1 109.50000 418.400000
1511 12002 1512 1 109.50000 418.400000
1511 12002 1513 1 109.50000 418.400000
1512 12002 1513 1 109.50000 418.400000
1514 12003 1515 1 109.50000 418.400000
1514 12003 1516 1 109.50000 418.400000
1514 12003 1517 1 109.50000 418.400000
1515 12003 1516 1 109.50000 418.400000
1515 12003 1517 1 109.50000 418.400000
1516 12003 1517 1 109.50000 418.400000
1518 12004 1519 1 109.50000 418.400000
1518 12004 1520 1 109.50000 418.400000
1518 12004 1521 1 109.50000 418.400000
1519 12004 1520 1 109.50000 418.400000
1519 12004 1521 1 109.50000 418.400000
1520 12004 1521 1 109.50000 418.400000
1522 12005 1523 1 109.50000 418.400000
1522 12005 1524 1 109.50000 418.400000
1522 12005 1525 1 109.50000 418.400000
1523 12005 1524 1 109.50000 418.400000
1523 12005 1525 1 109.50000 418.400000
1524 12005 1525 1 109.50000 418.400000
1526 12006 1527 1 109.50000 418.400000
1526 12006 1528 1 109.50000 418.400000
1526 12006 1529 1 109.50000 418.400000
1527 12006 1528 1 109.50000 418.400000
1527 12006 1529 1 109.50000 418.400000
1528 12006 1529 1 109.50000 418.400000
1530 12007 1531 1 109.50000 418.400000
1530 12007 1532 1 109.50000 418.400000
1530 12007 1533 1 109.50000 418.400000
1531 12007 1532 1 109.50000 418.400000
1531 12007 1533 1 109.50000 418.400000
1532 12007 1533 1 109.50000 418.400000
1534 12008 1535 1 109.50000 418.400000
1534 12008 1536 1 109.50000 418.400000
1534 12008 1537 1 109.50000 418.400000
1535 12008 1536 1 109.50000 418.400000
1535 12008 1537 1 109.50000 418.400000
1536 12008 1537 1 109.50000 418.400000
1308 12009 1538 1 109.50000 418.400000
1308 12009 1539 1 109.50000 418.400000
1308 12009 1540 1 109.50000 418.400000
1538 12009 1539 1 109.50000 418.400000
1538 12009 1540 1 109.50000 418.400000
1539 12009 1540 1 109.50000 418.400000
1541 12010 1542 1 109.50000 418.400000
1541 12010 11270 1 109.50000 418.400000
1541 12010 11412 1 109.50000 418.400000
1542 12010 11270 1 109.50000 418.400000
1542 12010 11412 1 109.50000 418.400000
11270 12010 11412 1 109.50000 418.400000
1543 12011 1544 1 109.50000 418.400000
1543 12011 1545 1 109.50000 418.400000
1543 12011 1546 1 109.50000 418.400000
1544 12011 1545 1 109.50000 418.400000
1544 12011 1546 1 109.50000 418.400000
1545 12011 1546 1 109.50000 418.400000
1547 12012 1548 1 109.50000 418.400000
1547 12012 1549 1 109.50000 418.400000
1547 12012 1550 1 109.50000 418.400000
1548 12012 1549 1 109.50000 418.400000
1548 12012 1550 1 109.50000 418.400000
1549 12012 1550 1 109.50000 418.400000
1551 12013 1552 1 109.50000 418.400000
1551 12013 1553 1 109.50000 418.400000
1551 12013 1554 1 109.50000 418.400000
1552 12013 1553 1 109.50000 418.400000
1552 12013 1554 1 109.50000 418.400000
1553 12013 1554 1 109.50000 418.400000
1555 12014 1556 1 109.50000 418.400000
1555 12014 1557 1 109.50000 418.400000
1555 12014 1558 1 109.50000 418.400000
1556 12014 1557 1 109.50000 418.400000
1556 12014 1558 1 109.50000 418.400000
1557 12014 1558 1 109.50000 418.400000
1559 12015 1560 1 109.50000 418.400000
1559 12015 1561 1 109.50000 418.400000
1559 12015 1562 1 109.50000 418.400000
1560 12015 1561 1 109.50000 418.400000
1560 12015 1562 1 109.50000 418.400000
1561 12015 1562 1 109.50000 418.400000
1563 12016 1564 1 109.50000 418.400000
1563 12016 1565 1 109.50000 418.400000
1563 12016 1566 1 109.50000 418.400000
1564 12016 1565 1 109.50000 418.400000
1564 12016 1566 1 109.50000 418.400000
1565 12016 1566 1 109.50000 418.400000
1567 12017 1569 1 109.50000 418.400000
1567 12017 1570 1 109.50000 418.400000
1567 12017 3972 1 109.50000 418.400000
1569 12017 1570 1 109.50000 418.400000
1569 12017 3972 1 109.50000 418.400000
1570 12017 3972 1 109.50000 418.400000
1571 12018 1572 1 109.50000 418.400000
1571 12018 1573 1 109.50000 418.400000
1571 12018 1574 1 109.50000 418.400000
1572 12018 1573 1 109.50000 418.400000
1572 12018 1574 1 109.50000 418.400000
1573 12018 1574 1 109.50000 418.400000
1116 12019 1575 1 109.50000 418.400000
1116 12019 1577 1 109.50000 418.400000
1116 12019 1578 1 109.50000 418.400000
1575 12019 1577 1 109.50000 418.400000
1575 12019 1578 1 109.50000 418.400000
1577 12019 1578 1 109.50000 418.400000
1579 12020 1580 1 109.50000 418.400000
1579 12020 1581 1 109.50000 418.400000
1579 12020 1582 1 109.50000 418.400000
1580 12020 1581 1 109.50000 418.400000
1580 12020 1582 1 109.50000 418.400000
1581 12020 1582 1 109.50000 418.400000
208 12021 1583 1 109.50000 418.400000
208 12021 1584 1 109.50000 418.400000
208 12021 1585 1 109.50000 418.400000
1583 12021 1584 1 109.50000 418.400000
1583 12021 1585 1 109.50000 418.400000
1584 12021 1585 1 109.50000 418.400000
1052 12022 1586 1 109.50000 418.400000
1052 12022 1587 1 109.50000 418.400000
1052 12022 10998 1 109.50000 418.400000
1586 12022 1587 1 109.50000 418.400000
1586 12022 10998 1 109.50000 418.400000
1587 12022 10998 1 109.50000 418.400000
1589 12023 1590 1 109.50000 418.400000
1589 12023 1591 1 109.50000 418.400000
1589 12023 1592 1 109.50000 418.400000
1590 12023 1591 1 109.50000 418.400000
1590 12023 1592 1 109.50000 418.400000
1591 12023 1592 1 109.50000 418.400000
9 12024 1593 1 109.50000 418.400000
9 12024 1594 1 109.50000 418.400000
9 12024 1595 1 109.50000 418.400000
1593 12024 1594 1 109.50000 418.400000
1593 12024 1595 1 109.50000 418.400000
1594 12024 1595 1 109.50000 418.400000
226 12025 1596 1 109.50000 418.400000
226 12025 1597 1 109.50000 418.400000
226 12025 1598 1 109.50000 418.400000
1596 12025 1597 1 109.50000 418.400000
1596 12025 1598 1 109.50000 418.400000
1597 12025 1598 1 109.50000 418.400000
946 12026 1599 1 109.50000 418.400000
946 12026 1600 1 109.50000 418.400000
946 12026 1601 1 109.50000 418.400000
1599 12026 1600 1 109.50000 418.400000
1599 12026 1601 1 109.50000 418.400000
1600 12026 1601 1 109.50000 418.400000
113 12027 1602 1 109.50000 418.400000
113 12027 1603 1 109.50000 418.400000
113 12027 1604 1 109.50000 418.400000
1602 12027 1603 1 109.50000 418.400000
1602 12027 1604 1 109.50000 418.400000
1603 12027 1604 1 109.50000 418.400000
1605 12028 1606 1 109.50000 418.400000
1605 12028 1607 1 109.50000 418.400000
1605 12028 1608 1 109.50000 418.400000
1606 12028 1607 1 109.50000 418.400000
1606 12028 1608 1 109.50000 418.400000
1607 12028 1608 1 109.50000 418.400000
1609 12029 1610 1 109.50000 418.400000
1609 12029 1611 1 109.50000 418.400000
1609 12029 7765 1 109.50000 418.400000
1610 12029 1611 1 109.50000 418.400000
1610 12029 7765 1 109.50000 418.400000
1611 12029 7765 1 109.50000 418.400000
1187 12030 1613 1 109.50000 418.400000
1187 12030 1614 1 109.50000 418.400000
1187 12030 1615 1 109.50000 418.400000
1613 12030 1614 1 109.50000 418.400000
1613 12030 1615 1 109.50000 418.400000
1614 12030 1615 1 109.50000 418.400000
345 12031 1616 1 109.50000 418.400000
345 12031 1617 1 109.50000 418.400000
345 12031 1618 1 109.50000 418.400000
1616 12031 1617 1 109.50000 418.400000
1616 12031 1618 1 109.50000 418.400000
1617 12031 1618 1 109.50000 418.400000
1620 12032 1621 1 109.50000 418.400000
1620 12032 1622 1 109.50000 418.400000
1620 12032 2338 1 109.50000 418.400000
1621 12032 1622 1 109.50000 418.400000
1621 12032 2338 1 109.50000 418.400000
1622 12032 2338 1 109.50000 418.400000
1623 12033 1624 1 109.50000 418.400000
1623 12033 1625 1 109.50000 418.400000
1623 12033 11266 1 109.50000 418.400000
1624 12033 1625 1 109.50000 418.400000
1624 12033 11266 1 109.50000 418.400000
1625 12033 11266 1 109.50000 418.400000
1626 12034 1627 1 109.50000 418.400000
1626 12034 1628 1 109.50000 418.400000
1626 12034 1629 1 109.50000 418.400000
1627 12034 1628 1 109.50000 418.400000
1627 12034 1629 1 109.50000 418.400000
1628 12034 1629 1 109.50000 418.400000
1630 12035 1631 1 109.50000 418.400000
1630 12035 1632 1 109.50000 418.400000
1630 12035 8057 1 109.50000 418.400000
1631 12035 1632 1 109.50000 418.400000
1631 12035 8057 1 109.50000 418.400000
1632 12035 8057 1 109.50000 418.400000
1637 12036 1638 1 109.50000 418.400000
1637 12036 1639 1 109.50000 418.400000
1637 12036 1640 1 109.50000 418.400000
1638 12036 1639 1 109.50000 418.400000
1638 12036 1640 1 109.50000 418.400000
1639 12036 1640 1 109.50000 418.400000
79 12037 1641 1 109.50000 418.400000
79 12037 1642 1 109.50000 418.400000
79 12037 1643 1 109.50000 418.400000
1641 12037 1642 1 109.50000 418.400000
1641 12037 1643 1 109.50000 418.400000
1642 12037 1643 1 109.50000 418.400000
1644 12038 1645 1 109.50000 418.400000
1644 12038 1646 1 109.50000 418.400000
1644 12038 11584 1 109.50000 418.400000
1645 12038 1646 1 109.50000 418.400000
1645 12038 11584 1 109.50000 418.400000
1646 12038 11584 1 109.50000 418.400000
328 12039 995 1 109.50000 418.400000
328 12039 3056 1 109.50000 418.400000
328 12039 3577 1 109.50000 418.400000
995 12039 3056 1 109.50000 418.400000
995 12039 3577 1 109.50000 418.400000
3056 12039 3577 1 109.50000 418.400000
1650 12040 1651 1 109.50000 418.400000
1650 12040 11243 1 109.50000 418.400000
1650 12040 11302 1 109.50000 418.400000
1651 12040 11243 1 109.50000 418.400000
1651 12040 11302 1 109.50000 418.400000
11243 12040 11302 1 109.50000 418.400000
1652 12041 1653 1 109.50000 418.400000
1652 12041 1654 1 109.50000 418.400000
1652 12041 11358 1 109.50000 418.400000
1653 12041 1654 1 109.50000 418.400000
1653 12041 11358 1 109.50000 418.400000
1654 12041 11358 1 109.50000 418.400000
1656 12042 1657 1 109.50000 418.400000
1656 12042 1658 1 109.50000 418.400000
1656 12042 1659 1 109.50000 418.400000
1657 12042 1658 1 109.50000 418.400000
1657 12042 1659 1 109.50000 418.400000
1658 12042 1659 1 109.50000 418.400000
1660 12043 1661 1 109.50000 418.400000
1660 12043 1662 1 109.50000 418.400000
1660 12043 1663 1 109.50000 418.400000
1661 12043 1662 1 109.50000 418.400000
1661 12043 1663 1 109.50000 418.400000
1662 12043 1663 1 109.50000 418.400000
1664 12044 1665 1 109.50000 418.400000
1664 12044 1666 1 109.50000 418.400000
1664 12044 1667 1 109.50000 418.400000
1665 12044 1666 1 109.50000 418.400000
1665 12044 1667 1 109.50000 418.400000
1666 12044 1667 1 109.50000 418.400000
1668 12045 1669 1 109.50000 418.400000
1668 12045 1670 1 109.50000 418.400000
1668 12045 1671 1 109.50000 418.400000
1669 12045 1670 1 109.50000 418.400000
1669 12045 1671 1 109.50000 418.400000
1670 12045 1671 1 109.50000 418.400000
646 12046 1619 1 109.50000 418.400000
646 12046 1672 1 109.50000 418.400000
646 12046 1673 1 109.50000 418.400000
1619 12046 1672 1 109.50000 418.400000
1619 12046 1673 1 109.50000 418.400000
1672 12046 1673 1 109.50000 418.400000
1674 12047 1675 1 109.50000 418.400000
1674 12047 1676 1 109.50000 418.400000
1674 12047 1677 1 109.50000 418.400000
1675 12047 1676 1 109.50000 418.400000
1675 12047 1677 1 109.50000 418.400000
1676 12047 1677 1 109.50000 418.400000
153 12048 1678 1 109.50000 418.400000
153 12048 1679 1 109.50000 418.400000
153 12048 1680 1 109.50000 418.400000
1678 12048 1679 1 109.50000 418.400000
1678 12048 1680 1 109.50000 418.400000
1679 12048 1680 1 109.50000 418.400000
1344 12049 1681 1 109.50000 418.400000
1344 12049 1682 1 109.50000 418.400000
1344 12049 1683 1 109.50000 418.400000
1681 12049 1682 1 109.50000 418.400000
1681 12049 1683 1 109.50000 418.400000
1682 12049 1683 1 109.50000 418.400000
1685 12050 7198 1 109.50000 418.400000
1685 12050 10902 1 109.50000 418.400000
1685 12050 11326 1 109.50000 418.400000
7198 12050 10902 1 109.50000 418.400000
7198 12050 11326 1 109.50000 418.400000
10902 12050 11326 1 109.50000 418.400000
1687 12051 1688 1 109.50000 418.400000
1687 12051 8376 1 109.50000 418.400000
1687 12051 11588 1 109.50000 418.400000
1688 12051 8376 1 109.50000 418.400000
1688 12051 11588 1 109.50000 418.400000
8376 12051 11588 1 109.50000 418.400000
1692 12052 1693 1 109.50000 418.400000
1692 12052 1694 1 109.50000 418.400000
1692 12052 1695 1 109.50000 418.400000
1693 12052 1694 1 109.50000 418.400000
1693 12052 1695 1 109.50000 418.400000
1694 12052 1695 1 109.50000 418.400000
1697 12053 1698 1 109.50000 418.400000
1697 12053 1699 1 109.50000 418.400000
1697 12053 4081 1 109.50000 418.400000
1698 12053 1699 1 109.50000 418.400000
1698 12053 4081 1 109.50000 418.400000
1699 12053 4081 1 109.50000 418.400000
1700 12054 1701 1 109.50000 418.400000
1700 12054 1702 1 109.50000 418.400000
1700 12054 1703 1 109.50000 418.400000
1701 12054 1702 1 109.50000 418.400000
1701 12054 1703 1 109.50000 418.400000
1702 12054 1703 1 109.50000 418.400000
1704 12055 1705 1 109.50000 418.400000
1704 12055 1706 1 109.50000 418.400000
1704 12055 1707 1 109.50000 418.400000
1705 12055 1706 1 109.50000 418.400000
1705 12055 1707 1 109.50000 418.400000
1706 12055 1707 1 109.50000 418.400000
811 12056 1708 1 109.50000 418.400000
811 12056 1709 1 109.50000 418.400000
811 12056 1710 1 109.50000 418.400000
1708 12056 1709 1 109.50000 418.400000
1708 12056 1710 1 109.50000 418.400000
1709 12056 1710 1 109.50000 418.400000
250 12057 1711 1 109.50000 418.400000
250 12057 1713 1 109.50000 418.400000
250 12057 1714 1 109.50000 418.400000
1711 12057 1713 1 109.50000 418.400000
1711 12057 1714 1 109.50000 418.400000
1713 12057 1714 1 109.50000 418.400000
560 12058 1715 1 109.50000 418.400000
560 12058 1716 1 109.50000 418.400000
560 12058 1717 1 109.50000 418.400000
1715 12058 1716 1 109.50000 418.400000
1715 12058 1717 1 109.50000 418.400000
1716 12058 1717 1 109.50000 418.400000
1719 12059 1722 1 109.50000 418.400000
1719 12059 5451 1 109.50000 418.400000
1719 12059 5452 1 109.50000 418.400000
1722 12059 5451 1 109.50000 418.400000
1722 12059 5452 1 109.50000 418.400000
5451 12059 5452 1 109.50000 418.400000
1723 12060 1724 1 109.50000 418.400000
1723 12060 1725 1 109.50000 418.400000
1723 12060 1726 1 109.50000 418.400000
1724 12060 1725 1 109.50000 418.400000
1724 12060 1726 1 109.50000 418.400000
1725 12060 1726 1 109.50000 418.400000
973 12061 1728 1 109.50000 418.400000
973 12061 1729 1 109.50000 418.400000
973 12061 1730 1 109.50000 418.400000
1728 12061 1729 1 109.50000 418.400000
1728 12061 1730 1 109.50000 418.400000
1729 12061 1730 1 109.50000 418.400000
1731 12062 1732 1 109.50000 418.400000
1731 12062 1733 1 109.50000 418.400000
1731 12062 1734 1 109.50000 418.400000
1732 12062 1733 1 109.50000 418.400000
1732 12062 1734 1 109.50000 418.400000
1733 12062 1734 1 109.50000 418.400000
1735 12063 1736 1 109.50000 418.400000
1735 12063 1737 1 109.50000 418.400000
1735 12063 11520 1 109.50000 418.400000
1736 12063 1737 1 109.50000 418.400000
1736 12063 11520 1 109.50000 418.400000
1737 12063 11520 1 109.50000 418.400000
1738 12064 1739 1 109.50000 418.400000
1738 12064 8581 1 109.50000 418.400000
1738 12064 10835 1 109.50000 418.400000
1739 12064 8581 1 109.50000 418.400000
1739 12064 10835 1 109.50000 418.400000
8581 12064 10835 1 109.50000 418.400000
1742 12065 8259 1 109.50000 418.400000
1742 12065 11359 1 109.50000 418.400000
1742 12065 11368 1 109.50000 418.400000
8259 12065 11359 1 109.50000 418.400000
8259 12065 11368 1 109.50000 418.400000
11359 12065 11368 1 109.50000 418.400000
1743 12066 1744 1 109.50000 418.400000
1743 12066 1745 1 109.50000 418.400000
1743 12066 1746 1 109.50000 418.400000
1744 12066 1745 1 109.50000 418.400000
1744 12066 1746 1 109.50000 418.400000
1745 12066 1746 1 109.50000 418.400000
691 12067 692 1 109.50000 418.400000
691 12067 1747 1 109.50000 418.400000
691 12067 1748 1 109.50000 418.400000
692 12067 1747 1 109.50000 418.400000
692 12067 1748 1 109.50000 418.400000
1747 12067 1748 1 109.50000 418.400000
1751 12068 1752 1 109.50000 418.400000
1751 12068 1753 1 109.50000 418.400000
1751 12068 11478 1 109.50000 418.400000
1752 12068 1753 1 109.50000 418.400000
1752 12068 11478 1 109.50000 418.400000
1753 12068 11478 1 109.50000 418.400000
1754 12069 1755 1 109.50000 418.400000
1754 12069 1756 1 109.50000 418.400000
1754 12069 1757 1 109.50000 418.400000
1755 12069 1756 1 109.50000 418.400000
1755 12069 1757 1 109.50000 418.400000
1756 12069 1757 1 109.50000 418.400000
1299 12070 1761 1 109.50000 418.400000
1299 12070 1762 1 109.50000 418.400000
1299 12070 1763 1 109.50000 418.400000
1761 12070 1762 1 109.50000 418.400000
1761 12070 1763 1 109.50000 418.400000
1762 12070 1763 1 109.50000 418.400000
1764 12071 1765 1 109.50000 418.400000
1764 12071 1766 1 109.50000 418.400000
1764 12071 1767 1 109.50000 418.400000
1765 12071 1766 1 109.50000 418.400000
1765 12071 1767 1 109.50000 418.400000
1766 12071 1767 1 109.50000 418.400000
1768 12072 1769 1 109.50000 418.400000
1768 12072 1770 1 109.50000 418.400000
1768 12072 1771 1 109.50000 418.400000
1769 12072 1770 1 109.50000 418.400000
1769 12072 1771 1 109.50000 418.400000
1770 12072 1771 1 109.50000 418.400000
1772 12073 1773 1 109.50000 418.400000
1772 12073 1774 1 109.50000 418.400000
1772 12073 1775 1 109.50000 418.400000
1773 12073 1774 1 109.50000 418.400000
1773 12073 1775 1 109.50000 418.400000
1774 12073 1775 1 109.50000 418.400000
1258 12074 1776 1 109.50000 418.400000
1258 12074 1777 1 109.50000 418.400000
1258 12074 11242 1 109.50000 418.400000
1776 12074 1777 1 109.50000 418.400000
1776 12074 11242 1 109.50000 418.400000
1777 12074 11242 1 109.50000 418.400000
1601 12075 1778 1 109.50000 418.400000
1601 12075 1779 1 109.50000 418.400000
1601 12075 1780 1 109.50000 418.400000
1778 12075 1779 1 109.50000 418.400000
1778 12075 1780 1 109.50000 418.400000
1779 12075 1780 1 109.50000 418.400000
1781 12076 1782 1 109.50000 418.400000
1781 12076 1783 1 109.50000 418.400000
1781 12076 1784 1 109.50000 418.400000
1782 12076 1783 1 109.50000 418.400000
1782 12076 1784 1 109.50000 418.400000
1783 12076 1784 1 109.50000 418.400000
640 12077 1785 1 109.50000 418.400000
640 12077 1786 1 109.50000 418.400000
640 12077 1787 1 109.50000 418.400000
1785 12077 1786 1 109.50000 418.400000
1785 12077 1787 1 109.50000 418.400000
1786 12077 1787 1 109.50000 418.400000
1788 12078 1789 1 109.50000 418.400000
1788 12078 1790 1 109.50000 418.400000
1788 12078 1791 1 109.50000 418.400000
1789 12078 1790 1 109.50000 418.400000
1789 12078 1791 1 109.50000 418.400000
1790 12078 1791 1 109.50000 418.400000
1056 12079 1792 1 109.50000 418.400000
1056 12079 1793 1 109.50000 418.400000
1056 12079 1794 1 109.50000 418.400000
1792 12079 1793 1 109.50000 418.400000
1792 12079 1794 1 109.50000 418.400000
1793 12079 1794 1 109.50000 418.400000
1795 12080 1796 1 109.50000 418.400000
1795 12080 1797 1 109.50000 418.400000
1795 12080 1798 1 109.50000 418.400000
1796 12080 1797 1 109.50000 418.400000
1796 12080 1798 1 109.50000 418.400000
1797 12080 1798 1 109.50000 418.400000
1799 12081 1800 1 109.50000 418.400000
1799 12081 1801 1 109.50000 418.400000
1799 12081 1802 1 109.50000 418.400000
1800 12081 1801 1 109.50000 418.400000
1800 12081 1802 1 109.50000 418.400000
1801 12081 1802 1 109.50000 418.400000
1803 12082 1804 1 109.50000 418.400000
1803 12082 1805 1 109.50000 418.400000
1803 12082 1806 1 109.50000 418.400000
1804 12082 1805 1 109.50000 418.400000
1804 12082 1806 1 109.50000 418.400000
1805 12082 1806 1 109.50000 418.400000
1807 12083 1808 1 109.50000 418.400000
1807 12083 11217 1 109.50000 418.400000
1807 12083 11606 1 109.50000 418.400000
1808 12083 11217 1 109.50000 418.400000
1808 12083 11606 1 109.50000 418.400000
11217 12083 11606 1 109.50000 418.400000
1141 12084 1809 1 109.50000 418.400000
1141 12084 1810 1 109.50000 418.400000
1141 12084 1811 1 109.50000 418.400000
1809 12084 1810 1 109.50000 418.400000
1809 12084 1811 1 109.50000 418.400000
1810 12084 1811 1 109.50000 418.400000
1567 12085 1812 1 109.50000 418.400000
1567 12085 1813 1 109.50000 418.400000
1567 12085 1814 1 109.50000 418.400000
1812 12085 1813 1 109.50000 418.400000
1812 12085 1814 1 109.50000 418.400000
1813 12085 1814 1 109.50000 418.400000
1815 12086 1816 1 109.50000 418.400000
1815 12086 1817 1 109.50000 418.400000
1815 12086 1818 1 109.50000 418.400000
1816 12086 1817 1 109.50000 418.400000
1816 12086 1818 1 109.50000 418.400000
1817 12086 1818 1 109.50000 418.400000
59 12087 1819 1 109.50000 418.400000
59 12087 1820 1 109.50000 418.400000
59 12087 1821 1 109.50000 418.400000
1819 12087 1820 1 109.50000 418.400000
1819 12087 1821 1 109.50000 418.400000
1820 12087 1821 1 109.50000 418.400000
118 12088 1822 1 109.50000 418.400000
118 12088 1823 1 109.50000 418.400000
118 12088 1824 1 109.50000 418.400000
1822 12088 1823 1 109.50000 418.400000
1822 12088 1824 1 109.50000 418.400000
1823 12088 1824 1 109.50000 418.400000
1825 12089 1826 1 109.50000 418.400000
1825 12089 1827 1 109.50000 418.400000
1825 12089 1828 1 109.50000 418.400000
1826 12089 1827 1 109.50000 418.400000
1826 12089 1828 1 109.50000 418.400000
1827 12089 1828 1 109.50000 418.400000
1832 12090 1833 1 109.50000 418.400000
1832 12090 1834 1 109.50000 418.400000
1832 12090 1835 1 109.50000 418.400000
1833 12090 1834 1 109.50000 418.400000
1833 12090 1835 1 109.50000 418.400000
1834 12090 1835 1 109.50000 418.400000
116 12091 1836 1 109.50000 418.400000
116 12091 1837 1 109.50000 418.400000
116 12091 1838 1 109.50000 418.400000
1836 12091 1837 1 109.50000 418.400000
1836 12091 1838 1 109.50000 418.400000
1837 12091 1838 1 109.50000 418.400000
1839 12092 1840 1 109.50000 418.400000
1839 12092 1841 1 109.50000 418.400000
1839 12092 1842 1 109.50000 418.400000
1840 12092 1841 1 109.50000 418.400000
1840 12092 1842 1 109.50000 418.400000
1841 12092 1842 1 109.50000 418.400000
1843 12093 1844 1 109.50000 418.400000
1843 12093 1845 1 109.50000 418.400000
1843 12093 1846 1 109.50000 418.400000
1844 12093 1845 1 109.50000 418.400000
1844 12093 1846 1 109.50000 418.400000
1845 12093 1846 1 109.50000 418.400000
1847 12094 1848 1 109.50000 418.400000
1847 12094 1849 1 109.50000 418.400000
1847 12094 1850 1 109.50000 418.400000
1848 12094 1849 1 109.50000 418.400000
1848 12094 1850 1 109.50000 418.400000
1849 12094 1850 1 109.50000 418.400000
1851 12095 1852 1 109.50000 418.400000
1851 12095 1853 1 109.50000 418.400000
1851 12095 1854 1 109.50000 418.400000
1852 12095 1853 1 109.50000 418.400000
1852 12095 1854 1 109.50000 418.400000
1853 12095 1854 1 109.50000 418.400000
126 12096 1855 1 109.50000 418.400000
126 12096 1856 1 109.50000 418.400000
126 12096 1857 1 109.50000 418.400000
1855 12096 1856 1 109.50000 418.400000
1855 12096 1857 1 109.50000 418.400000
1856 12096 1857 1 109.50000 418.400000
1859 12097 1860 1 109.50000 418.400000
1859 12097 1861 1 109.50000 418.400000
1859 12097 1862 1 109.50000 418.400000
1860 12097 1861 1 109.50000 418.400000
1860 12097 1862 1 109.50000 418.400000
1861 12097 1862 1 109.50000 418.400000
1863 12098 1864 1 109.50000 418.400000
1863 12098 1865 1 109.50000 418.400000
1863 12098 11517 1 109.50000 418.400000
1864 12098 1865 1 109.50000 418.400000
1864 12098 11517 1 109.50000 418.400000
1865 12098 11517 1 109.50000 418.400000
1868 12099 1869 1 109.50000 418.400000
1868 12099 1870 1 109.50000 418.400000
1868 12099 1871 1 109.50000 418.400000
1869 12099 1870 1 109.50000 418.400000
1869 12099 1871 1 109.50000 418.400000
1870 12099 1871 1 109.50000 418.400000
1872 12100 1873 1 109.50000 418.400000
1872 12100 1874 1 109.50000 418.400000
1872 12100 1875 1 109.50000 418.400000
1873 12100 1874 1 109.50000 418.400000
1873 12100 1875 1 109.50000 418.400000
1874 12100 1875 1 109.50000 418.400000
1876 12101 1877 1 109.50000 418.400000
1876 12101 1878 1 109.50000 418.400000
1876 12101 11271 1 109.50000 418.400000
1877 12101 1878 1 109.50000 418.400000
1877 12101 11271 1 109.50000 418.400000
1878 12101 11271 1 109.50000 418.400000
1879 12102 1880 1 109.50000 418.400000
1879 12102 1881 1 109.50000 418.400000
1879 12102 1882 1 109.50000 418.400000
1880 12102 1881 1 109.50000 418.400000
1880 12102 1882 1 109.50000 418.400000
1881 12102 1882 1 109.50000 418.400000
128 12103 1883 1 109.50000 418.400000
128 12103 1884 1 109.50000 418.400000
128 12103 1885 1 109.50000 418.400000
1883 12103 1884 1 109.50000 418.400000
1883 12103 1885 1 109.50000 418.400000
1884 12103 1885 1 109.50000 418.400000
1247 12104 1886 1 109.50000 418.400000
1247 12104 1887 1 109.50000 418.400000
1247 12104 1888 1 109.50000 418.400000
1886 12104 1887 1 109.50000 418.400000
1886 12104 1888 1 109.50000 418.400000
1887 12104 1888 1 109.50000 418.400000
1889 12105 1890 1 109.50000 418.400000
1889 12105 1891 1 109.50000 418.400000
1889 12105 11372 1 109.50000 418.400000
1890 12105 1891 1 109.50000 418.400000
1890 12105 11372 1 109.50000 418.400000
1891 12105 11372 1 109.50000 418.400000
1892 12106 1893 1 109.50000 418.400000
1892 12106 1895 1 109.50000 418.400000
1892 12106 6178 1 109.50000 418.400000
1893 12106 1895 1 109.50000 418.400000
1893 12106 6178 1 109.50000 418.400000
1895 12106 6178 1 109.50000 418.400000
1898 12107 1899 1 109.50000 418.400000
1898 12107 1900 1 109.50000 418.400000
1898 12107 1901 1 109.50000 418.400000
1899 12107 1900 1 109.50000 418.400000
1899 12107 1901 1 109.50000 418.400000
1900 12107 1901 1 109.50000 418.400000
155 12108 1903 1 109.50000 418.400000
155 12108 1905 1 109.50000 418.400000
155 12108 5359 1 109.50000 418.400000
1903 12108 1905 1 109.50000 418.400000
1903 12108 5359 1 109.50000 418.400000
1905 12108 5359 1 109.50000 418.400000
1906 12109 1907 1 109.50000 418.400000
1906 12109 1908 1 109.50000 418.400000
1906 12109 1909 1 109.50000 418.400000
1907 12109 1908 1 109.50000 418.400000
1907 12109 1909 1 109.50000 418.400000
1908 12109 1909 1 109.50000 418.400000
1910 12110 1911 1 109.50000 418.400000
1910 12110 1913 1 109.50000 418.400000
1910 12110 8612 1 109.50000 418.400000
1911 12110 1913 1 109.50000 418.400000
1911 12110 8612 1 109.50000 418.400000
1913 12110 8612 1 109.50000 418.400000
1914 12111 1915 1 109.50000 418.400000
1914 12111 1916 1 109.50000 418.400000
1914 12111 1917 1 109.50000 418.400000
1915 12111 1916 1 109.50000 418.400000
1915 12111 1917 1 109.50000 418.400000
1916 12111 1917 1 109.50000 418.400000
396 12112 1416 1 109.50000 418.400000
396 12112 1918 1 109.50000 418.400000
396 12112 1919 1 109.50000 418.400000
1416 12112 1918 1 109.50000 418.400000
1416 12112 1919 1 109.50000 418.400000
1918 12112 1919 1 109.50000 418.400000
1920 12113 1921 1 109.50000 418.400000
1920 12113 1922 1 109.50000 418.400000
1920 12113 1923 1 109.50000 418.400000
1921 12113 1922 1 109.50000 418.400000
1921 12113 1923 1 109.50000 418.400000
1922 12113 1923 1 109.50000 418.400000
1925 12114 1926 1 109.50000 418.400000
1925 12114 7663 1 109.50000 418.400000
1925 12114 9010 1 109.50000 418.400000
1926 12114 7663 1 109.50000 418.400000
1926 12114 9010 1 109.50000 418.400000
7663 12114 9010 1 109.50000 418.400000
1929 12115 1931 1 109.50000 418.400000
1929 12115 5694 1 109.50000 418.400000
1929 12115 6737 1 109.50000 418.400000
1931 12115 5694 1 109.50000 418.400000
1931 12115 6737 1 109.50000 418.400000
5694 12115 6737 1 109.50000 418.400000
1932 12116 1933 1 109.50000 418.400000
1932 12116 1934 1 109.50000 418.400000
1932 12116 1935 1 109.50000 418.400000
1933 12116 1934 1 109.50000 418.400000
1933 12116 1935 1 109.50000 418.400000
1934 12116 1935 1 109.50000 418.400000
1364 12117 1936 1 109.50000 418.400000
1364 12117 1937 1 109.50000 418.400000
1364 12117 1938 1 109.50000 418.400000
1936 12117 1937 1 109.50000 418.400000
1936 12117 1938 1 109.50000 418.400000
1937 12117 1938 1 109.50000 418.400000
924 12118 1940 1 109.50000 418.400000
924 12118 1941 1 109.50000 418.400000
924 12118 1942 1 109.50000 418.400000
1940 12118 1941 1 109.50000 418.400000
1940 12118 1942 1 109.50000 418.400000
1941 12118 1942 1 109.50000 418.400000
1943 12119 1944 1 109.50000 418.400000
1943 12119 1945 1 109.50000 418.400000
1943 12119 5107 1 109.50000 418.400000
1944 12119 1945 1 109.50000 418.400000
1944 12119 5107 1 109.50000 418.400000
1945 12119 5107 1 109.50000 418.400000
375 12120 376 1 109.50000 418.400000
375 12120 378 1 109.50000 418.400000
375 12120 1947 1 109.50000 418.400000
376 12120 378 1 109.50000 418.400000
376 12120 1947 1 109.50000 418.400000
378 12120 1947 1 109.50000 418.400000
143 12121 1949 1 109.50000 418.400000
143 12121 1950 1 109.50000 418.400000
143 12121 1951 1 109.50000 418.400000
1949 12121 1950 1 109.50000 418.400000
1949 12121 1951 1 109.50000 418.400000
1950 12121 1951 1 109.50000 418.400000
1952 12122 1953 1 109.50000 418.400000
1952 12122 1954 1 109.50000 418.400000
1952 12122 1955 1 109.50000 418.400000
1953 12122 1954 1 109.50000 418.400000
1953 12122 1955 1 109.50000 418.400000
1954 12122 1955 1 109.50000 418.400000
1956 12123 1957 1 109.50000 418.400000
1956 12123 1958 1 109.50000 418.400000
1956 12123 1959 1 109.50000 418.400000
1957 12123 1958 1 109.50000 418.400000
1957 12123 1959 1 109.50000 418.400000
1958 12123 1959 1 109.50000 418.400000
1960 12124 1961 1 109.50000 418.400000
1960 12124 1962 1 109.50000 418.400000
1960 12124 1963 1 109.50000 418.400000
1961 12124 1962 1 109.50000 418.400000
1961 12124 1963 1 109.50000 418.400000
1962 12124 1963 1 109.50000 418.400000
1964 12125 1965 1 109.50000 418.400000
1964 12125 1966 1 109.50000 418.400000
1964 12125 1967 1 109.50000 418.400000
1965 12125 1966 1 109.50000 418.400000
1965 12125 1967 1 109.50000 418.400000
1966 12125 1967 1 109.50000 418.400000
677 12126 1968 1 109.50000 418.400000
677 12126 1969 1 109.50000 418.400000
677 12126 1970 1 109.50000 418.400000
1968 12126 1969 1 109.50000 418.400000
1968 12126 1970 1 109.50000 418.400000
1969 12126 1970 1 109.50000 418.400000
1971 12127 1972 1 109.50000 418.400000
1971 12127 1973 1 109.50000 418.400000
1971 12127 9727 1 109.50000 418.400000
1972 12127 1973 1 109.50000 418.400000
1972 12127 9727 1 109.50000 418.400000
1973 12127 9727 1 109.50000 418.400000
1976 12128 1977 1 109.50000 418.400000
1976 12128 1978 1 109.50000 418.400000
1976 12128 7177 1 109.50000 418.400000
1977 12128 1978 1 109.50000 418.400000
1977 12128 7177 1 109.50000 418.400000
1978 12128 7177 1 109.50000 418.400000
1979 12129 1980 1 109.50000 418.400000
1979 12129 1981 1 109.50000 418.400000
1979 12129 1982 1 109.50000 418.400000
1980 12129 1981 1 109.50000 418.400000
1980 12129 1982 1 109.50000 418.400000
1981 12129 1982 1 109.50000 418.400000
1983 12130 1984 1 109.50000 418.400000
1983 12130 1985 1 109.50000 418.400000
1983 12130 1986 1 109.50000 418.400000
1984 12130 1985 1 109.50000 418.400000
1984 12130 1986 1 109.50000 418.400000
1985 12130 1986 1 109.50000 418.400000
1987 12131 1988 1 109.50000 418.400000
1987 12131 1990 1 109.50000 418.400000
1987 12131 10974 1 109.50000 418.400000
1988 12131 1990 1 109.50000 418.400000
1988 12131 10974 1 109.50000 418.400000
1990 12131 10974 1 109.50000 418.400000
1991 12132 1992 1 109.50000 418.400000
1991 12132 1993 1 109.50000 418.400000
1991 12132 1994 1 109.50000 418.400000
1992 12132 1993 1 109.50000 418.400000
1992 12132 1994 1 109.50000 418.400000
1993 12132 1994 1 109.50000 418.400000
1995 12133 1996 1 109.50000 418.400000
1995 12133 1997 1 109.50000 418.400000
1995 12133 1998 1 109.50000 418.400000
1996 12133 1997 1 109.50000 418.400000
1996 12133 1998 1 109.50000 418.400000
1997 12133 1998 1 109.50000 418.400000
1999 12134 2000 1 109.50000 418.400000
1999 12134 2001 1 109.50000 418.400000
1999 12134 2002 1 109.50000 418.400000
2000 12134 2001 1 109.50000 418.400000
2000 12134 2002 1 109.50000 418.400000
2001 12134 2002 1 109.50000 418.400000
501 12135 2003 1 109.50000 418.400000
501 12135 2004 1 109.50000 418.400000
501 12135 2005 1 109.50000 418.400000
2003 12135 2004 1 109.50000 418.400000
2003 12135 2005 1 109.50000 418.400000
2004 12135 2005 1 109.50000 418.400000
1873 12136 2006 1 109.50000 418.400000
1873 12136 2007 1 109.50000 418.400000
1873 12136 2008 1 109.50000 418.400000
2006 12136 2007 1 109.50000 418.400000
2006 12136 2008 1 109.50000 418.400000
2007 12136 2008 1 109.50000 418.400000
2010 12137 2011 1 109.50000 418.400000
2010 12137 2012 1 109.50000 418.400000
2010 12137 2013 1 109.50000 418.400000
2011 12137 2012 1 109.50000 418.400000
2011 12137 2013 1 109.50000 418.400000
2012 12137 2013 1 109.50000 418.400000
2014 12138 2015 1 109.50000 418.400000
2014 12138 2016 1 109.50000 418.400000
2014 12138 2017 1 109.50000 418.400000
2015 12138 2016 1 109.50000 418.400000
2015 12138 2017 1 109.50000 418.400000
2016 12138 2017 1 109.50000 418.400000
1343 12139 2020 1 109.50000 418.400000
1343 12139 2021 1 109.50000 418.400000
1343 12139 2022 1 109.50000 418.400000
2020 12139 2021 1 109.50000 418.400000
2020 12139 2022 1 109.50000 418.400000
2021 12139 2022 1 109.50000 418.400000
2023 12140 2024 1 109.50000 418.400000
2023 12140 2025 1 109.50000 418.400000
2023 12140 2026 1 109.50000 418.400000
2024 12140 2025 1 109.50000 418.400000
2024 12140 2026 1 109.50000 418.400000
2025 12140 2026 1 109.50000 418.400000
2029 12141 2030 1 109.50000 418.400000
2029 12141 2031 1 109.50000 418.400000
2029 12141 2032 1 109.50000 418.400000
2030 12141 2031 1 109.50000 418.400000
2030 12141 2032 1 109.50000 418.400000
2031 12141 2032 1 109.50000 418.400000
2033 12142 2034 1 109.50000 418.400000
2033 12142 2035 1 109.50000 418.400000
2033 12142 2036 1 109.50000 418.400000
2034 12142 2035 1 109.50000 418.400000
2034 12142 2036 1 109.50000 418.400000
2035 12142 2036 1 109.50000 418.400000
2037 12143 2038 1 109.50000 418.400000
2037 12143 2039 1 109.50000 418.400000
2037 12143 2040 1 109.50000 418.400000
2038 12143 2039 1 109.50000 418.400000
2038 12143 2040 1 109.50000 418.400000
2039 12143 2040 1 109.50000 418.400000
1372 12144 2041 1 109.50000 418.400000
1372 12144 2042 1 109.50000 418.400000
1372 12144 11175 1 109.50000 418.400000
2041 12144 2042 1 109.50000 418.400000
2041 12144 11175 1 109.50000 418.400000
2042 12144 11175 1 109.50000 418.400000
2043 12145 2044 1 109.50000 418.400000
2043 12145 2045 1 109.50000 418.400000
2043 12145 11291 1 109.50000 418.400000
2044 12145 2045 1 109.50000 418.400000
2044 12145 11291 1 109.50000 418.400000
2045 12145 11291 1 109.50000 418.400000
2049 12146 2050 1 109.50000 418.400000
2049 12146 2051 1 109.50000 418.400000
2049 12146 2052 1 109.50000 418.400000
2050 12146 2051 1 109.50000 418.400000
2050 12146 2052 1 109.50000 418.400000
2051 12146 2052 1 109.50000 418.400000
290 12147 293 1 109.50000 418.400000
290 12147 2053 1 109.50000 418.400000
290 12147 2054 1 109.50000 418.400000
293 12147 2053 1 109.50000 418.400000
293 12147 2054 1 109.50000 418.400000
2053 12147 2054 1 109.50000 418.400000
2055 12148 2056 1 109.50000 418.400000
2055 12148 2057 1 109.50000 418.400000
2055 12148 2058 1 109.50000 418.400000
2056 12148 2057 1 109.50000 418.400000
2056 12148 2058 1 109.50000 418.400000
2057 12148 2058 1 109.50000 418.400000
393 12149 2059 1 109.50000 418.400000
393 12149 2060 1 109.50000 418.400000
393 12149 2061 1 109.50000 418.400000
2059 12149 2060 1 109.50000 418.400000
2059 12149 2061 1 109.50000 418.400000
2060 12149 2061 1 109.50000 418.400000
2062 12150 2063 1 109.50000 418.400000
2062 12150 2064 1 109.50000 418.400000
2062 12150 2065 1 109.50000 418.400000
2063 12150 2064 1 109.50000 418.400000
2063 12150 2065 1 109.50000 418.400000
2064 12150 2065 1 109.50000 418.400000
1813 12151 2067 1 109.50000 418.400000
1813 12151 2068 1 109.50000 418.400000
1813 12151 2069 1 109.50000 418.400000
2067 12151 2068 1 109.50000 418.400000
2067 12151 2069 1 109.50000 418.400000
2068 12151 2069 1 109.50000 418.400000
971 12152 2053 1 109.50000 418.400000
971 12152 2070 1 109.50000 418.400000
971 12152 2071 1 109.50000 418.400000
2053 12152 2070 1 109.50000 418.400000
2053 12152 2071 1 109.50000 418.400000
2070 12152 2071 1 109.50000 418.400000
806 12153 809 1 109.50000 418.400000
806 12153 2072 1 109.50000 418.400000
806 12153 2073 1 109.50000 418.400000
809 12153 2072 1 109.50000 418.400000
809 12153 2073 1 109.50000 418.400000
2072 12153 2073 1 109.50000 418.400000
2075 12154 2076 1 109.50000 418.400000
2075 12154 2077 1 109.50000 418.400000
2075 12154 2078 1 109.50000 418.400000
2076 12154 2077 1 109.50000 418.400000
2076 12154 2078 1 109.50000 418.400000
2077 12154 2078 1 109.50000 418.400000
456 12155 2079 1 109.50000 418.400000
456 12155 2080 1 109.50000 418.400000
456 12155 2081 1 109.50000 418.400000
2079 12155 2080 1 109.50000 418.400000
2079 12155 2081 1 109.50000 418.400000
2080 12155 2081 1 109.50000 418.400000
254 12156 1979 1 109.50000 418.400000
254 12156 2082 1 109.50000 418.400000
254 12156 2083 1 109.50000 418.400000
1979 12156 2082 1 109.50000 418.400000
1979 12156 2083 1 109.50000 418.400000
2082 12156 2083 1 109.50000 418.400000
2084 12157 2085 1 109.50000 418.400000
2084 12157 2086 1 109.50000 418.400000
2084 12157 2087 1 109.50000 418.400000
2085 12157 2086 1 109.50000 418.400000
2085 12157 2087 1 109.50000 418.400000
2086 12157 2087 1 109.50000 418.400000
2088 12158 2089 1 109.50000 418.400000
2088 12158 2090 1 109.50000 418.400000
2088 12158 2091 1 109.50000 418.400000
2089 12158 2090 1 109.50000 418.400000
2089 12158 2091 1 109.50000 418.400000
2090 12158 2091 1 109.50000 418.400000
2092 12159 2093 1 109.50000 418.400000
2092 12159 2094 1 109.50000 418.400000
2092 12159 2095 1 109.50000 418.400000
2093 12159 2094 1 109.50000 418.400000
2093 12159 2095 1 109.50000 418.400000
2094 12159 2095 1 109.50000 418.400000
854 12160 2098 1 109.50000 418.400000
854 12160 2100 1 109.50000 418.400000
854 12160 7646 1 109.50000 418.400000
2098 12160 2100 1 109.50000 418.400000
2098 12160 7646 1 109.50000 418.400000
2100 12160 7646 1 109.50000 418.400000
1854 12161 2101 1 109.50000 418.400000
1854 12161 2102 1 109.50000 418.400000
1854 12161 2103 1 109.50000 418.400000
2101 12161 2102 1 109.50000 418.400000
2101 12161 2103 1 109.50000 418.400000
2102 12161 2103 1 109.50000 418.400000
1016 12162 2104 1 109.50000 418.400000
1016 12162 2105 1 109.50000 418.400000
1016 12162 2106 1 109.50000 418.400000
2104 12162 2105 1 109.50000 418.400000
2104 12162 2106 1 109.50000 418.400000
2105 12162 2106 1 109.50000 418.400000
2109 12163 2110 1 109.50000 418.400000
2109 12163 2111 1 109.50000 418.400000
2109 12163 2112 1 109.50000 418.400000
2110 12163 2111 1 109.50000 418.400000
2110 12163 2112 1 109.50000 418.400000
2111 12163 2112 1 109.50000 418.400000
2113 12164 2114 1 109.50000 418.400000
2113 12164 2115 1 109.50000 418.400000
2113 12164 2116 1 109.50000 418.400000
2114 12164 2115 1 109.50000 418.400000
2114 12164 2116 1 109.50000 418.400000
2115 12164 2116 1 109.50000 418.400000
2118 12165 2119 1 109.50000 418.400000
2118 12165 2120 1 109.50000 418.400000
2118 12165 3655 1 109.50000 418.400000
2119 12165 2120 1 109.50000 418.400000
2119 12165 3655 1 109.50000 418.400000
2120 12165 3655 1 109.50000 418.400000
2121 12166 2122 1 109.50000 418.400000
2121 12166 2123 1 109.50000 418.400000
2121 12166 2124 1 109.50000 418.400000
2122 12166 2123 1 109.50000 418.400000
2122 12166 2124 1 109.50000 418.400000
2123 12166 2124 1 109.50000 418.400000
528 12167 1346 1 109.50000 418.400000
528 12167 2125 1 109.50000 418.400000
528 12167 2126 1 109.50000 418.400000
1346 12167 2125 1 109.50000 418.400000
1346 12167 2126 1 109.50000 418.400000
2125 12167 2126 1 109.50000 418.400000
2127 12168 2128 1 109.50000 418.400000
2127 12168 2129 1 109.50000 418.400000
2127 12168 2130 1 109.50000 418.400000
2128 12168 2129 1 109.50000 418.400000
2128 12168 2130 1 109.50000 418.400000
2129 12168 2130 1 109.50000 418.400000
1195 12169 1940 1 109.50000 418.400000
1195 12169 2131 1 109.50000 418.400000
1195 12169 2132 1 109.50000 418.400000
1940 12169 2131 1 109.50000 418.400000
1940 12169 2132 1 109.50000 418.400000
2131 12169 2132 1 109.50000 418.400000
2133 12170 2134 1 109.50000 418.400000
2133 12170 2135 1 109.50000 418.400000
2133 12170 2136 1 109.50000 418.400000
2134 12170 2135 1 109.50000 418.400000
2134 12170 2136 1 109.50000 418.400000
2135 12170 2136 1 109.50000 418.400000
985 12171 2137 1 109.50000 418.400000
985 12171 2138 1 109.50000 418.400000
985 12171 2139 1 109.50000 418.400000
2137 12171 2138 1 109.50000 418.400000
2137 12171 2139 1 109.50000 418.400000
2138 12171 2139 1 109.50000 418.400000
2140 12172 2141 1 109.50000 418.400000
2140 12172 2142 1 109.50000 418.400000
2140 12172 2143 1 109.50000 418.400000
2141 12172 2142 1 109.50000 418.400000
2141 12172 2143 1 109.50000 418.400000
2142 12172 2143 1 109.50000 418.400000
2144 12173 2145 1 109.50000 418.400000
2144 12173 2146 1 109.50000 418.400000
2144 12173 2147 1 109.50000 418.400000
2145 12173 2146 1 109.50000 418.400000
2145 12173 2147 1 109.50000 418.400000
2146 12173 2147 1 109.50000 418.400000
2148 12174 7897 1 109.50000 418.400000
2148 12174 11211 1 109.50000 418.400000
2148 12174 11590 1 109.50000 418.400000
7897 12174 11211 1 109.50000 418.400000
7897 12174 11590 1 109.50000 418.400000
11211 12174 11590 1 109.50000 418.400000
1625 12175 2149 1 109.50000 418.400000
1625 12175 2150 1 109.50000 418.400000
1625 12175 2151 1 109.50000 418.400000
2149 12175 2150 1 109.50000 418.400000
2149 12175 2151 1 109.50000 418.400000
2150 12175 2151 1 109.50000 418.400000
2152 12176 2153 1 109.50000 418.400000
2152 12176 2154 1 109.50000 418.400000
2152 12176 2155 1 109.50000 418.400000
2153 12176 2154 1 109.50000 418.400000
2153 12176 2155 1 109.50000 418.400000
2154 12176 2155 1 109.50000 418.400000
927 12177 2156 1 109.50000 418.400000
927 12177 2157 1 109.50000 418.400000
927 12177 2158 1 109.50000 418.400000
2156 12177 2157 1 109.50000 418.400000
2156 12177 2158 1 109.50000 418.400000
2157 12177 2158 1 109.50000 418.400000
1566 12178 2159 1 109.50000 418.400000
1566 12178 2160 1 109.50000 418.400000
1566 12178 11563 1 109.50000 418.400000
2159 12178 2160 1 109.50000 418.400000
2159 12178 11563 1 109.50000 418.400000
2160 12178 11563 1 109.50000 418.400000
2161 12179 2162 1 109.50000 418.400000
2161 12179 2164 1 109.50000 418.400000
2161 12179 11343 1 109.50000 418.400000
2162 12179 2164 1 109.50000 418.400000
2162 12179 11343 1 109.50000 418.400000
2164 12179 11343 1 109.50000 418.400000
2165 12180 2166 1 109.50000 418.400000
2165 12180 9001 1 109.50000 418.400000
2165 12180 11459 1 109.50000 418.400000
2166 12180 9001 1 109.50000 418.400000
2166 12180 11459 1 109.50000 418.400000
9001 12180 11459 1 109.50000 418.400000
2167 12181 2168 1 109.50000 418.400000
2167 12181 2169 1 109.50000 418.400000
2167 12181 2170 1 109.50000 418.400000
2168 12181 2169 1 109.50000 418.400000
2168 12181 2170 1 109.50000 418.400000
2169 12181 2170 1 109.50000 418.400000
2171 12182 2172 1 109.50000 418.400000
2171 12182 2173 1 109.50000 418.400000
2171 12182 2174 1 109.50000 418.400000
2172 12182 2173 1 109.50000 418.400000
2172 12182 2174 1 109.50000 418.400000
2173 12182 2174 1 109.50000 418.400000
2175 12183 2177 1 109.50000 418.400000
2175 12183 2178 1 109.50000 418.400000
2175 12183 5138 1 109.50000 418.400000
2177 12183 2178 1 109.50000 418.400000
2177 12183 5138 1 109.50000 418.400000
2178 12183 5138 1 109.50000 418.400000
656 12184 2179 1 109.50000 418.400000
656 12184 2180 1 109.50000 418.400000
656 12184 9174 1 109.50000 418.400000
2179 12184 2180 1 109.50000 418.400000
2179 12184 9174 1 109.50000 418.400000
2180 12184 9174 1 109.50000 418.400000
2101 12185 2181 1 109.50000 418.400000
2101 12185 2182 1 109.50000 418.400000
2101 12185 2183 1 109.50000 418.400000
2181 12185 2182 1 109.50000 418.400000
2181 12185 2183 1 109.50000 418.400000
2182 12185 2183 1 109.50000 418.400000
2184 12186 2185 1 109.50000 418.400000
2184 12186 2186 1 109.50000 418.400000
2184 12186 2187 1 109.50000 418.400000
2185 12186 2186 1 109.50000 418.400000
2185 12186 2187 1 109.50000 418.400000
2186 12186 2187 1 109.50000 418.400000
2188 12187 2189 1 109.50000 418.400000
2188 12187 2190 1 109.50000 418.400000
2188 12187 2191 1 109.50000 418.400000
2189 12187 2190 1 109.50000 418.400000
2189 12187 2191 1 109.50000 418.400000
2190 12187 2191 1 109.50000 418.400000
2192 12188 2193 1 109.50000 418.400000
2192 12188 2195 1 109.50000 418.400000
2192 12188 10290 1 109.50000 418.400000
2193 12188 2195 1 109.50000 418.400000
2193 12188 10290 1 109.50000 418.400000
2195 12188 10290 1 109.50000 418.400000
2196 12189 2197 1 109.50000 418.400000
2196 12189 2198 1 109.50000 418.400000
2196 12189 2199 1 109.50000 418.400000
2197 12189 2198 1 109.50000 418.400000
2197 12189 2199 1 109.50000 418.400000
2198 12189 2199 1 109.50000 418.400000
2200 12190 2201 1 109.50000 418.400000
2200 12190 11296 1 109.50000 418.400000
2200 12190 11316 1 109.50000 418.400000
2201 12190 11296 1 109.50000 418.400000
2201 12190 11316 1 109.50000 418.400000
11296 12190 11316 1 109.50000 418.400000
2202 12191 2203 1 109.50000 418.400000
2202 12191 2204 1 109.50000 418.400000
2202 12191 2205 1 109.50000 418.400000
2203 12191 2204 1 109.50000 418.400000
2203 12191 2205 1 109.50000 418.400000
2204 12191 2205 1 109.50000 418.400000
1988 12192 2206 1 109.50000 418.400000
1988 12192 2207 1 109.50000 418.400000
1988 12192 2208 1 109.50000 418.400000
2206 12192 2207 1 109.50000 418.400000
2206 12192 2208 1 109.50000 418.400000
2207 12192 2208 1 109.50000 418.400000
1698 12193 2209 1 109.50000 418.400000
1698 12193 2210 1 109.50000 418.400000
1698 12193 2211 1 109.50000 418.400000
2209 12193 2210 1 109.50000 418.400000
2209 12193 2211 1 109.50000 418.400000
2210 12193 2211 1 109.50000 418.400000
2212 12194 2213 1 109.50000 418.400000
2212 12194 2214 1 109.50000 418.400000
2212 12194 2215 1 109.50000 418.400000
2213 12194 2214 1 109.50000 418.400000
2213 12194 2215 1 109.50000 418.400000
2214 12194 2215 1 109.50000 418.400000
450 12195 2216 1 109.50000 418.400000
450 12195 2217 1 109.50000 418.400000
450 12195 11417 1 109.50000 418.400000
2216 12195 2217 1 109.50000 418.400000
2216 12195 11417 1 109.50000 418.400000
2217 12195 11417 1 109.50000 418.400000
2218 12196 2219 1 109.50000 418.400000
2218 12196 2220 1 109.50000 418.400000
2218 12196 2221 1 109.50000 418.400000
2219 12196 2220 1 109.50000 418.400000
2219 12196 2221 1 109.50000 418.400000
2220 12196 2221 1 109.50000 418.400000
2222 12197 2223 1 109.50000 418.400000
2222 12197 2224 1 109.50000 418.400000
2222 12197 2225 1 109.50000 418.400000
2223 12197 2224 1 109.50000 418.400000
2223 12197 2225 1 109.50000 418.400000
2224 12197 2225 1 109.50000 418.400000
2226 12198 2227 1 109.50000 418.400000
2226 12198 2228 1 109.50000 418.400000
2226 12198 2229 1 109.50000 418.400000
2227 12198 2228 1 109.50000 418.400000
2227 12198 2229 1 109.50000 418.400000
2228 12198 2229 1 109.50000 418.400000
2208 12199 2230 1 109.50000 418.400000
2208 12199 2231 1 109.50000 418.400000
2208 12199 2232 1 109.50000 418.400000
2230 12199 2231 1 109.50000 418.400000
2230 12199 2232 1 109.50000 418.400000
2231 12199 2232 1 109.50000 418.400000
2233 12200 2234 1 109.50000 418.400000
2233 12200 11338 1 109.50000 418.400000
2233 12200 11576 1 109.50000 418.400000
2234 12200 11338 1 109.50000 418.400000
2234 12200 11576 1 109.50000 418.400000
11338 12200 11576 1 109.50000 418.400000
2235 12201 2236 1 109.50000 418.400000
2235 12201 2237 1 109.50000 418.400000
2235 12201 2238 1 109.50000 418.400000
2236 12201 2237 1 109.50000 418.400000
2236 12201 2238 1 109.50000 418.400000
2237 12201 2238 1 109.50000 418.400000
1654 12202 2239 1 109.50000 418.400000
1654 12202 2240 1 109.50000 418.400000
1654 12202 2241 1 109.50000 418.400000
2239 12202 2240 1 109.50000 418.400000
2239 12202 2241 1 109.50000 418.400000
2240 12202 2241 1 109.50000 418.400000
2242 12203 2243 1 109.50000 418.400000
2242 12203 2244 1 109.50000 418.400000
2242 12203 2245 1 109.50000 418.400000
2243 12203 2244 1 109.50000 418.400000
2243 12203 2245 1 109.50000 418.400000
2244 12203 2245 1 109.50000 418.400000
2246 12204 2247 1 109.50000 418.400000
2246 12204 2248 1 109.50000 418.400000
2246 12204 2249 1 109.50000 418.400000
2247 12204 2248 1 109.50000 418.400000
2247 12204 2249 1 109.50000 418.400000
2248 12204 2249 1 109.50000 418.400000
1501 12205 2250 1 109.50000 418.400000
1501 12205 2251 1 109.50000 418.400000
1501 12205 2252 1 109.50000 418.400000
2250 12205 2251 1 109.50000 418.400000
2250 12205 2252 1 109.50000 418.400000
2251 12205 2252 1 109.50000 418.400000
2253 12206 2254 1 109.50000 418.400000
2253 12206 2255 1 109.50000 418.400000
2253 12206 2256 1 109.50000 418.400000
2254 12206 2255 1 109.50000 418.400000
2254 12206 2256 1 109.50000 418.400000
2255 12206 2256 1 109.50000 418.400000
2257 12207 2258 1 109.50000 418.400000
2257 12207 2259 1 109.50000 418.400000
2257 12207 2260 1 109.50000 418.400000
2258 12207 2259 1 109.50000 418.400000
2258 12207 2260 1 109.50000 418.400000
2259 12207 2260 1 109.50000 418.400000
2261 12208 2262 1 109.50000 418.400000
2261 12208 2263 1 109.50000 418.400000
2261 12208 2264 1 109.50000 418.400000
2262 12208 2263 1 109.50000 418.400000
2262 12208 2264 1 109.50000 418.400000
2263 12208 2264 1 109.50000 418.400000
2265 12209 2266 1 109.50000 418.400000
2265 12209 2267 1 109.50000 418.400000
2265 12209 2268 1 109.50000 418.400000
2266 12209 2267 1 109.50000 418.400000
2266 12209 2268 1 109.50000 418.400000
2267 12209 2268 1 109.50000 418.400000
2270 12210 2271 1 109.50000 418.400000
2270 12210 2272 1 109.50000 418.400000
2270 12210 10917 1 109.50000 418.400000
2271 12210 2272 1 109.50000 418.400000
2271 12210 10917 1 109.50000 418.400000
2272 12210 10917 1 109.50000 418.400000
2070 12211 2273 1 109.50000 418.400000
2070 12211 2274 1 109.50000 418.400000
2070 12211 2275 1 109.50000 418.400000
2273 12211 2274 1 109.50000 418.400000
2273 12211 2275 1 109.50000 418.400000
2274 12211 2275 1 109.50000 418.400000
2276 12212 2277 1 109.50000 418.400000
2276 12212 2278 1 109.50000 418.400000
2276 12212 2279 1 109.50000 418.400000
2277 12212 2278 1 109.50000 418.400000
2277 12212 2279 1 109.50000 418.400000
2278 12212 2279 1 109.50000 418.400000
2280 12213 2281 1 109.50000 418.400000
2280 12213 2282 1 109.50000 418.400000
2280 12213 2283 1 109.50000 418.400000
2281 12213 2282 1 109.50000 418.400000
2281 12213 2283 1 109.50000 418.400000
2282 12213 2283 1 109.50000 418.400000
2284 12214 2285 1 109.50000 418.400000
2284 12214 2286 1 109.50000 418.400000
2284 12214 2287 1 109.50000 418.400000
2285 12214 2286 1 109.50000 418.400000
2285 12214 2287 1 109.50000 418.400000
2286 12214 2287 1 109.50000 418.400000
1158 12215 2288 1 109.50000 418.400000
1158 12215 2289 1 109.50000 418.400000
1158 12215 2290 1 109.50000 418.400000
2288 12215 2289 1 109.50000 418.400000
2288 12215 2290 1 109.50000 418.400000
2289 12215 2290 1 109.50000 418.400000
2291 12216 2292 1 109.50000 418.400000
2291 12216 2293 1 109.50000 418.400000
2291 12216 2294 1 109.50000 418.400000
2292 12216 2293 1 109.50000 418.400000
2292 12216 2294 1 109.50000 418.400000
2293 12216 2294 1 109.50000 418.400000
377 12217 1381 1 109.50000 418.400000
377 12217 2295 1 109.50000 418.400000
377 12217 11347 1 109.50000 418.400000
1381 12217 2295 1 109.50000 418.400000
1381 12217 11347 1 109.50000 418.400000
2295 12217 11347 1 109.50000 418.400000
2296 12218 2297 1 109.50000 418.400000
2296 12218 2298 1 109.50000 418.400000
2296 12218 11257 1 109.50000 418.400000
2297 12218 2298 1 109.50000 418.400000
2297 12218 11257 1 109.50000 418.400000
2298 12218 11257 1 109.50000 418.400000
845 12219 2299 1 109.50000 418.400000
845 12219 11312 1 109.50000 418.400000
845 12219 11564 1 109.50000 418.400000
2299 12219 11312 1 109.50000 418.400000
2299 12219 11564 1 109.50000 418.400000
11312 12219 11564 1 109.50000 418.400000
2300 12220 2301 1 109.50000 418.400000
2300 12220 2302 1 109.50000 418.400000
2300 12220 2303 1 109.50000 418.400000
2301 12220 2302 1 109.50000 418.400000
2301 12220 2303 1 109.50000 418.400000
2302 12220 2303 1 109.50000 418.400000
142 12221 696 1 109.50000 418.400000
142 12221 2304 1 109.50000 418.400000
142 12221 11238 1 109.50000 418.400000
696 12221 2304 1 109.50000 418.400000
696 12221 11238 1 109.50000 418.400000
2304 12221 11238 1 109.50000 418.400000
2305 12222 2306 1 109.50000 418.400000
2305 12222 2307 1 109.50000 418.400000
2305 12222 2308 1 109.50000 418.400000
2306 12222 2307 1 109.50000 418.400000
2306 12222 2308 1 109.50000 418.400000
2307 12222 2308 1 109.50000 418.400000
2309 12223 2310 1 109.50000 418.400000
2309 12223 2311 1 109.50000 418.400000
2309 12223 2312 1 109.50000 418.400000
2310 12223 2311 1 109.50000 418.400000
2310 12223 2312 1 109.50000 418.400000
2311 12223 2312 1 109.50000 418.400000
2313 12224 2314 1 109.50000 418.400000
2313 12224 2315 1 109.50000 418.400000
2313 12224 2316 1 109.50000 418.400000
2314 12224 2315 1 109.50000 418.400000
2314 12224 2316 1 109.50000 418.400000
2315 12224 2316 1 109.50000 418.400000
2317 12225 2318 1 109.50000 418.400000
2317 12225 2319 1 109.50000 418.400000
2317 12225 2320 1 109.50000 418.400000
2318 12225 2319 1 109.50000 418.400000
2318 12225 2320 1 109.50000 418.400000
2319 12225 2320 1 109.50000 418.400000
1548 12226 2321 1 109.50000 418.400000
1548 12226 2322 1 109.50000 418.400000
1548 12226 2323 1 109.50000 418.400000
2321 12226 2322 1 109.50000 418.400000
2321 12226 2323 1 109.50000 418.400000
2322 12226 2323 1 109.50000 418.400000
2324 12227 2325 1 109.50000 418.400000
2324 12227 11181 1 109.50000 418.400000
2324 12227 11506 1 109.50000 418.400000
2325 12227 11181 1 109.50000 418.400000
2325 12227 11506 1 109.50000 418.400000
11181 12227 11506 1 109.50000 418.400000
2326 12228 2327 1 109.50000 418.400000
2326 12228 2328 1 109.50000 418.400000
2326 12228 2329 1 109.50000 418.400000
2327 12228 2328 1 109.50000 418.400000
2327 12228 2329 1 109.50000 418.400000
2328 12228 2329 1 109.50000 418.400000
581 12229 2330 1 109.50000 418.400000
581 12229 2331 1 109.50000 418.400000
581 12229 5410 1 109.50000 418.400000
2330 12229 2331 1 109.50000 418.400000
2330 12229 5410 1 109.50000 418.400000
2331 12229 5410 1 109.50000 418.400000
2333 12230 2334 1 109.50000 418.400000
2333 12230 2335 1 109.50000 418.400000
2333 12230 2336 1 109.50000 418.400000
2334 12230 2335 1 109.50000 418.400000
2334 12230 2336 1 109.50000 418.400000
2335 12230 2336 1 109.50000 418.400000
2338 12231 2340 1 109.50000 418.400000
2338 12231 6853 1 109.50000 418.400000
2338 12231 10496 1 109.50000 418.400000
2340 12231 6853 1 109.50000 418.400000
2340 12231 10496 1 109.50000 418.400000
6853 12231 10496 1 109.50000 418.400000
1128 12232 2341 1 109.50000 418.400000
1128 12232 2343 1 109.50000 418.400000
1128 12232 4533 1 109.50000 418.400000
2341 12232 2343 1 109.50000 418.400000
2341 12232 4533 1 109.50000 418.400000
2343 12232 4533 1 109.50000 418.400000
2344 12233 2345 1 109.50000 418.400000
2344 12233 2346 1 109.50000 418.400000
2344 12233 2347 1 109.50000 418.400000
2345 12233 2346 1 109.50000 418.400000
2345 12233 2347 1 109.50000 418.400000
2346 12233 2347 1 109.50000 418.400000
2133 12234 2348 1 109.50000 418.400000
2133 12234 2349 1 109.50000 418.400000
2133 12234 9098 1 109.50000 418.400000
2348 12234 2349 1 109.50000 418.400000
2348 12234 9098 1 109.50000 418.400000
2349 12234 9098 1 109.50000 418.400000
1930 12235 2350 1 109.50000 418.400000
1930 12235 2351 1 109.50000 418.400000
1930 12235 2353 1 109.50000 418.400000
2350 12235 2351 1 109.50000 418.400000
2350 12235 2353 1 109.50000 418.400000
2351 12235 2353 1 109.50000 418.400000
2354 12236 2355 1 109.50000 418.400000
2354 12236 2356 1 109.50000 418.400000
2354 12236 2357 1 109.50000 418.400000
2355 12236 2356 1 109.50000 418.400000
2355 12236 2357 1 109.50000 418.400000
2356 12236 2357 1 109.50000 418.400000
2358 12237 2359 1 109.50000 418.400000
2358 12237 2360 1 109.50000 418.400000
2358 12237 2361 1 109.50000 418.400000
2359 12237 2360 1 109.50000 418.400000
2359 12237 2361 1 109.50000 418.400000
2360 12237 2361 1 109.50000 418.400000
2362 12238 2363 1 109.50000 418.400000
2362 12238 2364 1 109.50000 418.400000
2362 12238 2365 1 109.50000 418.400000
2363 12238 2364 1 109.50000 418.400000
2363 12238 2365 1 109.50000 418.400000
2364 12238 2365 1 109.50000 418.400000
2366 12239 2367 1 109.50000 418.400000
2366 12239 2368 1 109.50000 418.400000
2366 12239 2369 1 109.50000 418.400000
2367 12239 2368 1 109.50000 418.400000
2367 12239 2369 1 109.50000 418.400000
2368 12239 2369 1 109.50000 418.400000
2370 12240 2371 1 109.50000 418.400000
2370 12240 2372 1 109.50000 418.400000
2370 12240 2373 1 109.50000 418.400000
2371 12240 2372 1 109.50000 418.400000
2371 12240 2373 1 109.50000 418.400000
2372 12240 2373 1 109.50000 418.400000
2374 12241 2375 1 109.50000 418.400000
2374 12241 2376 1 109.50000 418.400000
2374 12241 2377 1 109.50000 418.400000
2375 12241 2376 1 109.50000 418.400000
2375 12241 2377 1 109.50000 418.400000
2376 12241 2377 1 109.50000 418.400000
2378 12242 2379 1 109.50000 418.400000
2378 12242 2380 1 109.50000 418.400000
2378 12242 2381 1 109.50000 418.400000
2379 12242 2380 1 109.50000 418.400000
2379 12242 2381 1 109.50000 418.400000
2380 12242 2381 1 109.50000 418.400000
2382 12243 2383 1 109.50000 418.400000
2382 12243 2384 1 109.50000 418.400000
2382 12243 2385 1 109.50000 418.400000
2383 12243 2384 1 109.50000 418.400000
2383 12243 2385 1 109.50000 418.400000
2384 12243 2385 1 109.50000 418.400000
2386 12244 2387 1 109.50000 418.400000
2386 12244 2388 1 109.50000 418.400000
2386 12244 2389 1 109.50000 418.400000
2387 12244 2388 1 109.50000 418.400000
2387 12244 2389 1 109.50000 418.400000
2388 12244 2389 1 109.50000 418.400000
2390 12245 2391 1 109.50000 418.400000
2390 12245 2392 1 109.50000 418.400000
2390 12245 2393 1 109.50000 418.400000
2391 12245 2392 1 109.50000 418.400000
2391 12245 2393 1 109.50000 418.400000
2392 12245 2393 1 109.50000 418.400000
2378 12246 2394 1 109.50000 418.400000
2378 12246 2395 1 109.50000 418.400000
2378 12246 2396 1 109.50000 418.400000
2394 12246 2395 1 109.50000 418.400000
2394 12246 2396 1 109.50000 418.400000
2395 12246 2396 1 109.50000 418.400000
2398 12247 2399 1 109.50000 418.400000
2398 12247 2400 1 109.50000 418.400000
2398 12247 4067 1 109.50000 418.400000
2399 12247 2400 1 109.50000 418.400000
2399 12247 4067 1 109.50000 418.400000
2400 12247 4067 1 109.50000 418.400000
2402 12248 2403 1 109.50000 418.400000
2402 12248 2404 1 109.50000 418.400000
2402 12248 2405 1 109.50000 418.400000
2403 12248 2404 1 109.50000 418.400000
2403 12248 2405 1 109.50000 418.400000
2404 12248 2405 1 109.50000 418.400000
2406 12249 2407 1 109.50000 418.400000
2406 12249 2408 1 109.50000 418.400000
2406 12249 2409 1 109.50000 418.400000
2407 12249 2408 1 109.50000 418.400000
2407 12249 2409 1 109.50000 418.400000
2408 12249 2409 1 109.50000 418.400000
487 12250 2410 1 109.50000 418.400000
487 12250 2411 1 109.50000 418.400000
487 12250 2412 1 109.50000 418.400000
2410 12250 2411 1 109.50000 418.400000
2410 12250 2412 1 109.50000 418.400000
2411 12250 2412 1 109.50000 418.400000
2413 12251 2414 1 109.50000 418.400000
2413 12251 2415 1 109.50000 418.400000
2413 12251 2416 1 109.50000 418.400000
2414 12251 2415 1 109.50000 418.400000
2414 12251 2416 1 109.50000 418.400000
2415 12251 2416 1 109.50000 418.400000
2417 12252 2418 1 109.50000 418.400000
2417 12252 2419 1 109.50000 418.400000
2417 12252 2420 1 109.50000 418.400000
2418 12252 2419 1 109.50000 418.400000
2418 12252 2420 1 109.50000 418.400000
2419 12252 2420 1 109.50000 418.400000
2421 12253 2422 1 109.50000 418.400000
2421 12253 2423 1 109.50000 418.400000
2421 12253 2424 1 109.50000 418.400000
2422 12253 2423 1 109.50000 418.400000
2422 12253 2424 1 109.50000 418.400000
2423 12253 2424 1 109.50000 418.400000
2425 12254 2426 1 109.50000 418.400000
2425 12254 2427 1 109.50000 418.400000
2425 12254 2428 1 109.50000 418.400000
2426 12254 2427 1 109.50000 418.400000
2426 12254 2428 1 109.50000 418.400000
2427 12254 2428 1 109.50000 418.400000
1022 12255 2429 1 109.50000 418.400000
1022 12255 2430 1 109.50000 418.400000
1022 12255 11449 1 109.50000 418.400000
2429 12255 2430 1 109.50000 418.400000
2429 12255 11449 1 109.50000 418.400000
2430 12255 11449 1 109.50000 418.400000
260 12256 2431 1 109.50000 418.400000
260 12256 2433 1 109.50000 418.400000
260 12256 11465 1 109.50000 418.400000
2431 12256 2433 1 109.50000 418.400000
2431 12256 11465 1 109.50000 418.400000
2433 12256 11465 1 109.50000 418.400000
2434 12257 2435 1 109.50000 418.400000
2434 12257 2436 1 109.50000 418.400000
2434 12257 2437 1 109.50000 418.400000
2435 12257 2436 1 109.50000 418.400000
2435 12257 2437 1 109.50000 418.400000
2436 12257 2437 1 109.50000 418.400000
2438 12258 2439 1 109.50000 418.400000
2438 12258 2440 1 109.50000 418.400000
2438 12258 2441 1 109.50000 418.400000
2439 12258 2440 1 109.50000 418.400000
2439 12258 2441 1 109.50000 418.400000
2440 12258 2441 1 109.50000 418.400000
2442 12259 2443 1 109.50000 418.400000
2442 12259 2444 1 109.50000 418.400000
2442 12259 2445 1 109.50000 418.400000
2443 12259 2444 1 109.50000 418.400000
2443 12259 2445 1 109.50000 418.400000
2444 12259 2445 1 109.50000 418.400000
2446 12260 2447 1 109.50000 418.400000
2446 12260 2448 1 109.50000 418.400000
2446 12260 2449 1 109.50000 418.400000
2447 12260 2448 1 109.50000 418.400000
2447 12260 2449 1 109.50000 418.400000
2448 12260 2449 1 109.50000 418.400000
1576 12261 2453 1 109.50000 418.400000
1576 12261 2454 1 109.50000 418.400000
1576 12261 2455 1 109.50000 418.400000
2453 12261 2454 1 109.50000 418.400000
2453 12261 2455 1 109.50000 418.400000
2454 12261 2455 1 109.50000 418.400000
2456 12262 2457 1 109.50000 418.400000
2456 12262 11285 1 109.50000 418.400000
2456 12262 11293 1 109.50000 418.400000
2457 12262 11285 1 109.50000 418.400000
2457 12262 11293 1 109.50000 418.400000
11285 12262 11293 1 109.50000 418.400000
2458 12263 2459 1 109.50000 418.400000
2458 12263 2460 1 109.50000 418.400000
2458 12263 2461 1 109.50000 418.400000
2459 12263 2460 1 109.50000 418.400000
2459 12263 2461 1 109.50000 418.400000
2460 12263 2461 1 109.50000 418.400000
2462 12264 2463 1 109.50000 418.400000
2462 12264 11261 1 109.50000 418.400000
2462 12264 11399 1 109.50000 418.400000
2463 12264 11261 1 109.50000 418.400000
2463 12264 11399 1 109.50000 418.400000
11261 12264 11399 1 109.50000 418.400000
2464 12265 2465 1 109.50000 418.400000
2464 12265 2466 1 109.50000 418.400000
2464 12265 2467 1 109.50000 418.400000
2465 12265 2466 1 109.50000 418.400000
2465 12265 2467 1 109.50000 418.400000
2466 12265 2467 1 109.50000 418.400000
2468 12266 2469 1 109.50000 418.400000
2468 12266 2470 1 109.50000 418.400000
2468 12266 2471 1 109.50000 418.400000
2469 12266 2470 1 109.50000 418.400000
2469 12266 2471 1 109.50000 418.400000
2470 12266 2471 1 109.50000 418.400000
2472 12267 2473 1 109.50000 418.400000
2472 12267 2474 1 109.50000 418.400000
2472 12267 2475 1 109.50000 418.400000
2473 12267 2474 1 109.50000 418.400000
2473 12267 2475 1 109.50000 418.400000
2474 12267 2475 1 109.50000 418.400000
2476 12268 2477 1 109.50000 418.400000
2476 12268 2478 1 109.50000 418.400000
2476 12268 10206 1 109.50000 418.400000
2477 12268 2478 1 109.50000 418.400000
2477 12268 10206 1 109.50000 418.400000
2478 12268 10206 1 109.50000 418.400000
280 12269 2480 1 109.50000 418.400000
280 12269 2481 1 109.50000 418.400000
280 12269 2482 1 109.50000 418.400000
2480 12269 2481 1 109.50000 418.400000
2480 12269 2482 1 109.50000 418.400000
2481 12269 2482 1 109.50000 418.400000
2483 12270 2484 1 109.50000 418.400000
2483 12270 2485 1 109.50000 418.400000
2483 12270 11284 1 109.50000 418.400000
2484 12270 2485 1 109.50000 418.400000
2484 12270 11284 1 109.50000 418.400000
2485 12270 11284 1 109.50000 418.400000
2486 12271 2487 1 109.50000 418.400000
2486 12271 2488 1 109.50000 418.400000
2486 12271 2489 1 109.50000 418.400000
2487 12271 2488 1 109.50000 418.400000
2487 12271 2489 1 109.50000 418.400000
2488 12271 2489 1 109.50000 418.400000
2493 12272 2494 1 109.50000 418.400000
2493 12272 2495 1 109.50000 418.400000
2493 12272 11479 1 109.50000 418.400000
2494 12272 2495 1 109.50000 418.400000
2494 12272 11479 1 109.50000 418.400000
2495 12272 11479 1 109.50000 418.400000
2496 12273 2497 1 109.50000 418.400000
2496 12273 2498 1 109.50000 418.400000
2496 12273 2499 1 109.50000 418.400000
2497 12273 2498 1 109.50000 418.400000
2497 12273 2499 1 109.50000 418.400000
2498 12273 2499 1 109.50000 418.400000
1324 12274 2502 1 109.50000 418.400000
1324 12274 2503 1 109.50000 418.400000
1324 12274 2504 1 109.50000 418.400000
2502 12274 2503 1 109.50000 418.400000
2502 12274 2504 1 109.50000 418.400000
2503 12274 2504 1 109.50000 418.400000
2508 12275 2509 1 109.50000 418.400000
2508 12275 2510 1 109.50000 418.400000
2508 12275 2511 1 109.50000 418.400000
2509 12275 2510 1 109.50000 418.400000
2509 12275 2511 1 109.50000 418.400000
2510 12275 2511 1 109.50000 418.400000
2512 12276 2513 1 109.50000 418.400000
2512 12276 2514 1 109.50000 418.400000
2512 12276 2515 1 109.50000 418.400000
2513 12276 2514 1 109.50000 418.400000
2513 12276 2515 1 109.50000 418.400000
2514 12276 2515 1 109.50000 418.400000
2516 12277 2517 1 109.50000 418.400000
2516 12277 2518 1 109.50000 418.400000
2516 12277 2519 1 109.50000 418.400000
2517 12277 2518 1 109.50000 418.400000
2517 12277 2519 1 109.50000 418.400000
2518 12277 2519 1 109.50000 418.400000
2520 12278 2521 1 109.50000 418.400000
2520 12278 2522 1 109.50000 418.400000
2520 12278 2523 1 109.50000 418.400000
2521 12278 2522 1 109.50000 418.400000
2521 12278 2523 1 109.50000 418.400000
2522 12278 2523 1 109.50000 418.400000
2524 12279 2525 1 109.50000 418.400000
2524 12279 2526 1 109.50000 418.400000
2524 12279 2527 1 109.50000 418.400000
2525 12279 2526 1 109.50000 418.400000
2525 12279 2527 1 109.50000 418.400000
2526 12279 2527 1 109.50000 418.400000
2528 12280 2529 1 109.50000 418.400000
2528 12280 2530 1 109.50000 418.400000
2528 12280 2531 1 109.50000 418.400000
2529 12280 2530 1 109.50000 418.400000
2529 12280 2531 1 109.50000 418.400000
2530 12280 2531 1 109.50000 418.400000
2532 12281 2533 1 109.50000 418.400000
2532 12281 2534 1 109.50000 418.400000
2532 12281 2535 1 109.50000 418.400000
2533 12281 2534 1 109.50000 418.400000
2533 12281 2535 1 109.50000 418.400000
2534 12281 2535 1 109.50000 418.400000
2468 12282 2536 1 109.50000 418.400000
2468 12282 2537 1 109.50000 418.400000
2468 12282 2538 1 109.50000 418.400000
2536 12282 2537 1 109.50000 418.400000
2536 12282 2538 1 109.50000 418.400000
2537 12282 2538 1 109.50000 418.400000
2328 12283 2539 1 109.50000 418.400000
2328 12283 2540 1 109.50000 418.400000
2328 12283 2541 1 109.50000 418.400000
2539 12283 2540 1 109.50000 418.400000
2539 12283 2541 1 109.50000 418.400000
2540 12283 2541 1 109.50000 418.400000
230 12284 2542 1 109.50000 418.400000
230 12284 2543 1 109.50000 418.400000
230 12284 2544 1 109.50000 418.400000
2542 12284 2543 1 109.50000 418.400000
2542 12284 2544 1 109.50000 418.400000
2543 12284 2544 1 109.50000 418.400000
2545 12285 2546 1 109.50000 418.400000
2545 12285 2547 1 109.50000 418.400000
2545 12285 2548 1 109.50000 418.400000
2546 12285 2547 1 109.50000 418.400000
2546 12285 2548 1 109.50000 418.400000
2547 12285 2548 1 109.50000 418.400000
2549 12286 2550 1 109.50000 418.400000
2549 12286 2551 1 109.50000 418.400000
2549 12286 2552 1 109.50000 418.400000
2550 12286 2551 1 109.50000 418.400000
2550 12286 2552 1 109.50000 418.400000
2551 12286 2552 1 109.50000 418.400000
2553 12287 2554 1 109.50000 418.400000
2553 12287 2555 1 109.50000 418.400000
2553 12287 2556 1 109.50000 418.400000
2554 12287 2555 1 109.50000 418.400000
2554 12287 2556 1 109.50000 418.400000
2555 12287 2556 1 109.50000 418.400000
2558 12288 2559 1 109.50000 418.400000
2558 12288 2560 1 109.50000 418.400000
2558 12288 11423 1 109.50000 418.400000
2559 12288 2560 1 109.50000 418.400000
2559 12288 11423 1 109.50000 418.400000
2560 12288 11423 1 109.50000 418.400000
1964 12289 2561 1 109.50000 418.400000
1964 12289 2562 1 109.50000 418.400000
1964 12289 2563 1 109.50000 418.400000
2561 12289 2562 1 109.50000 418.400000
2561 12289 2563 1 109.50000 418.400000
2562 12289 2563 1 109.50000 418.400000
690 12290 2564 1 109.50000 418.400000
690 12290 2565 1 109.50000 418.400000
690 12290 2566 1 109.50000 418.400000
2564 12290 2565 1 109.50000 418.400000
2564 12290 2566 1 109.50000 418.400000
2565 12290 2566 1 109.50000 418.400000
2567 12291 2568 1 109.50000 418.400000
2567 12291 2569 1 109.50000 418.400000
2567 12291 2570 1 109.50000 418.400000
2568 12291 2569 1 109.50000 418.400000
2568 12291 2570 1 109.50000 418.400000
2569 12291 2570 1 109.50000 418.400000
2400 12292 2571 1 109.50000 418.400000
2400 12292 2572 1 109.50000 418.400000
2400 12292 3759 1 109.50000 418.400000
2571 12292 2572 1 109.50000 418.400000
2571 12292 3759 1 109.50000 418.400000
2572 12292 3759 1 109.50000 418.400000
2574 12293 2575 1 109.50000 418.400000
2574 12293 2576 1 109.50000 418.400000
2574 12293 2577 1 109.50000 418.400000
2575 12293 2576 1 109.50000 418.400000
2575 12293 2577 1 109.50000 418.400000
2576 12293 2577 1 109.50000 418.400000
1898 12294 2578 1 109.50000 418.400000
1898 12294 2579 1 109.50000 418.400000
1898 12294 2580 1 109.50000 418.400000
2578 12294 2579 1 109.50000 418.400000
2578 12294 2580 1 109.50000 418.400000
2579 12294 2580 1 109.50000 418.400000
1325 12295 2581 1 109.50000 418.400000
1325 12295 2582 1 109.50000 418.400000
1325 12295 11331 1 109.50000 418.400000
2581 12295 2582 1 109.50000 418.400000
2581 12295 11331 1 109.50000 418.400000
2582 12295 11331 1 109.50000 418.400000
2584 12296 2585 1 109.50000 418.400000
2584 12296 2586 1 109.50000 418.400000
2584 12296 6496 1 109.50000 418.400000
2585 12296 2586 1 109.50000 418.400000
2585 12296 6496 1 109.50000 418.400000
2586 12296 6496 1 109.50000 418.400000
2587 12297 2588 1 109.50000 418.400000
2587 12297 11253 1 109.50000 418.400000
2587 12297 11469 1 109.50000 418.400000
2588 12297 11253 1 109.50000 418.400000
2588 12297 11469 1 109.50000 418.400000
11253 12297 11469 1 109.50000 418.400000
2589 12298 2590 1 109.50000 418.400000
2589 12298 2591 1 109.50000 418.400000
2589 12298 11488 1 109.50000 418.400000
2590 12298 2591 1 109.50000 418.400000
2590 12298 11488 1 109.50000 418.400000
2591 12298 11488 1 109.50000 418.400000
847 12299 2592 1 109.50000 418.400000
847 12299 2593 1 109.50000 418.400000
847 12299 2594 1 109.50000 418.400000
2592 12299 2593 1 109.50000 418.400000
2592 12299 2594 1 109.50000 418.400000
2593 12299 2594 1 109.50000 418.400000
628 12300 2595 1 109.50000 418.400000
628 12300 2596 1 109.50000 418.400000
628 12300 2597 1 109.50000 418.400000
2595 12300 2596 1 109.50000 418.400000
2595 12300 2597 1 109.50000 418.400000
2596 12300 2597 1 109.50000 418.400000
2598 12301 2599 1 109.50000 418.400000
2598 12301 2600 1 109.50000 418.400000
2598 12301 2601 1 109.50000 418.400000
2599 12301 2600 1 109.50000 418.400000
2599 12301 2601 1 109.50000 418.400000
2600 12301 2601 1 109.50000 418.400000
2604 12302 2989 1 109.50000 418.400000
2604 12302 2990 1 109.50000 418.400000
2604 12302 9329 1 109.50000 418.400000
2989 12302 2990 1 109.50000 418.400000
2989 12302 9329 1 109.50000 418.400000
2990 12302 9329 1 109.50000 418.400000
2606 12303 2608 1 109.50000 418.400000
2606 12303 2609 1 109.50000 418.400000
2606 12303 9020 1 109.50000 418.400000
2608 12303 2609 1 109.50000 418.400000
2608 12303 9020 1 109.50000 418.400000
2609 12303 9020 1 109.50000 418.400000
2610 12304 2611 1 109.50000 418.400000
2610 12304 2612 1 109.50000 418.400000
2610 12304 7265 1 109.50000 418.400000
2611 12304 2612 1 109.50000 418.400000
2611 12304 7265 1 109.50000 418.400000
2612 12304 7265 1 109.50000 418.400000
1298 12305 2613 1 109.50000 418.400000
1298 12305 2614 1 109.50000 418.400000
1298 12305 2615 1 109.50000 418.400000
2613 12305 2614 1 109.50000 418.400000
2613 12305 2615 1 109.50000 418.400000
2614 12305 2615 1 109.50000 418.400000
1313 12306 2616 1 109.50000 418.400000
1313 12306 2617 1 109.50000 418.400000
1313 12306 2618 1 109.50000 418.400000
2616 12306 2617 1 109.50000 418.400000
2616 12306 2618 1 109.50000 418.400000
2617 12306 2618 1 109.50000 418.400000
2619 12307 2620 1 109.50000 418.400000
2619 12307 2621 1 109.50000 418.400000
2619 12307 2622 1 109.50000 418.400000
2620 12307 2621 1 109.50000 418.400000
2620 12307 2622 1 109.50000 418.400000
2621 12307 2622 1 109.50000 418.400000
2626 12308 2627 1 109.50000 418.400000
2626 12308 2628 1 109.50000 418.400000
2626 12308 6785 1 109.50000 418.400000
2627 12308 2628 1 109.50000 418.400000
2627 12308 6785 1 109.50000 418.400000
2628 12308 6785 1 109.50000 418.400000
2496 12309 2629 1 109.50000 418.400000
2496 12309 2630 1 109.50000 418.400000
2496 12309 2631 1 109.50000 418.400000
2629 12309 2630 1 109.50000 418.400000
2629 12309 2631 1 109.50000 418.400000
2630 12309 2631 1 109.50000 418.400000
2632 12310 2633 1 109.50000 418.400000
2632 12310 2634 1 109.50000 418.400000
2632 12310 2635 1 109.50000 418.400000
2633 12310 2634 1 109.50000 418.400000
2633 12310 2635 1 109.50000 418.400000
2634 12310 2635 1 109.50000 418.400000
2636 12311 2637 1 109.50000 418.400000
2636 12311 2638 1 109.50000 418.400000
2636 12311 2639 1 109.50000 418.400000
2637 12311 2638 1 109.50000 418.400000
2637 12311 2639 1 109.50000 418.400000
2638 12311 2639 1 109.50000 418.400000
2640 12312 2641 1 109.50000 418.400000
2640 12312 2642 1 109.50000 418.400000
2640 12312 2643 1 109.50000 418.400000
2641 12312 2642 1 109.50000 418.400000
2641 12312 2643 1 109.50000 418.400000
2642 12312 2643 1 109.50000 418.400000
1434 12313 2644 1 109.50000 418.400000
1434 12313 2645 1 109.50000 418.400000
1434 12313 2646 1 109.50000 418.400000
2644 12313 2645 1 109.50000 418.400000
2644 12313 2646 1 109.50000 418.400000
2645 12313 2646 1 109.50000 418.400000
2647 12314 2648 1 109.50000 418.400000
2647 12314 2650 1 109.50000 418.400000
2647 12314 11078 1 109.50000 418.400000
2648 12314 2650 1 109.50000 418.400000
2648 12314 11078 1 109.50000 418.400000
2650 12314 11078 1 109.50000 418.400000
2651 12315 2652 1 109.50000 418.400000
2651 12315 2653 1 109.50000 418.400000
2651 12315 11269 1 109.50000 418.400000
2652 12315 2653 1 109.50000 418.400000
2652 12315 11269 1 109.50000 418.400000
2653 12315 11269 1 109.50000 418.400000
2654 12316 2655 1 109.50000 418.400000
2654 12316 2656 1 109.50000 418.400000
2654 12316 2657 1 109.50000 418.400000
2655 12316 2656 1 109.50000 418.400000
2655 12316 2657 1 109.50000 418.400000
2656 12316 2657 1 109.50000 418.400000
875 12317 1005 1 109.50000 418.400000
875 12317 2658 1 109.50000 418.400000
875 12317 2659 1 109.50000 418.400000
1005 12317 2658 1 109.50000 418.400000
1005 12317 2659 1 109.50000 418.400000
2658 12317 2659 1 109.50000 418.400000
2660 12318 2661 1 109.50000 418.400000
2660 12318 2662 1 109.50000 418.400000
2660 12318 2663 1 109.50000 418.400000
2661 12318 2662 1 109.50000 418.400000
2661 12318 2663 1 109.50000 418.400000
2662 12318 2663 1 109.50000 418.400000
756 12319 1161 1 109.50000 418.400000
756 12319 2664 1 109.50000 418.400000
756 12319 2665 1 109.50000 418.400000
1161 12319 2664 1 109.50000 418.400000
1161 12319 2665 1 109.50000 418.400000
2664 12319 2665 1 109.50000 418.400000
695 12320 769 1 109.50000 418.400000
695 12320 2666 1 109.50000 418.400000
695 12320 2667 1 109.50000 418.400000
769 12320 2666 1 109.50000 418.400000
769 12320 2667 1 109.50000 418.400000
2666 12320 2667 1 109.50000 418.400000
2668 12321 2669 1 109.50000 418.400000
2668 12321 2670 1 109.50000 418.400000
2668 12321 2671 1 109.50000 418.400000
2669 12321 2670 1 109.50000 418.400000
2669 12321 2671 1 109.50000 418.400000
2670 12321 2671 1 109.50000 418.400000
2672 12322 2673 1 109.50000 418.400000
2672 12322 2674 1 109.50000 418.400000
2672 12322 2675 1 109.50000 418.400000
2673 12322 2674 1 109.50000 418.400000
2673 12322 2675 1 109.50000 418.400000
2674 12322 2675 1 109.50000 418.400000
2676 12323 2677 1 109.50000 418.400000
2676 12323 2678 1 109.50000 418.400000
2676 12323 2679 1 109.50000 418.400000
2677 12323 2678 1 109.50000 418.400000
2677 12323 2679 1 109.50000 418.400000
2678 12323 2679 1 109.50000 418.400000
2680 12324 2681 1 109.50000 418.400000
2680 12324 2682 1 109.50000 418.400000
2680 12324 3309 1 109.50000 418.400000
2681 12324 2682 1 109.50000 418.400000
2681 12324 3309 1 109.50000 418.400000
2682 12324 3309 1 109.50000 418.400000
2684 12325 2685 1 109.50000 418.400000
2684 12325 2686 1 109.50000 418.400000
2684 12325 2687 1 109.50000 418.400000
2685 12325 2686 1 109.50000 418.400000
2685 12325 2687 1 109.50000 418.400000
2686 12325 2687 1 109.50000 418.400000
2688 12326 2689 1 109.50000 418.400000
2688 12326 2690 1 109.50000 418.400000
2688 12326 2691 1 109.50000 418.400000
2689 12326 2690 1 109.50000 418.400000
2689 12326 2691 1 109.50000 418.400000
2690 12326 2691 1 109.50000 418.400000
2692 12327 2693 1 109.50000 418.400000
2692 12327 2694 1 109.50000 418.400000
2692 12327 2695 1 109.50000 418.400000
2693 12327 2694 1 109.50000 418.400000
2693 12327 2695 1 109.50000 418.400000
2694 12327 2695 1 109.50000 418.400000
2696 12328 2697 1 109.50000 418.400000
2696 12328 2698 1 109.50000 418.400000
2696 12328 11406 1 109.50000 418.400000
2697 12328 2698 1 109.50000 418.400000
2697 12328 11406 1 109.50000 418.400000
2698 12328 11406 1 109.50000 418.400000
2583 12329 2699 1 109.50000 418.400000
2583 12329 2700 1 109.50000 418.400000
2583 12329 2701 1 109.50000 418.400000
2699 12329 2700 1 109.50000 418.400000
2699 12329 2701 1 109.50000 418.400000
2700 12329 2701 1 109.50000 418.400000
2702 12330 2703 1 109.50000 418.400000
2702 12330 2704 1 109.50000 418.400000
2702 12330 2705 1 109.50000 418.400000
2703 12330 2704 1 109.50000 418.400000
2703 12330 2705 1 109.50000 418.400000
2704 12330 2705 1 109.50000 418.400000
2428 12331 2706 1 109.50000 418.400000
2428 12331 2707 1 109.50000 418.400000
2428 12331 2708 1 109.50000 418.400000
2706 12331 2707 1 109.50000 418.400000
2706 12331 2708 1 109.50000 418.400000
2707 12331 2708 1 109.50000 418.400000
2709 12332 2710 1 109.50000 418.400000
2709 12332 2711 1 109.50000 418.400000
2709 12332 2712 1 109.50000 418.400000
2710 12332 2711 1 109.50000 418.400000
2710 12332 2712 1 109.50000 418.400000
2711 12332 2712 1 109.50000 418.400000
2713 12333 2714 1 109.50000 418.400000
2713 12333 2715 1 109.50000 418.400000
2713 12333 2716 1 109.50000 418.400000
2714 12333 2715 1 109.50000 418.400000
2714 12333 2716 1 109.50000 418.400000
2715 12333 2716 1 109.50000 418.400000
2717 12334 2718 1 109.50000 418.400000
2717 12334 2719 1 109.50000 418.400000
2717 12334 2720 1 109.50000 418.400000
2718 12334 2719 1 109.50000 418.400000
2718 12334 2720 1 109.50000 418.400000
2719 12334 2720 1 109.50000 418.400000
2721 12335 2722 1 109.50000 418.400000
2721 12335 2723 1 109.50000 418.400000
2721 12335 2724 1 109.50000 418.400000
2722 12335 2723 1 109.50000 418.400000
2722 12335 2724 1 109.50000 418.400000
2723 12335 2724 1 109.50000 418.400000
2725 12336 2726 1 109.50000 418.400000
2725 12336 2727 1 109.50000 418.400000
2725 12336 2728 1 109.50000 418.400000
2726 12336 2727 1 109.50000 418.400000
2726 12336 2728 1 109.50000 418.400000
2727 12336 2728 1 109.50000 418.400000
2729 12337 2730 1 109.50000 418.400000
2729 12337 2731 1 109.50000 418.400000
2729 12337 11496 1 109.50000 418.400000
2730 12337 2731 1 109.50000 418.400000
2730 12337 11496 1 109.50000 418.400000
2731 12337 11496 1 109.50000 418.400000
828 12338 2732 1 109.50000 418.400000
828 12338 2733 1 109.50000 418.400000
828 12338 2734 1 109.50000 418.400000
2732 12338 2733 1 109.50000 418.400000
2732 12338 2734 1 109.50000 418.400000
2733 12338 2734 1 109.50000 418.400000
982 12339 2735 1 109.50000 418.400000
982 12339 2736 1 109.50000 418.400000
982 12339 2737 1 109.50000 418.400000
2735 12339 2736 1 109.50000 418.400000
2735 12339 2737 1 109.50000 418.400000
2736 12339 2737 1 109.50000 418.400000
2738 12340 2739 1 109.50000 418.400000
2738 12340 2740 1 109.50000 418.400000
2738 12340 2741 1 109.50000 418.400000
2739 12340 2740 1 109.50000 418.400000
2739 12340 2741 1 109.50000 418.400000
2740 12340 2741 1 109.50000 418.400000
2742 12341 2743 1 109.50000 418.400000
2742 12341 2744 1 109.50000 418.400000
2742 12341 2745 1 109.50000 418.400000
2743 12341 2744 1 109.50000 418.400000
2743 12341 2745 1 109.50000 418.400000
2744 12341 2745 1 109.50000 418.400000
1520 12342 2746 1 109.50000 418.400000
1520 12342 2747 1 109.50000 418.400000
1520 12342 2748 1 109.50000 418.400000
2746 12342 2747 1 109.50000 418.400000
2746 12342 2748 1 109.50000 418.400000
2747 12342 2748 1 109.50000 418.400000
2749 12343 2750 1 109.50000 418.400000
2749 12343 2751 1 109.50000 418.400000
2749 12343 2752 1 109.50000 418.400000
2750 12343 2751 1 109.50000 418.400000
2750 12343 2752 1 109.50000 418.400000
2751 12343 2752 1 109.50000 418.400000
2753 12344 2755 1 109.50000 418.400000
2753 12344 2756 1 109.50000 418.400000
2753 12344 5577 1 109.50000 418.400000
2755 12344 2756 1 109.50000 418.400000
2755 12344 5577 1 109.50000 418.400000
2756 12344 5577 1 109.50000 418.400000
2757 12345 2758 1 109.50000 418.400000
2757 12345 2759 1 109.50000 418.400000
2757 12345 2760 1 109.50000 418.400000
2758 12345 2759 1 109.50000 418.400000
2758 12345 2760 1 109.50000 418.400000
2759 12345 2760 1 109.50000 418.400000
1819 12346 2761 1 109.50000 418.400000
1819 12346 2762 1 109.50000 418.400000
1819 12346 2763 1 109.50000 418.400000
2761 12346 2762 1 109.50000 418.400000
2761 12346 2763 1 109.50000 418.400000
2762 12346 2763 1 109.50000 418.400000
2764 12347 2765 1 109.50000 418.400000
2764 12347 2766 1 109.50000 418.400000
2764 12347 2767 1 109.50000 418.400000
2765 12347 2766 1 109.50000 418.400000
2765 12347 2767 1 109.50000 418.400000
2766 12347 2767 1 109.50000 418.400000
171 12348 2768 1 109.50000 418.400000
171 12348 2769 1 109.50000 418.400000
171 12348 2770 1 109.50000 418.400000
2768 12348 2769 1 109.50000 418.400000
2768 12348 2770 1 109.50000 418.400000
2769 12348 2770 1 109.50000 418.400000
2771 12349 2773 1 109.50000 418.400000
2771 12349 2774 1 109.50000 418.400000
2771 12349 6883 1 109.50000 418.400000
2773 12349 2774 1 109.50000 418.400000
2773 12349 6883 1 109.50000 418.400000
2774 12349 6883 1 109.50000 418.400000
2775 12350 2776 1 109.50000 418.400000
2775 12350 11289 1 109.50000 418.400000
2775 12350 11438 1 109.50000 418.400000
2776 12350 11289 1 109.50000 418.400000
2776 12350 11438 1 109.50000 418.400000
11289 12350 11438 1 109.50000 418.400000
734 12351 2777 1 109.50000 418.400000
734 12351 2778 1 109.50000 418.400000
734 12351 2779 1 109.50000 418.400000
2777 12351 2778 1 109.50000 418.400000
2777 12351 2779 1 109.50000 418.400000
2778 12351 2779 1 109.50000 418.400000
2780 12352 2781 1 109.50000 418.400000
2780 12352 2782 1 109.50000 418.400000
2780 12352 2783 1 109.50000 418.400000
2781 12352 2782 1 109.50000 418.400000
2781 12352 2783 1 109.50000 418.400000
2782 12352 2783 1 109.50000 418.400000
2784 12353 2785 1 109.50000 418.400000
2784 12353 2786 1 109.50000 418.400000
2784 12353 2787 1 109.50000 418.400000
2785 12353 2786 1 109.50000 418.400000
2785 12353 2787 1 109.50000 418.400000
2786 12353 2787 1 109.50000 418.400000
911 12354 2788 1 109.50000 418.400000
911 12354 2789 1 109.50000 418.400000
911 12354 2790 1 109.50000 418.400000
2788 12354 2789 1 109.50000 418.400000
2788 12354 2790 1 109.50000 418.400000
2789 12354 2790 1 109.50000 418.400000
301 12355 2791 1 109.50000 418.400000
301 12355 2792 1 109.50000 418.400000
301 12355 4806 1 109.50000 418.400000
2791 12355 2792 1 109.50000 418.400000
2791 12355 4806 1 109.50000 418.400000
2792 12355 4806 1 109.50000 418.400000
2794 12356 2795 1 109.50000 418.400000
2794 12356 2796 1 109.50000 418.400000
2794 12356 10676 1 109.50000 418.400000
2795 12356 2796 1 109.50000 418.400000
2795 12356 10676 1 109.50000 418.400000
2796 12356 10676 1 109.50000 418.400000
191 12357 322 1 109.50000 418.400000
191 12357 2798 1 109.50000 418.400000
191 12357 2799 1 109.50000 418.400000
322 12357 2798 1 109.50000 418.400000
322 12357 2799 1 109.50000 418.400000
2798 12357 2799 1 109.50000 418.400000
699 12358 2800 1 109.50000 418.400000
699 12358 2801 1 109.50000 418.400000
699 12358 8976 1 109.50000 418.400000
2800 12358 2801 1 109.50000 418.400000
2800 12358 8976 1 109.50000 418.400000
2801 12358 8976 1 109.50000 418.400000
2058 12359 2803 1 109.50000 418.400000
2058 12359 2804 1 109.50000 418.400000
2058 12359 2805 1 109.50000 418.400000
2803 12359 2804 1 109.50000 418.400000
2803 12359 2805 1 109.50000 418.400000
2804 12359 2805 1 109.50000 418.400000
2806 12360 2807 1 109.50000 418.400000
2806 12360 2808 1 109.50000 418.400000
2806 12360 2809 1 109.50000 418.400000
2807 12360 2808 1 109.50000 418.400000
2807 12360 2809 1 109.50000 418.400000
2808 12360 2809 1 109.50000 418.400000
2810 12361 2811 1 109.50000 418.400000
2810 12361 2812 1 109.50000 418.400000
2810 12361 2813 1 109.50000 418.400000
2811 12361 2812 1 109.50000 418.400000
2811 12361 2813 1 109.50000 418.400000
2812 12361 2813 1 109.50000 418.400000
435 12362 436 1 109.50000 418.400000
435 12362 2814 1 109.50000 418.400000
435 12362 2816 1 109.50000 418.400000
436 12362 2814 1 109.50000 418.400000
436 12362 2816 1 109.50000 418.400000
2814 12362 2816 1 109.50000 418.400000
2818 12363 2819 1 109.50000 418.400000
2818 12363 2820 1 109.50000 418.400000
2818 12363 2821 1 109.50000 418.400000
2819 12363 2820 1 109.50000 418.400000
2819 12363 2821 1 109.50000 418.400000
2820 12363 2821 1 109.50000 418.400000
1494 12364 2822 1 109.50000 418.400000
1494 12364 2823 1 109.50000 418.400000
1494 12364 2824 1 109.50000 418.400000
2822 12364 2823 1 109.50000 418.400000
2822 12364 2824 1 109.50000 418.400000
2823 12364 2824 1 109.50000 418.400000
2825 12365 2826 1 109.50000 418.400000
2825 12365 2827 1 109.50000 418.400000
2825 12365 2828 1 109.50000 418.400000
2826 12365 2827 1 109.50000 418.400000
2826 12365 2828 1 109.50000 418.400000
2827 12365 2828 1 109.50000 418.400000
1803 12366 2829 1 109.50000 418.400000
1803 12366 2830 1 109.50000 418.400000
1803 12366 2831 1 109.50000 418.400000
2829 12366 2830 1 109.50000 418.400000
2829 12366 2831 1 109.50000 418.400000
2830 12366 2831 1 109.50000 418.400000
1186 12367 1994 1 109.50000 418.400000
1186 12367 2832 1 109.50000 418.400000
1186 12367 2833 1 109.50000 418.400000
1994 12367 2832 1 109.50000 418.400000
1994 12367 2833 1 109.50000 418.400000
2832 12367 2833 1 109.50000 418.400000
635 12368 2834 1 109.50000 418.400000
635 12368 2835 1 109.50000 418.400000
635 12368 2836 1 109.50000 418.400000
2834 12368 2835 1 109.50000 418.400000
2834 12368 2836 1 109.50000 418.400000
2835 12368 2836 1 109.50000 418.400000
1027 12369 2837 1 109.50000 418.400000
1027 12369 2838 1 109.50000 418.400000
1027 12369 2839 1 109.50000 418.400000
2837 12369 2838 1 109.50000 418.400000
2837 12369 2839 1 109.50000 418.400000
2838 12369 2839 1 109.50000 418.400000
2840 12370 2841 1 109.50000 418.400000
2840 12370 2842 1 109.50000 418.400000
2840 12370 2843 1 109.50000 418.400000
2841 12370 2842 1 109.50000 418.400000
2841 12370 2843 1 109.50000 418.400000
2842 12370 2843 1 109.50000 418.400000
2844 12371 2845 1 109.50000 418.400000
2844 12371 2846 1 109.50000 418.400000
2844 12371 2847 1 109.50000 418.400000
2845 12371 2846 1 109.50000 418.400000
2845 12371 2847 1 109.50000 418.400000
2846 12371 2847 1 109.50000 418.400000
300 12372 2848 1 109.50000 418.400000
300 12372 2849 1 109.50000 418.400000
300 12372 2850 1 109.50000 418.400000
2848 12372 2849 1 109.50000 418.400000
2848 12372 2850 1 109.50000 418.400000
2849 12372 2850 1 109.50000 418.400000
1763 12373 2851 1 109.50000 418.400000
1763 12373 2852 1 109.50000 418.400000
1763 12373 2853 1 109.50000 418.400000
2851 12373 2852 1 109.50000 418.400000
2851 12373 2853 1 109.50000 418.400000
2852 12373 2853 1 109.50000 418.400000
105 12374 2854 1 109.50000 418.400000
105 12374 2855 1 109.50000 418.400000
105 12374 2856 1 109.50000 418.400000
2854 12374 2855 1 109.50000 418.400000
2854 12374 2856 1 109.50000 418.400000
2855 12374 2856 1 109.50000 418.400000
1216 12375 2857 1 109.50000 418.400000
1216 12375 11138 1 109.50000 418.400000
1216 12375 11299 1 109.50000 418.400000
2857 12375 11138 1 109.50000 418.400000
2857 12375 11299 1 109.50000 418.400000
11138 12375 11299 1 109.50000 418.400000
2858 12376 2859 1 109.50000 418.400000
2858 12376 2860 1 109.50000 418.400000
2858 12376 7512 1 109.50000 418.400000
2859 12376 2860 1 109.50000 418.400000
2859 12376 7512 1 109.50000 418.400000
2860 12376 7512 1 109.50000 418.400000
261 12377 470 1 109.50000 418.400000
261 12377 2862 1 109.50000 418.400000
261 12377 2863 1 109.50000 418.400000
470 12377 2862 1 109.50000 418.400000
470 12377 2863 1 109.50000 418.400000
2862 12377 2863 1 109.50000 418.400000
2550 12378 2864 1 109.50000 418.400000
2550 12378 2865 1 109.50000 418.400000
2550 12378 4860 1 109.50000 418.400000
2864 12378 2865 1 109.50000 418.400000
2864 12378 4860 1 109.50000 418.400000
2865 12378 4860 1 109.50000 418.400000
2867 12379 2868 1 109.50000 418.400000
2867 12379 2869 1 109.50000 418.400000
2867 12379 2870 1 109.50000 418.400000
2868 12379 2869 1 109.50000 418.400000
2868 12379 2870 1 109.50000 418.400000
2869 12379 2870 1 109.50000 418.400000
1142 12380 2871 1 109.50000 418.400000
1142 12380 2872 1 109.50000 418.400000
1142 12380 2873 1 109.50000 418.400000
2871 12380 2872 1 109.50000 418.400000
2871 12380 2873 1 109.50000 418.400000
2872 12380 2873 1 109.50000 418.400000
1206 12381 2874 1 109.50000 418.400000
1206 12381 2875 1 109.50000 418.400000
1206 12381 2876 1 109.50000 418.400000
2874 12381 2875 1 109.50000 418.400000
2874 12381 2876 1 109.50000 418.400000
2875 12381 2876 1 109.50000 418.400000
2040 12382 2877 1 109.50000 418.400000
2040 12382 2878 1 109.50000 418.400000
2040 12382 2879 1 109.50000 418.400000
2877 12382 2878 1 109.50000 418.400000
2877 12382 2879 1 109.50000 418.400000
2878 12382 2879 1 109.50000 418.400000
2880 12383 2881 1 109.50000 418.400000
2880 12383 2882 1 109.50000 418.400000
2880 12383 2883 1 109.50000 418.400000
2881 12383 2882 1 109.50000 418.400000
2881 12383 2883 1 109.50000 418.400000
2882 12383 2883 1 109.50000 418.400000
2559 12384 2884 1 109.50000 418.400000
2559 12384 2885 1 109.50000 418.400000
2559 12384 11491 1 109.50000 418.400000
2884 12384 2885 1 109.50000 418.400000
2884 12384 11491 1 109.50000 418.400000
2885 12384 11491 1 109.50000 418.400000
1937 12385 2886 1 109.50000 418.400000
1937 12385 2887 1 109.50000 418.400000
1937 12385 2888 1 109.50000 418.400000
2886 12385 2887 1 109.50000 418.400000
2886 12385 2888 1 109.50000 418.400000
2887 12385 2888 1 109.50000 418.400000
2889 12386 2890 1 109.50000 418.400000
2889 12386 2891 1 109.50000 418.400000
2889 12386 11487 1 109.50000 418.400000
2890 12386 2891 1 109.50000 418.400000
2890 12386 11487 1 109.50000 418.400000
2891 12386 11487 1 109.50000 418.400000
2892 12387 2893 1 109.50000 418.400000
2892 12387 2895 1 109.50000 418.400000
2892 12387 9517 1 109.50000 418.400000
2893 12387 2895 1 109.50000 418.400000
2893 12387 9517 1 109.50000 418.400000
2895 12387 9517 1 109.50000 418.400000
2896 12388 2897 1 109.50000 418.400000
2896 12388 2898 1 109.50000 418.400000
2896 12388 2899 1 109.50000 418.400000
2897 12388 2898 1 109.50000 418.400000
2897 12388 2899 1 109.50000 418.400000
2898 12388 2899 1 109.50000 418.400000
1810 12389 2900 1 109.50000 418.400000
1810 12389 2901 1 109.50000 418.400000
1810 12389 2902 1 109.50000 418.400000
2900 12389 2901 1 109.50000 418.400000
2900 12389 2902 1 109.50000 418.400000
2901 12389 2902 1 109.50000 418.400000
156 12390 2903 1 109.50000 418.400000
156 12390 2904 1 109.50000 418.400000
156 12390 2905 1 109.50000 418.400000
2903 12390 2904 1 109.50000 418.400000
2903 12390 2905 1 109.50000 418.400000
2904 12390 2905 1 109.50000 418.400000
580 12391 906 1 109.50000 418.400000
580 12391 2906 1 109.50000 418.400000
580 12391 2908 1 109.50000 418.400000
906 12391 2906 1 109.50000 418.400000
906 12391 2908 1 109.50000 418.400000
2906 12391 2908 1 109.50000 418.400000
334 12392 2909 1 109.50000 418.400000
334 12392 2910 1 109.50000 418.400000
334 12392 2911 1 109.50000 418.400000
2909 12392 2910 1 109.50000 418.400000
2909 12392 2911 1 109.50000 418.400000
2910 12392 2911 1 109.50000 418.400000
2770 12393 2912 1 109.50000 418.400000
2770 12393 2913 1 109.50000 418.400000
2770 12393 2914 1 109.50000 418.400000
2912 12393 2913 1 109.50000 418.400000
2912 12393 2914 1 109.50000 418.400000
2913 12393 2914 1 109.50000 418.400000
2915 12394 2916 1 109.50000 418.400000
2915 12394 2917 1 109.50000 418.400000
2915 12394 3432 1 109.50000 418.400000
2916 12394 2917 1 109.50000 418.400000
2916 12394 3432 1 109.50000 418.400000
2917 12394 3432 1 109.50000 418.400000
2834 12395 2918 1 109.50000 418.400000
2834 12395 2919 1 109.50000 418.400000
2834 12395 2920 1 109.50000 418.400000
2918 12395 2919 1 109.50000 418.400000
2918 12395 2920 1 109.50000 418.400000
2919 12395 2920 1 109.50000 418.400000
2506 12396 2921 1 109.50000 418.400000
2506 12396 2922 1 109.50000 418.400000
2506 12396 11468 1 109.50000 418.400000
2921 12396 2922 1 109.50000 418.400000
2921 12396 11468 1 109.50000 418.400000
2922 12396 11468 1 109.50000 418.400000
566 12397 1468 1 109.50000 418.400000
566 12397 1470 1 109.50000 418.400000
566 12397 2623 1 109.50000 418.400000
1468 12397 1470 1 109.50000 418.400000
1468 12397 2623 1 109.50000 418.400000
1470 12397 2623 1 109.50000 418.400000
2923 12398 2924 1 109.50000 418.400000
2923 12398 2925 1 109.50000 418.400000
2923 12398 2926 1 109.50000 418.400000
2924 12398 2925 1 109.50000 418.400000
2924 12398 2926 1 109.50000 418.400000
2925 12398 2926 1 109.50000 418.400000
2927 12399 2928 1 109.50000 418.400000
2927 12399 2929 1 109.50000 418.400000
2927 12399 2930 1 109.50000 418.400000
2928 12399 2929 1 109.50000 418.400000
2928 12399 2930 1 109.50000 418.400000
2929 12399 2930 1 109.50000 418.400000
2003 12400 2931 1 109.50000 418.400000
2003 12400 2932 1 109.50000 418.400000
2003 12400 2933 1 109.50000 418.400000
2931 12400 2932 1 109.50000 418.400000
2931 12400 2933 1 109.50000 418.400000
2932 12400 2933 1 109.50000 418.400000
876 12401 2934 1 109.50000 418.400000
876 12401 2935 1 109.50000 418.400000
876 12401 2936 1 109.50000 418.400000
2934 12401 2935 1 109.50000 418.400000
2934 12401 2936 1 109.50000 418.400000
2935 12401 2936 1 109.50000 418.400000
655 12402 2937 1 109.50000 418.400000
655 12402 2938 1 109.50000 418.400000
655 12402 2939 1 109.50000 418.400000
2937 12402 2938 1 109.50000 418.400000
2937 12402 2939 1 109.50000 418.400000
2938 12402 2939 1 109.50000 418.400000
2940 12403 2941 1 109.50000 418.400000
2940 12403 2942 1 109.50000 418.400000
2940 12403 6129 1 109.50000 418.400000
2941 12403 2942 1 109.50000 418.400000
2941 12403 6129 1 109.50000 418.400000
2942 12403 6129 1 109.50000 418.400000
2944 12404 2945 1 109.50000 418.400000
2944 12404 2946 1 109.50000 418.400000
2944 12404 11449 1 109.50000 418.400000
2945 12404 2946 1 109.50000 418.400000
2945 12404 11449 1 109.50000 418.400000
2946 12404 11449 1 109.50000 418.400000
2947 12405 2948 1 109.50000 418.400000
2947 12405 2949 1 109.50000 418.400000
2947 12405 2950 1 109.50000 418.400000
2948 12405 2949 1 109.50000 418.400000
2948 12405 2950 1 109.50000 418.400000
2949 12405 2950 1 109.50000 418.400000
2953 12406 7431 1 109.50000 418.400000
2953 12406 8330 1 109.50000 418.400000
2953 12406 11062 1 109.50000 418.400000
7431 12406 8330 1 109.50000 418.400000
7431 12406 11062 1 109.50000 418.400000
8330 12406 11062 1 109.50000 418.400000
2269 12407 2955 1 109.50000 418.400000
2269 12407 2956 1 109.50000 418.400000
2269 12407 2957 1 109.50000 418.400000
2955 12407 2956 1 109.50000 418.400000
2955 12407 2957 1 109.50000 418.400000
2956 12407 2957 1 109.50000 418.400000
2958 12408 2959 1 109.50000 418.400000
2958 12408 2960 1 109.50000 418.400000
2958 12408 2961 1 109.50000 418.400000
2959 12408 2960 1 109.50000 418.400000
2959 12408 2961 1 109.50000 418.400000
2960 12408 2961 1 109.50000 418.400000
2962 12409 2963 1 109.50000 418.400000
2962 12409 2964 1 109.50000 418.400000
2962 12409 2965 1 109.50000 418.400000
2963 12409 2964 1 109.50000 418.400000
2963 12409 2965 1 109.50000 418.400000
2964 12409 2965 1 109.50000 418.400000
2966 12410 2967 1 109.50000 418.400000
2966 12410 2968 1 109.50000 418.400000
2966 12410 2969 1 109.50000 418.400000
2967 12410 2968 1 109.50000 418.400000
2967 12410 2969 1 109.50000 418.400000
2968 12410 2969 1 109.50000 418.400000
2970 12411 2971 1 109.50000 418.400000
2970 12411 2973 1 109.50000 418.400000
2970 12411 4010 1 109.50000 418.400000
2971 12411 2973 1 109.50000 418.400000
2971 12411 4010 1 109.50000 418.400000
2973 12411 4010 1 109.50000 418.400000
2974 12412 2975 1 109.50000 418.400000
2974 12412 2976 1 109.50000 418.400000
2974 12412 2977 1 109.50000 418.400000
2975 12412 2976 1 109.50000 418.400000
2975 12412 2977 1 109.50000 418.400000
2976 12412 2977 1 109.50000 418.400000
2978 12413 2979 1 109.50000 418.400000
2978 12413 2980 1 109.50000 418.400000
2978 12413 2981 1 109.50000 418.400000
2979 12413 2980 1 109.50000 418.400000
2979 12413 2981 1 109.50000 418.400000
2980 12413 2981 1 109.50000 418.400000
2982 12414 2983 1 109.50000 418.400000
2982 12414 2984 1 109.50000 418.400000
2982 12414 2985 1 109.50000 418.400000
2983 12414 2984 1 109.50000 418.400000
2983 12414 2985 1 109.50000 418.400000
2984 12414 2985 1 109.50000 418.400000
2986 12415 2987 1 109.50000 418.400000
2986 12415 2988 1 109.50000 418.400000
2986 12415 11438 1 109.50000 418.400000
2987 12415 2988 1 109.50000 418.400000
2987 12415 11438 1 109.50000 418.400000
2988 12415 11438 1 109.50000 418.400000
2139 12416 2995 1 109.50000 418.400000
2139 12416 10649 1 109.50000 418.400000
2139 12416 11579 1 109.50000 418.400000
2995 12416 10649 1 109.50000 418.400000
2995 12416 11579 1 109.50000 418.400000
10649 12416 11579 1 109.50000 418.400000
1583 12417 2996 1 109.50000 418.400000
1583 12417 2997 1 109.50000 418.400000
1583 12417 11186 1 109.50000 418.400000
2996 12417 2997 1 109.50000 418.400000
2996 12417 11186 1 109.50000 418.400000
2997 12417 11186 1 109.50000 418.400000
2998 12418 2999 1 109.50000 418.400000
2998 12418 3000 1 109.50000 418.400000
2998 12418 3001 1 109.50000 418.400000
2999 12418 3000 1 109.50000 418.400000
2999 12418 3001 1 109.50000 418.400000
3000 12418 3001 1 109.50000 418.400000
902 12419 2488 1 109.50000 418.400000
902 12419 3002 1 109.50000 418.400000
902 12419 3003 1 109.50000 418.400000
2488 12419 3002 1 109.50000 418.400000
2488 12419 3003 1 109.50000 418.400000
3002 12419 3003 1 109.50000 418.400000
1373 12420 3004 1 109.50000 418.400000
1373 12420 3005 1 109.50000 418.400000
1373 12420 3006 1 109.50000 418.400000
3004 12420 3005 1 109.50000 418.400000
3004 12420 3006 1 109.50000 418.400000
3005 12420 3006 1 109.50000 418.400000
3007 12421 3009 1 109.50000 418.400000
3007 12421 3010 1 109.50000 418.400000
3007 12421 8894 1 109.50000 418.400000
3009 12421 3010 1 109.50000 418.400000
3009 12421 8894 1 109.50000 418.400000
3010 12421 8894 1 109.50000 418.400000
3490 12422 10069 1 109.50000 418.400000
3490 12422 11371 1 109.50000 418.400000
3490 12422 11594 1 109.50000 418.400000
10069 12422 11371 1 109.50000 418.400000
10069 12422 11594 1 109.50000 418.400000
11371 12422 11594 1 109.50000 418.400000
3011 12423 3012 1 109.50000 418.400000
3011 12423 3013 1 109.50000 418.400000
3011 12423 3014 1 109.50000 418.400000
3012 12423 3013 1 109.50000 418.400000
3012 12423 3014 1 109.50000 418.400000
3013 12423 3014 1 109.50000 418.400000
2504 12424 3015 1 109.50000 418.400000
2504 12424 3016 1 109.50000 418.400000
2504 12424 3017 1 109.50000 418.400000
3015 12424 3016 1 109.50000 418.400000
3015 12424 3017 1 109.50000 418.400000
3016 12424 3017 1 109.50000 418.400000
3018 12425 3019 1 109.50000 418.400000
3018 12425 3020 1 109.50000 418.400000
3018 12425 3021 1 109.50000 418.400000
3019 12425 3020 1 109.50000 418.400000
3019 12425 3021 1 109.50000 418.400000
3020 12425 3021 1 109.50000 418.400000
2117 12426 3022 1 109.50000 418.400000
2117 12426 3023 1 109.50000 418.400000
2117 12426 3024 1 109.50000 418.400000
3022 12426 3023 1 109.50000 418.400000
3022 12426 3024 1 109.50000 418.400000
3023 12426 3024 1 109.50000 418.400000
3025 12427 3026 1 109.50000 418.400000
3025 12427 3027 1 109.50000 418.400000
3025 12427 3028 1 109.50000 418.400000
3026 12427 3027 1 109.50000 418.400000
3026 12427 3028 1 109.50000 418.400000
3027 12427 3028 1 109.50000 418.400000
3029 12428 3030 1 109.50000 418.400000
3029 12428 3031 1 109.50000 418.400000
3029 12428 3032 1 109.50000 418.400000
3030 12428 3031 1 109.50000 418.400000
3030 12428 3032 1 109.50000 418.400000
3031 12428 3032 1 109.50000 418.400000
3033 12429 3034 1 109.50000 418.400000
3033 12429 3035 1 109.50000 418.400000
3033 12429 11275 1 109.50000 418.400000
3034 12429 3035 1 109.50000 418.400000
3034 12429 11275 1 109.50000 418.400000
3035 12429 11275 1 109.50000 418.400000
2597 12430 3036 1 109.50000 418.400000
2597 12430 3037 1 109.50000 418.400000
2597 12430 3038 1 109.50000 418.400000
3036 12430 3037 1 109.50000 418.400000
3036 12430 3038 1 109.50000 418.400000
3037 12430 3038 1 109.50000 418.400000
3039 12431 3040 1 109.50000 418.400000
3039 12431 3041 1 109.50000 418.400000
3039 12431 10913 1 109.50000 418.400000
3040 12431 3041 1 109.50000 418.400000
3040 12431 10913 1 109.50000 418.400000
3041 12431 10913 1 109.50000 418.400000
2027 12432 3042 1 109.50000 418.400000
2027 12432 11220 1 109.50000 418.400000
2027 12432 11244 1 109.50000 418.400000
3042 12432 11220 1 109.50000 418.400000
3042 12432 11244 1 109.50000 418.400000
11220 12432 11244 1 109.50000 418.400000
3043 12433 3044 1 109.50000 418.400000
3043 12433 3045 1 109.50000 418.400000
3043 12433 5380 1 109.50000 418.400000
3044 12433 3045 1 109.50000 418.400000
3044 12433 5380 1 109.50000 418.400000
3045 12433 5380 1 109.50000 418.400000
3047 12434 3048 1 109.50000 418.400000
3047 12434 11231 1 109.50000 418.400000
3047 12434 11522 1 109.50000 418.400000
3048 12434 11231 1 109.50000 418.400000
3048 12434 11522 1 109.50000 418.400000
11231 12434 11522 1 109.50000 418.400000
3049 12435 3050 1 109.50000 418.400000
3049 12435 3051 1 109.50000 418.400000
3049 12435 3052 1 109.50000 418.400000
3050 12435 3051 1 109.50000 418.400000
3050 12435 3052 1 109.50000 418.400000
3051 12435 3052 1 109.50000 418.400000
303 12436 3053 1 109.50000 418.400000
303 12436 3054 1 109.50000 418.400000
303 12436 3055 1 109.50000 418.400000
3053 12436 3054 1 109.50000 418.400000
3053 12436 3055 1 109.50000 418.400000
3054 12436 3055 1 109.50000 418.400000
918 12437 1107 1 109.50000 418.400000
918 12437 1108 1 109.50000 418.400000
918 12437 1109 1 109.50000 418.400000
1107 12437 1108 1 109.50000 418.400000
1107 12437 1109 1 109.50000 418.400000
1108 12437 1109 1 109.50000 418.400000
3058 12438 3059 1 109.50000 418.400000
3058 12438 3060 1 109.50000 418.400000
3058 12438 8970 1 109.50000 418.400000
3059 12438 3060 1 109.50000 418.400000
3059 12438 8970 1 109.50000 418.400000
3060 12438 8970 1 109.50000 418.400000
637 12439 1730 1 109.50000 418.400000
637 12439 3061 1 109.50000 418.400000
637 12439 3062 1 109.50000 418.400000
1730 12439 3061 1 109.50000 418.400000
1730 12439 3062 1 109.50000 418.400000
3061 12439 3062 1 109.50000 418.400000
3063 12440 3064 1 109.50000 418.400000
3063 12440 3065 1 109.50000 418.400000
3063 12440 3066 1 109.50000 418.400000
3064 12440 3065 1 109.50000 418.400000
3064 12440 3066 1 109.50000 418.400000
3065 12440 3066 1 109.50000 418.400000
533 12441 3067 1 109.50000 418.400000
533 12441 3068 1 109.50000 418.400000
533 12441 3069 1 109.50000 418.400000
3067 12441 3068 1 109.50000 418.400000
3067 12441 3069 1 109.50000 418.400000
3068 12441 3069 1 109.50000 418.400000
3070 12442 3071 1 109.50000 418.400000
3070 12442 3072 1 109.50000 418.400000
3070 12442 3073 1 109.50000 418.400000
3071 12442 3072 1 109.50000 418.400000
3071 12442 3073 1 109.50000 418.400000
3072 12442 3073 1 109.50000 418.400000
1917 12443 3074 1 109.50000 418.400000
1917 12443 3075 1 109.50000 418.400000
1917 12443 3076 1 109.50000 418.400000
3074 12443 3075 1 109.50000 418.400000
3074 12443 3076 1 109.50000 418.400000
3075 12443 3076 1 109.50000 418.400000
2675 12444 3077 1 109.50000 418.400000
2675 12444 3078 1 109.50000 418.400000
2675 12444 3079 1 109.50000 418.400000
3077 12444 3078 1 109.50000 418.400000
3077 12444 3079 1 109.50000 418.400000
3078 12444 3079 1 109.50000 418.400000
1316 12445 2055 1 109.50000 418.400000
1316 12445 3080 1 109.50000 418.400000
1316 12445 3081 1 109.50000 418.400000
2055 12445 3080 1 109.50000 418.400000
2055 12445 3081 1 109.50000 418.400000
3080 12445 3081 1 109.50000 418.400000
1484 12446 2302 1 109.50000 418.400000
1484 12446 3082 1 109.50000 418.400000
1484 12446 3083 1 109.50000 418.400000
2302 12446 3082 1 109.50000 418.400000
2302 12446 3083 1 109.50000 418.400000
3082 12446 3083 1 109.50000 418.400000
2060 12447 3085 1 109.50000 418.400000
2060 12447 3086 1 109.50000 418.400000
2060 12447 5909 1 109.50000 418.400000
3085 12447 3086 1 109.50000 418.400000
3085 12447 5909 1 109.50000 418.400000
3086 12447 5909 1 109.50000 418.400000
1956 12448 3087 1 109.50000 418.400000
1956 12448 3088 1 109.50000 418.400000
1956 12448 3089 1 109.50000 418.400000
3087 12448 3088 1 109.50000 418.400000
3087 12448 3089 1 109.50000 418.400000
3088 12448 3089 1 109.50000 418.400000
3090 12449 3091 1 109.50000 418.400000
3090 12449 3092 1 109.50000 418.400000
3090 12449 3093 1 109.50000 418.400000
3091 12449 3092 1 109.50000 418.400000
3091 12449 3093 1 109.50000 418.400000
3092 12449 3093 1 109.50000 418.400000
1279 12450 3094 1 109.50000 418.400000
1279 12450 3095 1 109.50000 418.400000
1279 12450 3096 1 109.50000 418.400000
3094 12450 3095 1 109.50000 418.400000
3094 12450 3096 1 109.50000 418.400000
3095 12450 3096 1 109.50000 418.400000
277 12451 3097 1 109.50000 418.400000
277 12451 3098 1 109.50000 418.400000
277 12451 3099 1 109.50000 418.400000
3097 12451 3098 1 109.50000 418.400000
3097 12451 3099 1 109.50000 418.400000
3098 12451 3099 1 109.50000 418.400000
64 12452 3100 1 109.50000 418.400000
64 12452 3101 1 109.50000 418.400000
64 12452 9283 1 109.50000 418.400000
3100 12452 3101 1 109.50000 418.400000
3100 12452 9283 1 109.50000 418.400000
3101 12452 9283 1 109.50000 418.400000
2272 12453 2878 1 109.50000 418.400000
2272 12453 3102 1 109.50000 418.400000
2272 12453 3103 1 109.50000 418.400000
2878 12453 3102 1 109.50000 418.400000
2878 12453 3103 1 109.50000 418.400000
3102 12453 3103 1 109.50000 418.400000
440 12454 3109 1 109.50000 418.400000
440 12454 10195 1 109.50000 418.400000
440 12454 11457 1 109.50000 418.400000
3109 12454 10195 1 109.50000 418.400000
3109 12454 11457 1 109.50000 418.400000
10195 12454 11457 1 109.50000 418.400000
1366 12455 3110 1 109.50000 418.400000
1366 12455 3111 1 109.50000 418.400000
1366 12455 3112 1 109.50000 418.400000
3110 12455 3111 1 109.50000 418.400000
3110 12455 3112 1 109.50000 418.400000
3111 12455 3112 1 109.50000 418.400000
3113 12456 3114 1 109.50000 418.400000
3113 12456 3115 1 109.50000 418.400000
3113 12456 3116 1 109.50000 418.400000
3114 12456 3115 1 109.50000 418.400000
3114 12456 3116 1 109.50000 418.400000
3115 12456 3116 1 109.50000 418.400000
2659 12457 2935 1 109.50000 418.400000
2659 12457 3117 1 109.50000 418.400000
2659 12457 3118 1 109.50000 418.400000
2935 12457 3117 1 109.50000 418.400000
2935 12457 3118 1 109.50000 418.400000
3117 12457 3118 1 109.50000 418.400000
3119 12458 3120 1 109.50000 418.400000
3119 12458 3121 1 109.50000 418.400000
3119 12458 11523 1 109.50000 418.400000
3120 12458 3121 1 109.50000 418.400000
3120 12458 11523 1 109.50000 418.400000
3121 12458 11523 1 109.50000 418.400000
3122 12459 3123 1 109.50000 418.400000
3122 12459 3124 1 109.50000 418.400000
3122 12459 3125 1 109.50000 418.400000
3123 12459 3124 1 109.50000 418.400000
3123 12459 3125 1 109.50000 418.400000
3124 12459 3125 1 109.50000 418.400000
3126 12460 3127 1 109.50000 418.400000
3126 12460 3128 1 109.50000 418.400000
3126 12460 3129 1 109.50000 418.400000
3127 12460 3128 1 109.50000 418.400000
3127 12460 3129 1 109.50000 418.400000
3128 12460 3129 1 109.50000 418.400000
1909 12461 3130 1 109.50000 418.400000
1909 12461 3131 1 109.50000 418.400000
1909 12461 3132 1 109.50000 418.400000
3130 12461 3131 1 109.50000 418.400000
3130 12461 3132 1 109.50000 418.400000
3131 12461 3132 1 109.50000 418.400000
3134 12462 3136 1 109.50000 418.400000
3134 12462 8505 1 109.50000 418.400000
3134 12462 8506 1 109.50000 418.400000
3136 12462 8505 1 109.50000 418.400000
3136 12462 8506 1 109.50000 418.400000
8505 12462 8506 1 109.50000 418.400000
900 12463 3137 1 109.50000 418.400000
900 12463 3138 1 109.50000 418.400000
900 12463 3139 1 109.50000 418.400000
3137 12463 3138 1 109.50000 418.400000
3137 12463 3139 1 109.50000 418.400000
3138 12463 3139 1 109.50000 418.400000
3140 12464 3141 1 109.50000 418.400000
3140 12464 3142 1 109.50000 418.400000
3140 12464 3143 1 109.50000 418.400000
3141 12464 3142 1 109.50000 418.400000
3141 12464 3143 1 109.50000 418.400000
3142 12464 3143 1 109.50000 418.400000
2294 12465 3144 1 109.50000 418.400000
2294 12465 3145 1 109.50000 418.400000
2294 12465 3146 1 109.50000 418.400000
3144 12465 3145 1 109.50000 418.400000
3144 12465 3146 1 109.50000 418.400000
3145 12465 3146 1 109.50000 418.400000
3148 12466 3149 1 109.50000 418.400000
3148 12466 11329 1 109.50000 418.400000
3148 12466 11386 1 109.50000 418.400000
3149 12466 11329 1 109.50000 418.400000
3149 12466 11386 1 109.50000 418.400000
11329 12466 11386 1 109.50000 418.400000
3150 12467 3151 1 109.50000 418.400000
3150 12467 3152 1 109.50000 418.400000
3150 12467 3153 1 109.50000 418.400000
3151 12467 3152 1 109.50000 418.400000
3151 12467 3153 1 109.50000 418.400000
3152 12467 3153 1 109.50000 418.400000
2396 12468 3154 1 109.50000 418.400000
2396 12468 3155 1 109.50000 418.400000
2396 12468 3156 1 109.50000 418.400000
3154 12468 3155 1 109.50000 418.400000
3154 12468 3156 1 109.50000 418.400000
3155 12468 3156 1 109.50000 418.400000
3157 12469 3158 1 109.50000 418.400000
3157 12469 3159 1 109.50000 418.400000
3157 12469 3160 1 109.50000 418.400000
3158 12469 3159 1 109.50000 418.400000
3158 12469 3160 1 109.50000 418.400000
3159 12469 3160 1 109.50000 418.400000
2404 12470 3162 1 109.50000 418.400000
2404 12470 3163 1 109.50000 418.400000
2404 12470 3164 1 109.50000 418.400000
3162 12470 3163 1 109.50000 418.400000
3162 12470 3164 1 109.50000 418.400000
3163 12470 3164 1 109.50000 418.400000
3165 12471 3166 1 109.50000 418.400000
3165 12471 3167 1 109.50000 418.400000
3165 12471 3168 1 109.50000 418.400000
3166 12471 3167 1 109.50000 418.400000
3166 12471 3168 1 109.50000 418.400000
3167 12471 3168 1 109.50000 418.400000
3169 12472 3170 1 109.50000 418.400000
3169 12472 3171 1 109.50000 418.400000
3169 12472 3172 1 109.50000 418.400000
3170 12472 3171 1 109.50000 418.400000
3170 12472 3172 1 109.50000 418.400000
3171 12472 3172 1 109.50000 418.400000
3173 12473 3174 1 109.50000 418.400000
3173 12473 3175 1 109.50000 418.400000
3173 12473 3176 1 109.50000 418.400000
3174 12473 3175 1 109.50000 418.400000
3174 12473 3176 1 109.50000 418.400000
3175 12473 3176 1 109.50000 418.400000
3177 12474 3178 1 109.50000 418.400000
3177 12474 3179 1 109.50000 418.400000
3177 12474 3180 1 109.50000 418.400000
3178 12474 3179 1 109.50000 418.400000
3178 12474 3180 1 109.50000 418.400000
3179 12474 3180 1 109.50000 418.400000
52 12475 3181 1 109.50000 418.400000
52 12475 3182 1 109.50000 418.400000
52 12475 3183 1 109.50000 418.400000
3181 12475 3182 1 109.50000 418.400000
3181 12475 3183 1 109.50000 418.400000
3182 12475 3183 1 109.50000 418.400000
593 12476 3185 1 109.50000 418.400000
593 12476 3186 1 109.50000 418.400000
593 12476 3187 1 109.50000 418.400000
3185 12476 3186 1 109.50000 418.400000
3185 12476 3187 1 109.50000 418.400000
3186 12476 3187 1 109.50000 418.400000
3188 12477 3189 1 109.50000 418.400000
3188 12477 3248 1 109.50000 418.400000
3188 12477 11342 1 109.50000 418.400000
3189 12477 3248 1 109.50000 418.400000
3189 12477 11342 1 109.50000 418.400000
3248 12477 11342 1 109.50000 418.400000
3190 12478 3191 1 109.50000 418.400000
3190 12478 3192 1 109.50000 418.400000
3190 12478 3193 1 109.50000 418.400000
3191 12478 3192 1 109.50000 418.400000
3191 12478 3193 1 109.50000 418.400000
3192 12478 3193 1 109.50000 418.400000
1028 12479 3194 1 109.50000 418.400000
1028 12479 3195 1 109.50000 418.400000
1028 12479 3197 1 109.50000 418.400000
3194 12479 3195 1 109.50000 418.400000
3194 12479 3197 1 109.50000 418.400000
3195 12479 3197 1 109.50000 418.400000
3198 12480 3199 1 109.50000 418.400000
3198 12480 3200 1 109.50000 418.400000
3198 12480 3201 1 109.50000 418.400000
3199 12480 3200 1 109.50000 418.400000
3199 12480 3201 1 109.50000 418.400000
3200 12480 3201 1 109.50000 418.400000
3202 12481 3203 1 109.50000 418.400000
3202 12481 3204 1 109.50000 418.400000
3202 12481 3205 1 109.50000 418.400000
3203 12481 3204 1 109.50000 418.400000
3203 12481 3205 1 109.50000 418.400000
3204 12481 3205 1 109.50000 418.400000
2022 12482 3206 1 109.50000 418.400000
2022 12482 3207 1 109.50000 418.400000
2022 12482 3208 1 109.50000 418.400000
3206 12482 3207 1 109.50000 418.400000
3206 12482 3208 1 109.50000 418.400000
3207 12482 3208 1 109.50000 418.400000
3209 12483 3210 1 109.50000 418.400000
3209 12483 3211 1 109.50000 418.400000
3209 12483 3212 1 109.50000 418.400000
3210 12483 3211 1 109.50000 418.400000
3210 12483 3212 1 109.50000 418.400000
3211 12483 3212 1 109.50000 418.400000
2880 12484 3213 1 109.50000 418.400000
2880 12484 3215 1 109.50000 418.400000
2880 12484 3450 1 109.50000 418.400000
3213 12484 3215 1 109.50000 418.400000
3213 12484 3450 1 109.50000 418.400000
3215 12484 3450 1 109.50000 418.400000
1602 12485 3216 1 109.50000 418.400000
1602 12485 3217 1 109.50000 418.400000
1602 12485 3218 1 109.50000 418.400000
3216 12485 3217 1 109.50000 418.400000
3216 12485 3218 1 109.50000 418.400000
3217 12485 3218 1 109.50000 418.400000
3219 12486 3220 1 109.50000 418.400000
3219 12486 3221 1 109.50000 418.400000
3219 12486 3222 1 109.50000 418.400000
3220 12486 3221 1 109.50000 418.400000
3220 12486 3222 1 109.50000 418.400000
3221 12486 3222 1 109.50000 418.400000
3225 12487 3226 1 109.50000 418.400000
3225 12487 3227 1 109.50000 418.400000
3225 12487 3228 1 109.50000 418.400000
3226 12487 3227 1 109.50000 418.400000
3226 12487 3228 1 109.50000 418.400000
3227 12487 3228 1 109.50000 418.400000
3229 12488 3230 1 109.50000 418.400000
3229 12488 3231 1 109.50000 418.400000
3229 12488 3232 1 109.50000 418.400000
3230 12488 3231 1 109.50000 418.400000
3230 12488 3232 1 109.50000 418.400000
3231 12488 3232 1 109.50000 418.400000
1357 12489 1359 1 109.50000 418.400000
1357 12489 1360 1 109.50000 418.400000
1357 12489 3233 1 109.50000 418.400000
1359 12489 1360 1 109.50000 418.400000
1359 12489 3233 1 109.50000 418.400000
1360 12489 3233 1 109.50000 418.400000
3236 12490 3237 1 109.50000 418.400000
3236 12490 3238 1 109.50000 418.400000
3236 12490 3239 1 109.50000 418.400000
3237 12490 3238 1 109.50000 418.400000
3237 12490 3239 1 109.50000 418.400000
3238 12490 3239 1 109.50000 418.400000
3240 12491 3241 1 109.50000 418.400000
3240 12491 3242 1 109.50000 418.400000
3240 12491 8115 1 109.50000 418.400000
3241 12491 3242 1 109.50000 418.400000
3241 12491 8115 1 109.50000 418.400000
3242 12491 8115 1 109.50000 418.400000
3093 12492 3243 1 109.50000 418.400000
3093 12492 3244 1 109.50000 418.400000
3093 12492 3245 1 109.50000 418.400000
3243 12492 3244 1 109.50000 418.400000
3243 12492 3245 1 109.50000 418.400000
3244 12492 3245 1 109.50000 418.400000
3246 12493 3247 1 109.50000 418.400000
3246 12493 3248 1 109.50000 418.400000
3246 12493 3249 1 109.50000 418.400000
3247 12493 3248 1 109.50000 418.400000
3247 12493 3249 1 109.50000 418.400000
3248 12493 3249 1 109.50000 418.400000
1492 12494 3250 1 109.50000 418.400000
1492 12494 3251 1 109.50000 418.400000
1492 12494 3252 1 109.50000 418.400000
3250 12494 3251 1 109.50000 418.400000
3250 12494 3252 1 109.50000 418.400000
3251 12494 3252 1 109.50000 418.400000
139 12495 3253 1 109.50000 418.400000
139 12495 3254 1 109.50000 418.400000
139 12495 3255 1 109.50000 418.400000
3253 12495 3254 1 109.50000 418.400000
3253 12495 3255 1 109.50000 418.400000
3254 12495 3255 1 109.50000 418.400000
3256 12496 3257 1 109.50000 418.400000
3256 12496 3258 1 109.50000 418.400000
3256 12496 3259 1 109.50000 418.400000
3257 12496 3258 1 109.50000 418.400000
3257 12496 3259 1 109.50000 418.400000
3258 12496 3259 1 109.50000 418.400000
3260 12497 3261 1 109.50000 418.400000
3260 12497 3262 1 109.50000 418.400000
3260 12497 3263 1 109.50000 418.400000
3261 12497 3262 1 109.50000 418.400000
3261 12497 3263 1 109.50000 418.400000
3262 12497 3263 1 109.50000 418.400000
2707 12498 3217 1 109.50000 418.400000
2707 12498 3222 1 109.50000 418.400000
2707 12498 3264 1 109.50000 418.400000
3217 12498 3222 1 109.50000 418.400000
3217 12498 3264 1 109.50000 418.400000
3222 12498 3264 1 109.50000 418.400000
3265 12499 3266 1 109.50000 418.400000
3265 12499 3267 1 109.50000 418.400000
3265 12499 3268 1 109.50000 418.400000
3266 12499 3267 1 109.50000 418.400000
3266 12499 3268 1 109.50000 418.400000
3267 12499 3268 1 109.50000 418.400000
3269 12500 3270 1 109.50000 418.400000
3269 12500 3271 1 109.50000 418.400000
3269 12500 3272 1 109.50000 418.400000
3270 12500 3271 1 109.50000 418.400000
3270 12500 3272 1 109.50000 418.400000
3271 12500 3272 1 109.50000 418.400000
3273 12501 3274 1 109.50000 418.400000
3273 12501 3275 1 109.50000 418.400000
3273 12501 3276 1 109.50000 418.400000
3274 12501 3275 1 109.50000 418.400000
3274 12501 3276 1 109.50000 418.400000
3275 12501 3276 1 109.50000 418.400000
983 12502 2334 1 109.50000 418.400000
983 12502 3277 1 109.50000 418.400000
983 12502 3278 1 109.50000 418.400000
2334 12502 3277 1 109.50000 418.400000
2334 12502 3278 1 109.50000 418.400000
3277 12502 3278 1 109.50000 418.400000
1301 12503 3279 1 109.50000 418.400000
1301 12503 3280 1 109.50000 418.400000
1301 12503 3281 1 109.50000 418.400000
3279 12503 3280 1 109.50000 418.400000
3279 12503 3281 1 109.50000 418.400000
3280 12503 3281 1 109.50000 418.400000
146 12504 3282 1 109.50000 418.400000
146 12504 3283 1 109.50000 418.400000
146 12504 11155 1 109.50000 418.400000
3282 12504 3283 1 109.50000 418.400000
3282 12504 11155 1 109.50000 418.400000
3283 12504 11155 1 109.50000 418.400000
3284 12505 3285 1 109.50000 418.400000
3284 12505 11389 1 109.50000 418.400000
3284 12505 11488 1 109.50000 418.400000
3285 12505 11389 1 109.50000 418.400000
3285 12505 11488 1 109.50000 418.400000
11389 12505 11488 1 109.50000 418.400000
1671 12506 1764 1 109.50000 418.400000
1671 12506 3286 1 109.50000 418.400000
1671 12506 3287 1 109.50000 418.400000
1764 12506 3286 1 109.50000 418.400000
1764 12506 3287 1 109.50000 418.400000
3286 12506 3287 1 109.50000 418.400000
1409 12507 3288 1 109.50000 418.400000
1409 12507 3289 1 109.50000 418.400000
1409 12507 3290 1 109.50000 418.400000
3288 12507 3289 1 109.50000 418.400000
3288 12507 3290 1 109.50000 418.400000
3289 12507 3290 1 109.50000 418.400000
3292 12508 3293 1 109.50000 418.400000
3292 12508 3294 1 109.50000 418.400000
3292 12508 5550 1 109.50000 418.400000
3293 12508 3294 1 109.50000 418.400000
3293 12508 5550 1 109.50000 418.400000
3294 12508 5550 1 109.50000 418.400000
3167 12509 3295 1 109.50000 418.400000
3167 12509 3296 1 109.50000 418.400000
3167 12509 3297 1 109.50000 418.400000
3295 12509 3296 1 109.50000 418.400000
3295 12509 3297 1 109.50000 418.400000
3296 12509 3297 1 109.50000 418.400000
3299 12510 3300 1 109.50000 418.400000
3299 12510 3301 1 109.50000 418.400000
3299 12510 6492 1 109.50000 418.400000
3300 12510 3301 1 109.50000 418.400000
3300 12510 6492 1 109.50000 418.400000
3301 12510 6492 1 109.50000 418.400000
3302 12511 3303 1 109.50000 418.400000
3302 12511 3304 1 109.50000 418.400000
3302 12511 11582 1 109.50000 418.400000
3303 12511 3304 1 109.50000 418.400000
3303 12511 11582 1 109.50000 418.400000
3304 12511 11582 1 109.50000 418.400000
3305 12512 3306 1 109.50000 418.400000
3305 12512 3307 1 109.50000 418.400000
3305 12512 3308 1 109.50000 418.400000
3306 12512 3307 1 109.50000 418.400000
3306 12512 3308 1 109.50000 418.400000
3307 12512 3308 1 109.50000 418.400000
3309 12513 3310 1 109.50000 418.400000
3309 12513 3311 1 109.50000 418.400000
3309 12513 3312 1 109.50000 418.400000
3310 12513 3311 1 109.50000 418.400000
3310 12513 3312 1 109.50000 418.400000
3311 12513 3312 1 109.50000 418.400000
3313 12514 3314 1 109.50000 418.400000
3313 12514 3315 1 109.50000 418.400000
3313 12514 3316 1 109.50000 418.400000
3314 12514 3315 1 109.50000 418.400000
3314 12514 3316 1 109.50000 418.400000
3315 12514 3316 1 109.50000 418.400000
333 12515 3317 1 109.50000 418.400000
333 12515 3318 1 109.50000 418.400000
333 12515 3319 1 109.50000 418.400000
3317 12515 3318 1 109.50000 418.400000
3317 12515 3319 1 109.50000 418.400000
3318 12515 3319 1 109.50000 418.400000
3152 12516 3320 1 109.50000 418.400000
3152 12516 3321 1 109.50000 418.400000
3152 12516 3322 1 109.50000 418.400000
3320 12516 3321 1 109.50000 418.400000
3320 12516 3322 1 109.50000 418.400000
3321 12516 3322 1 109.50000 418.400000
291 12517 972 1 109.50000 418.400000
291 12517 3323 1 109.50000 418.400000
291 12517 3324 1 109.50000 418.400000
972 12517 3323 1 109.50000 418.400000
972 12517 3324 1 109.50000 418.400000
3323 12517 3324 1 109.50000 418.400000
3325 12518 3326 1 109.50000 418.400000
3325 12518 3327 1 109.50000 418.400000
3325 12518 9134 1 109.50000 418.400000
3326 12518 3327 1 109.50000 418.400000
3326 12518 9134 1 109.50000 418.400000
3327 12518 9134 1 109.50000 418.400000
3329 12519 3330 1 109.50000 418.400000
3329 12519 3331 1 109.50000 418.400000
3329 12519 3332 1 109.50000 418.400000
3330 12519 3331 1 109.50000 418.400000
3330 12519 3332 1 109.50000 418.400000
3331 12519 3332 1 109.50000 418.400000
3333 12520 3334 1 109.50000 418.400000
3333 12520 3335 1 109.50000 418.400000
3333 12520 11268 1 109.50000 418.400000
3334 12520 3335 1 109.50000 418.400000
3334 12520 11268 1 109.50000 418.400000
3335 12520 11268 1 109.50000 418.400000
1980 12521 3336 1 109.50000 418.400000
1980 12521 3337 1 109.50000 418.400000
1980 12521 11188 1 109.50000 418.400000
3336 12521 3337 1 109.50000 418.400000
3336 12521 11188 1 109.50000 418.400000
3337 12521 11188 1 109.50000 418.400000
3340 12522 3341 1 109.50000 418.400000
3340 12522 3342 1 109.50000 418.400000
3340 12522 3343 1 109.50000 418.400000
3341 12522 3342 1 109.50000 418.400000
3341 12522 3343 1 109.50000 418.400000
3342 12522 3343 1 109.50000 418.400000
3344 12523 3345 1 109.50000 418.400000
3344 12523 3346 1 109.50000 418.400000
3344 12523 3347 1 109.50000 418.400000
3345 12523 3346 1 109.50000 418.400000
3345 12523 3347 1 109.50000 418.400000
3346 12523 3347 1 109.50000 418.400000
1502 12524 3348 1 109.50000 418.400000
1502 12524 3349 1 109.50000 418.400000
1502 12524 3350 1 109.50000 418.400000
3348 12524 3349 1 109.50000 418.400000
3348 12524 3350 1 109.50000 418.400000
3349 12524 3350 1 109.50000 418.400000
2919 12525 3354 1 109.50000 418.400000
2919 12525 3355 1 109.50000 418.400000
2919 12525 3356 1 109.50000 418.400000
3354 12525 3355 1 109.50000 418.400000
3354 12525 3356 1 109.50000 418.400000
3355 12525 3356 1 109.50000 418.400000
3358 12526 3359 1 109.50000 418.400000
3358 12526 3360 1 109.50000 418.400000
3358 12526 3739 1 109.50000 418.400000
3359 12526 3360 1 109.50000 418.400000
3359 12526 3739 1 109.50000 418.400000
3360 12526 3739 1 109.50000 418.400000
3038 12527 3361 1 109.50000 418.400000
3038 12527 3362 1 109.50000 418.400000
3038 12527 3363 1 109.50000 418.400000
3361 12527 3362 1 109.50000 418.400000
3361 12527 3363 1 109.50000 418.400000
3362 12527 3363 1 109.50000 418.400000
1406 12528 3364 1 109.50000 418.400000
1406 12528 3365 1 109.50000 418.400000
1406 12528 3367 1 109.50000 418.400000
3364 12528 3365 1 109.50000 418.400000
3364 12528 3367 1 109.50000 418.400000
3365 12528 3367 1 109.50000 418.400000
1574 12529 3368 1 109.50000 418.400000
1574 12529 3369 1 109.50000 418.400000
1574 12529 3370 1 109.50000 418.400000
3368 12529 3369 1 109.50000 418.400000
3368 12529 3370 1 109.50000 418.400000
3369 12529 3370 1 109.50000 418.400000
3372 12530 3373 1 109.50000 418.400000
3372 12530 3374 1 109.50000 418.400000
3372 12530 3375 1 109.50000 418.400000
3373 12530 3374 1 109.50000 418.400000
3373 12530 3375 1 109.50000 418.400000
3374 12530 3375 1 109.50000 418.400000
3376 12531 3377 1 109.50000 418.400000
3376 12531 3378 1 109.50000 418.400000
3376 12531 11515 1 109.50000 418.400000
3377 12531 3378 1 109.50000 418.400000
3377 12531 11515 1 109.50000 418.400000
3378 12531 11515 1 109.50000 418.400000
3381 12532 3382 1 109.50000 418.400000
3381 12532 3383 1 109.50000 418.400000
3381 12532 3384 1 109.50000 418.400000
3382 12532 3383 1 109.50000 418.400000
3382 12532 3384 1 109.50000 418.400000
3383 12532 3384 1 109.50000 418.400000
3385 12533 3386 1 109.50000 418.400000
3385 12533 3387 1 109.50000 418.400000
3385 12533 11404 1 109.50000 418.400000
3386 12533 3387 1 109.50000 418.400000
3386 12533 11404 1 109.50000 418.400000
3387 12533 11404 1 109.50000 418.400000
3388 12534 3389 1 109.50000 418.400000
3388 12534 3390 1 109.50000 418.400000
3388 12534 3391 1 109.50000 418.400000
3389 12534 3390 1 109.50000 418.400000
3389 12534 3391 1 109.50000 418.400000
3390 12534 3391 1 109.50000 418.400000
3392 12535 3393 1 109.50000 418.400000
3392 12535 3394 1 109.50000 418.400000
3392 12535 3395 1 109.50000 418.400000
3393 12535 3394 1 109.50000 418.400000
3393 12535 3395 1 109.50000 418.400000
3394 12535 3395 1 109.50000 418.400000
513 12536 3396 1 109.50000 418.400000
513 12536 3397 1 109.50000 418.400000
513 12536 3398 1 109.50000 418.400000
3396 12536 3397 1 109.50000 418.400000
3396 12536 3398 1 109.50000 418.400000
3397 12536 3398 1 109.50000 418.400000
588 12537 3399 1 109.50000 418.400000
588 12537 3400 1 109.50000 418.400000
588 12537 3401 1 109.50000 418.400000
3399 12537 3400 1 109.50000 418.400000
3399 12537 3401 1 109.50000 418.400000
3400 12537 3401 1 109.50000 418.400000
3402 12538 3403 1 109.50000 418.400000
3402 12538 3404 1 109.50000 418.400000
3402 12538 3405 1 109.50000 418.400000
3403 12538 3404 1 109.50000 418.400000
3403 12538 3405 1 109.50000 418.400000
3404 12538 3405 1 109.50000 418.400000
26 12539 2286 1 109.50000 418.400000
26 12539 3213 1 109.50000 418.400000
26 12539 3406 1 109.50000 418.400000
2286 12539 3213 1 109.50000 418.400000
2286 12539 3406 1 109.50000 418.400000
3213 12539 3406 1 109.50000 418.400000
524 12540 3408 1 109.50000 418.400000
524 12540 3409 1 109.50000 418.400000
524 12540 4419 1 109.50000 418.400000
3408 12540 3409 1 109.50000 418.400000
3408 12540 4419 1 109.50000 418.400000
3409 12540 4419 1 109.50000 418.400000
3410 12541 3411 1 109.50000 418.400000
3410 12541 3412 1 109.50000 418.400000
3410 12541 3413 1 109.50000 418.400000
3411 12541 3412 1 109.50000 418.400000
3411 12541 3413 1 109.50000 418.400000
3412 12541 3413 1 109.50000 418.400000
1284 12542 3414 1 109.50000 418.400000
1284 12542 3416 1 109.50000 418.400000
1284 12542 5927 1 109.50000 418.400000
3414 12542 3416 1 109.50000 418.400000
3414 12542 5927 1 109.50000 418.400000
3416 12542 5927 1 109.50000 418.400000
3420 12543 3421 1 109.50000 418.400000
3420 12543 3422 1 109.50000 418.400000
3420 12543 3423 1 109.50000 418.400000
3421 12543 3422 1 109.50000 418.400000
3421 12543 3423 1 109.50000 418.400000
3422 12543 3423 1 109.50000 418.400000
11 12544 3424 1 109.50000 418.400000
11 12544 3425 1 109.50000 418.400000
11 12544 11451 1 109.50000 418.400000
3424 12544 3425 1 109.50000 418.400000
3424 12544 11451 1 109.50000 418.400000
3425 12544 11451 1 109.50000 418.400000
3426 12545 3427 1 109.50000 418.400000
3426 12545 3428 1 109.50000 418.400000
3426 12545 3429 1 109.50000 418.400000
3427 12545 3428 1 109.50000 418.400000
3427 12545 3429 1 109.50000 418.400000
3428 12545 3429 1 109.50000 418.400000
3023 12546 3132 1 109.50000 418.400000
3023 12546 3432 1 109.50000 418.400000
3023 12546 3433 1 109.50000 418.400000
3132 12546 3432 1 109.50000 418.400000
3132 12546 3433 1 109.50000 418.400000
3432 12546 3433 1 109.50000 418.400000
3435 12547 3436 1 109.50000 418.400000
3435 12547 3437 1 109.50000 418.400000
3435 12547 3438 1 109.50000 418.400000
3436 12547 3437 1 109.50000 418.400000
3436 12547 3438 1 109.50000 418.400000
3437 12547 3438 1 109.50000 418.400000
3439 12548 3440 1 109.50000 418.400000
3439 12548 3441 1 109.50000 418.400000
3439 12548 3442 1 109.50000 418.400000
3440 12548 3441 1 109.50000 418.400000
3440 12548 3442 1 109.50000 418.400000
3441 12548 3442 1 109.50000 418.400000
2513 12549 2832 1 109.50000 418.400000
2513 12549 3374 1 109.50000 418.400000
2513 12549 3443 1 109.50000 418.400000
2832 12549 3374 1 109.50000 418.400000
2832 12549 3443 1 109.50000 418.400000
3374 12549 3443 1 109.50000 418.400000
3444 12550 3445 1 109.50000 418.400000
3444 12550 3446 1 109.50000 418.400000
3444 12550 3447 1 109.50000 418.400000
3445 12550 3446 1 109.50000 418.400000
3445 12550 3447 1 109.50000 418.400000
3446 12550 3447 1 109.50000 418.400000
3448 12551 3449 1 109.50000 418.400000
3448 12551 3450 1 109.50000 418.400000
3448 12551 3451 1 109.50000 418.400000
3449 12551 3450 1 109.50000 418.400000
3449 12551 3451 1 109.50000 418.400000
3450 12551 3451 1 109.50000 418.400000
56 12552 2671 1 109.50000 418.400000
56 12552 3452 1 109.50000 418.400000
56 12552 3453 1 109.50000 418.400000
2671 12552 3452 1 109.50000 418.400000
2671 12552 3453 1 109.50000 418.400000
3452 12552 3453 1 109.50000 418.400000
1571 12553 3454 1 109.50000 418.400000
1571 12553 3455 1 109.50000 418.400000
1571 12553 3456 1 109.50000 418.400000
3454 12553 3455 1 109.50000 418.400000
3454 12553 3456 1 109.50000 418.400000
3455 12553 3456 1 109.50000 418.400000
1439 12554 1472 1 109.50000 418.400000
1439 12554 3457 1 109.50000 418.400000
1439 12554 3459 1 109.50000 418.400000
1472 12554 3457 1 109.50000 418.400000
1472 12554 3459 1 109.50000 418.400000
3457 12554 3459 1 109.50000 418.400000
3460 12555 3461 1 109.50000 418.400000
3460 12555 3462 1 109.50000 418.400000
3460 12555 3463 1 109.50000 418.400000
3461 12555 3462 1 109.50000 418.400000
3461 12555 3463 1 109.50000 418.400000
3462 12555 3463 1 109.50000 418.400000
3464 12556 3465 1 109.50000 418.400000
3464 12556 3466 1 109.50000 418.400000
3464 12556 3467 1 109.50000 418.400000
3465 12556 3466 1 109.50000 418.400000
3465 12556 3467 1 109.50000 418.400000
3466 12556 3467 1 109.50000 418.400000
2460 12557 3468 1 109.50000 418.400000
2460 12557 3469 1 109.50000 418.400000
2460 12557 3470 1 109.50000 418.400000
3468 12557 3469 1 109.50000 418.400000
3468 12557 3470 1 109.50000 418.400000
3469 12557 3470 1 109.50000 418.400000
3471 12558 3472 1 109.50000 418.400000
3471 12558 3473 1 109.50000 418.400000
3471 12558 3474 1 109.50000 418.400000
3472 12558 3473 1 109.50000 418.400000
3472 12558 3474 1 109.50000 418.400000
3473 12558 3474 1 109.50000 418.400000
2365 12559 3434 1 109.50000 418.400000
2365 12559 3475 1 109.50000 418.400000
2365 12559 3476 1 109.50000 418.400000
3434 12559 3475 1 109.50000 418.400000
3434 12559 3476 1 109.50000 418.400000
3475 12559 3476 1 109.50000 418.400000
3477 12560 3478 1 109.50000 418.400000
3477 12560 3479 1 109.50000 418.400000
3477 12560 11434 1 109.50000 418.400000
3478 12560 3479 1 109.50000 418.400000
3478 12560 11434 1 109.50000 418.400000
3479 12560 11434 1 109.50000 418.400000
3480 12561 3481 1 109.50000 418.400000
3480 12561 3482 1 109.50000 418.400000
3480 12561 3483 1 109.50000 418.400000
3481 12561 3482 1 109.50000 418.400000
3481 12561 3483 1 109.50000 418.400000
3482 12561 3483 1 109.50000 418.400000
784 12562 2738 1 109.50000 418.400000
784 12562 3484 1 109.50000 418.400000
784 12562 3485 1 109.50000 418.400000
2738 12562 3484 1 109.50000 418.400000
2738 12562 3485 1 109.50000 418.400000
3484 12562 3485 1 109.50000 418.400000
3486 12563 3487 1 109.50000 418.400000
3486 12563 3488 1 109.50000 418.400000
3486 12563 11545 1 109.50000 418.400000
3487 12563 3488 1 109.50000 418.400000
3487 12563 11545 1 109.50000 418.400000
3488 12563 11545 1 109.50000 418.400000
729 12564 3489 1 109.50000 418.400000
729 12564 3490 1 109.50000 418.400000
729 12564 3491 1 109.50000 418.400000
3489 12564 3490 1 109.50000 418.400000
3489 12564 3491 1 109.50000 418.400000
3490 12564 3491 1 109.50000 418.400000
3495 12565 3496 1 109.50000 418.400000
3495 12565 3497 1 109.50000 418.400000
3495 12565 3498 1 109.50000 418.400000
3496 12565 3497 1 109.50000 418.400000
3496 12565 3498 1 109.50000 418.400000
3497 12565 3498 1 109.50000 418.400000
3499 12566 3500 1 109.50000 418.400000
3499 12566 3501 1 109.50000 418.400000
3499 12566 3502 1 109.50000 418.400000
3500 12566 3501 1 109.50000 418.400000
3500 12566 3502 1 109.50000 418.400000
3501 12566 3502 1 109.50000 418.400000
1565 12567 3503 1 109.50000 418.400000
1565 12567 3504 1 109.50000 418.400000
1565 12567 3505 1 109.50000 418.400000
3503 12567 3504 1 109.50000 418.400000
3503 12567 3505 1 109.50000 418.400000
3504 12567 3505 1 109.50000 418.400000
3506 12568 3507 1 109.50000 418.400000
3506 12568 3508 1 109.50000 418.400000
3506 12568 3509 1 109.50000 418.400000
3507 12568 3508 1 109.50000 418.400000
3507 12568 3509 1 109.50000 418.400000
3508 12568 3509 1 109.50000 418.400000
3510 12569 3511 1 109.50000 418.400000
3510 12569 3512 1 109.50000 418.400000
3510 12569 3513 1 109.50000 418.400000
3511 12569 3512 1 109.50000 418.400000
3511 12569 3513 1 109.50000 418.400000
3512 12569 3513 1 109.50000 418.400000
3214 12570 3215 1 109.50000 418.400000
3214 12570 3514 1 109.50000 418.400000
3214 12570 3515 1 109.50000 418.400000
3215 12570 3514 1 109.50000 418.400000
3215 12570 3515 1 109.50000 418.400000
3514 12570 3515 1 109.50000 418.400000
267 12571 3516 1 109.50000 418.400000
267 12571 3517 1 109.50000 418.400000
267 12571 9304 1 109.50000 418.400000
3516 12571 3517 1 109.50000 418.400000
3516 12571 9304 1 109.50000 418.400000
3517 12571 9304 1 109.50000 418.400000
903 12572 3518 1 109.50000 418.400000
903 12572 3519 1 109.50000 418.400000
903 12572 3520 1 109.50000 418.400000
3518 12572 3519 1 109.50000 418.400000
3518 12572 3520 1 109.50000 418.400000
3519 12572 3520 1 109.50000 418.400000
3521 12573 3522 1 109.50000 418.400000
3521 12573 3523 1 109.50000 418.400000
3521 12573 3524 1 109.50000 418.400000
3522 12573 3523 1 109.50000 418.400000
3522 12573 3524 1 109.50000 418.400000
3523 12573 3524 1 109.50000 418.400000
219 12574 3528 1 109.50000 418.400000
219 12574 3529 1 109.50000 418.400000
219 12574 3530 1 109.50000 418.400000
3528 12574 3529 1 109.50000 418.400000
3528 12574 3530 1 109.50000 418.400000
3529 12574 3530 1 109.50000 418.400000
3531 12575 3532 1 109.50000 418.400000
3531 12575 3533 1 109.50000 418.400000
3531 12575 3534 1 109.50000 418.400000
3532 12575 3533 1 109.50000 418.400000
3532 12575 3534 1 109.50000 418.400000
3533 12575 3534 1 109.50000 418.400000
720 12576 3535 1 109.50000 418.400000
720 12576 3536 1 109.50000 418.400000
720 12576 3537 1 109.50000 418.400000
3535 12576 3536 1 109.50000 418.400000
3535 12576 3537 1 109.50000 418.400000
3536 12576 3537 1 109.50000 418.400000
3538 12577 3539 1 109.50000 418.400000
3538 12577 3540 1 109.50000 418.400000
3538 12577 3541 1 109.50000 418.400000
3539 12577 3540 1 109.50000 418.400000
3539 12577 3541 1 109.50000 418.400000
3540 12577 3541 1 109.50000 418.400000
3542 12578 3543 1 109.50000 418.400000
3542 12578 3544 1 109.50000 418.400000
3542 12578 3545 1 109.50000 418.400000
3543 12578 3544 1 109.50000 418.400000
3543 12578 3545 1 109.50000 418.400000
3544 12578 3545 1 109.50000 418.400000
1743 12579 3546 1 109.50000 418.400000
1743 12579 3547 1 109.50000 418.400000
1743 12579 3548 1 109.50000 418.400000
3546 12579 3547 1 109.50000 418.400000
3546 12579 3548 1 109.50000 418.400000
3547 12579 3548 1 109.50000 418.400000
3549 12580 3550 1 109.50000 418.400000
3549 12580 3551 1 109.50000 418.400000
3549 12580 3552 1 109.50000 418.400000
3550 12580 3551 1 109.50000 418.400000
3550 12580 3552 1 109.50000 418.400000
3551 12580 3552 1 109.50000 418.400000
1886 12581 2850 1 109.50000 418.400000
1886 12581 3553 1 109.50000 418.400000
1886 12581 3554 1 109.50000 418.400000
2850 12581 3553 1 109.50000 418.400000
2850 12581 3554 1 109.50000 418.400000
3553 12581 3554 1 109.50000 418.400000
3555 12582 3556 1 109.50000 418.400000
3555 12582 3557 1 109.50000 418.400000
3555 12582 3558 1 109.50000 418.400000
3556 12582 3557 1 109.50000 418.400000
3556 12582 3558 1 109.50000 418.400000
3557 12582 3558 1 109.50000 418.400000
3563 12583 3564 1 109.50000 418.400000
3563 12583 6283 1 109.50000 418.400000
3563 12583 10332 1 109.50000 418.400000
3564 12583 6283 1 109.50000 418.400000
3564 12583 10332 1 109.50000 418.400000
6283 12583 10332 1 109.50000 418.400000
3566 12584 3567 1 109.50000 418.400000
3566 12584 3568 1 109.50000 418.400000
3566 12584 11508 1 109.50000 418.400000
3567 12584 3568 1 109.50000 418.400000
3567 12584 11508 1 109.50000 418.400000
3568 12584 11508 1 109.50000 418.400000
3569 12585 3570 1 109.50000 418.400000
3569 12585 11288 1 109.50000 418.400000
3569 12585 11323 1 109.50000 418.400000
3570 12585 11288 1 109.50000 418.400000
3570 12585 11323 1 109.50000 418.400000
11288 12585 11323 1 109.50000 418.400000
3571 12586 3572 1 109.50000 418.400000
3571 12586 3573 1 109.50000 418.400000
3571 12586 3574 1 109.50000 418.400000
3572 12586 3573 1 109.50000 418.400000
3572 12586 3574 1 109.50000 418.400000
3573 12586 3574 1 109.50000 418.400000
745 12587 3455 1 109.50000 418.400000
745 12587 3575 1 109.50000 418.400000
745 12587 3576 1 109.50000 418.400000
3455 12587 3575 1 109.50000 418.400000
3455 12587 3576 1 109.50000 418.400000
3575 12587 3576 1 109.50000 418.400000
1648 12588 1649 1 109.50000 418.400000
1648 12588 3578 1 109.50000 418.400000
1648 12588 3579 1 109.50000 418.400000
1649 12588 3578 1 109.50000 418.400000
1649 12588 3579 1 109.50000 418.400000
3578 12588 3579 1 109.50000 418.400000
3002 12589 3580 1 109.50000 418.400000
3002 12589 3581 1 109.50000 418.400000
3002 12589 3582 1 109.50000 418.400000
3580 12589 3581 1 109.50000 418.400000
3580 12589 3582 1 109.50000 418.400000
3581 12589 3582 1 109.50000 418.400000
755 12590 2127 1 109.50000 418.400000
755 12590 3436 1 109.50000 418.400000
755 12590 3583 1 109.50000 418.400000
2127 12590 3436 1 109.50000 418.400000
2127 12590 3583 1 109.50000 418.400000
3436 12590 3583 1 109.50000 418.400000
286 12591 3584 1 109.50000 418.400000
286 12591 3585 1 109.50000 418.400000
286 12591 3586 1 109.50000 418.400000
3584 12591 3585 1 109.50000 418.400000
3584 12591 3586 1 109.50000 418.400000
3585 12591 3586 1 109.50000 418.400000
3588 12592 3589 1 109.50000 418.400000
3588 12592 3590 1 109.50000 418.400000
3588 12592 5393 1 109.50000 418.400000
3589 12592 3590 1 109.50000 418.400000
3589 12592 5393 1 109.50000 418.400000
3590 12592 5393 1 109.50000 418.400000
3591 12593 3592 1 109.50000 418.400000
3591 12593 3593 1 109.50000 418.400000
3591 12593 3594 1 109.50000 418.400000
3592 12593 3593 1 109.50000 418.400000
3592 12593 3594 1 109.50000 418.400000
3593 12593 3594 1 109.50000 418.400000
2446 12594 3595 1 109.50000 418.400000
2446 12594 3596 1 109.50000 418.400000
2446 12594 3597 1 109.50000 418.400000
3595 12594 3596 1 109.50000 418.400000
3595 12594 3597 1 109.50000 418.400000
3596 12594 3597 1 109.50000 418.400000
644 12595 3598 1 109.50000 418.400000
644 12595 3599 1 109.50000 418.400000
644 12595 3600 1 109.50000 418.400000
3598 12595 3599 1 109.50000 418.400000
3598 12595 3600 1 109.50000 418.400000
3599 12595 3600 1 109.50000 418.400000
1123 12596 3601 1 109.50000 418.400000
1123 12596 11180 1 109.50000 418.400000
1123 12596 11250 1 109.50000 418.400000
3601 12596 11180 1 109.50000 418.400000
3601 12596 11250 1 109.50000 418.400000
11180 12596 11250 1 109.50000 418.400000
612 12597 3602 1 109.50000 418.400000
612 12597 3603 1 109.50000 418.400000
612 12597 3604 1 109.50000 418.400000
3602 12597 3603 1 109.50000 418.400000
3602 12597 3604 1 109.50000 418.400000
3603 12597 3604 1 109.50000 418.400000
3605 12598 3606 1 109.50000 418.400000
3605 12598 3607 1 109.50000 418.400000
3605 12598 3608 1 109.50000 418.400000
3606 12598 3607 1 109.50000 418.400000
3606 12598 3608 1 109.50000 418.400000
3607 12598 3608 1 109.50000 418.400000
3609 12599 3610 1 109.50000 418.400000
3609 12599 3611 1 109.50000 418.400000
3609 12599 3612 1 109.50000 418.400000
3610 12599 3611 1 109.50000 418.400000
3610 12599 3612 1 109.50000 418.400000
3611 12599 3612 1 109.50000 418.400000
3613 12600 3614 1 109.50000 418.400000
3613 12600 3615 1 109.50000 418.400000
3613 12600 3616 1 109.50000 418.400000
3614 12600 3615 1 109.50000 418.400000
3614 12600 3616 1 109.50000 418.400000
3615 12600 3616 1 109.50000 418.400000
1499 12601 1500 1 109.50000 418.400000
1499 12601 3618 1 109.50000 418.400000
1499 12601 3619 1 109.50000 418.400000
1500 12601 3618 1 109.50000 418.400000
1500 12601 3619 1 109.50000 418.400000
3618 12601 3619 1 109.50000 418.400000
855 12602 3620 1 109.50000 418.400000
855 12602 3621 1 109.50000 418.400000
855 12602 3622 1 109.50000 418.400000
3620 12602 3621 1 109.50000 418.400000
3620 12602 3622 1 109.50000 418.400000
3621 12602 3622 1 109.50000 418.400000
3623 12603 3624 1 109.50000 418.400000
3623 12603 3626 1 109.50000 418.400000
3623 12603 6768 1 109.50000 418.400000
3624 12603 3626 1 109.50000 418.400000
3624 12603 6768 1 109.50000 418.400000
3626 12603 6768 1 109.50000 418.400000
1939 12604 3627 1 109.50000 418.400000
1939 12604 11230 1 109.50000 418.400000
1939 12604 11256 1 109.50000 418.400000
3627 12604 11230 1 109.50000 418.400000
3627 12604 11256 1 109.50000 418.400000
11230 12604 11256 1 109.50000 418.400000
543 12605 3629 1 109.50000 418.400000
543 12605 3631 1 109.50000 418.400000
543 12605 7820 1 109.50000 418.400000
3629 12605 3631 1 109.50000 418.400000
3629 12605 7820 1 109.50000 418.400000
3631 12605 7820 1 109.50000 418.400000
669 12606 3632 1 109.50000 418.400000
669 12606 3633 1 109.50000 418.400000
669 12606 3634 1 109.50000 418.400000
3632 12606 3633 1 109.50000 418.400000
3632 12606 3634 1 109.50000 418.400000
3633 12606 3634 1 109.50000 418.400000
641 12607 1555 1 109.50000 418.400000
641 12607 3636 1 109.50000 418.400000
641 12607 3637 1 109.50000 418.400000
1555 12607 3636 1 109.50000 418.400000
1555 12607 3637 1 109.50000 418.400000
3636 12607 3637 1 109.50000 418.400000
3638 12608 3639 1 109.50000 418.400000
3638 12608 3640 1 109.50000 418.400000
3638 12608 3641 1 109.50000 418.400000
3639 12608 3640 1 109.50000 418.400000
3639 12608 3641 1 109.50000 418.400000
3640 12608 3641 1 109.50000 418.400000
1118 12609 3642 1 109.50000 418.400000
1118 12609 3643 1 109.50000 418.400000
1118 12609 11163 1 109.50000 418.400000
3642 12609 3643 1 109.50000 418.400000
3642 12609 11163 1 109.50000 418.400000
3643 12609 11163 1 109.50000 418.400000
2584 12610 3644 1 109.50000 418.400000
2584 12610 3645 1 109.50000 418.400000
2584 12610 11376 1 109.50000 418.400000
3644 12610 3645 1 109.50000 418.400000
3644 12610 11376 1 109.50000 418.400000
3645 12610 11376 1 109.50000 418.400000
1766 12611 3646 1 109.50000 418.400000
1766 12611 3647 1 109.50000 418.400000
1766 12611 3648 1 109.50000 418.400000
3646 12611 3647 1 109.50000 418.400000
3646 12611 3648 1 109.50000 418.400000
3647 12611 3648 1 109.50000 418.400000
2436 12612 3259 1 109.50000 418.400000
2436 12612 3649 1 109.50000 418.400000
2436 12612 3650 1 109.50000 418.400000
3259 12612 3649 1 109.50000 418.400000
3259 12612 3650 1 109.50000 418.400000
3649 12612 3650 1 109.50000 418.400000
2845 12613 3651 1 109.50000 418.400000
2845 12613 3652 1 109.50000 418.400000
2845 12613 3653 1 109.50000 418.400000
3651 12613 3652 1 109.50000 418.400000
3651 12613 3653 1 109.50000 418.400000
3652 12613 3653 1 109.50000 418.400000
3654 12614 3656 1 109.50000 418.400000
3654 12614 3657 1 109.50000 418.400000
3654 12614 4332 1 109.50000 418.400000
3656 12614 3657 1 109.50000 418.400000
3656 12614 4332 1 109.50000 418.400000
3657 12614 4332 1 109.50000 418.400000
1744 12615 3658 1 109.50000 418.400000
1744 12615 3659 1 109.50000 418.400000
1744 12615 3660 1 109.50000 418.400000
3658 12615 3659 1 109.50000 418.400000
3658 12615 3660 1 109.50000 418.400000
3659 12615 3660 1 109.50000 418.400000
3032 12616 3661 1 109.50000 418.400000
3032 12616 3662 1 109.50000 418.400000
3032 12616 3663 1 109.50000 418.400000
3661 12616 3662 1 109.50000 418.400000
3661 12616 3663 1 109.50000 418.400000
3662 12616 3663 1 109.50000 418.400000
3664 12617 3665 1 109.50000 418.400000
3664 12617 3666 1 109.50000 418.400000
3664 12617 3667 1 109.50000 418.400000
3665 12617 3666 1 109.50000 418.400000
3665 12617 3667 1 109.50000 418.400000
3666 12617 3667 1 109.50000 418.400000
3668 12618 3669 1 109.50000 418.400000
3668 12618 3670 1 109.50000 418.400000
3668 12618 3671 1 109.50000 418.400000
3669 12618 3670 1 109.50000 418.400000
3669 12618 3671 1 109.50000 418.400000
3670 12618 3671 1 109.50000 418.400000
3672 12619 3673 1 109.50000 418.400000
3672 12619 3674 1 109.50000 418.400000
3672 12619 3675 1 109.50000 418.400000
3673 12619 3674 1 109.50000 418.400000
3673 12619 3675 1 109.50000 418.400000
3674 12619 3675 1 109.50000 418.400000
2216 12620 3678 1 109.50000 418.400000
2216 12620 3679 1 109.50000 418.400000
2216 12620 3680 1 109.50000 418.400000
3678 12620 3679 1 109.50000 418.400000
3678 12620 3680 1 109.50000 418.400000
3679 12620 3680 1 109.50000 418.400000
1802 12621 3274 1 109.50000 418.400000
1802 12621 3681 1 109.50000 418.400000
1802 12621 3682 1 109.50000 418.400000
3274 12621 3681 1 109.50000 418.400000
3274 12621 3682 1 109.50000 418.400000
3681 12621 3682 1 109.50000 418.400000
822 12622 3683 1 109.50000 418.400000
822 12622 3684 1 109.50000 418.400000
822 12622 3685 1 109.50000 418.400000
3683 12622 3684 1 109.50000 418.400000
3683 12622 3685 1 109.50000 418.400000
3684 12622 3685 1 109.50000 418.400000
2082 12623 2857 1 109.50000 418.400000
2082 12623 3686 1 109.50000 418.400000
2082 12623 3687 1 109.50000 418.400000
2857 12623 3686 1 109.50000 418.400000
2857 12623 3687 1 109.50000 418.400000
3686 12623 3687 1 109.50000 418.400000
2088 12624 3688 1 109.50000 418.400000
2088 12624 3689 1 109.50000 418.400000
2088 12624 3690 1 109.50000 418.400000
3688 12624 3689 1 109.50000 418.400000
3688 12624 3690 1 109.50000 418.400000
3689 12624 3690 1 109.50000 418.400000
1845 12625 3691 1 109.50000 418.400000
1845 12625 3692 1 109.50000 418.400000
1845 12625 3693 1 109.50000 418.400000
3691 12625 3692 1 109.50000 418.400000
3691 12625 3693 1 109.50000 418.400000
3692 12625 3693 1 109.50000 418.400000
3694 12626 3695 1 109.50000 418.400000
3694 12626 3696 1 109.50000 418.400000
3694 12626 3697 1 109.50000 418.400000
3695 12626 3696 1 109.50000 418.400000
3695 12626 3697 1 109.50000 418.400000
3696 12626 3697 1 109.50000 418.400000
3698 12627 3699 1 109.50000 418.400000
3698 12627 3700 1 109.50000 418.400000
3698 12627 3701 1 109.50000 418.400000
3699 12627 3700 1 109.50000 418.400000
3699 12627 3701 1 109.50000 418.400000
3700 12627 3701 1 109.50000 418.400000
950 12628 1396 1 109.50000 418.400000
950 12628 3702 1 109.50000 418.400000
950 12628 3703 1 109.50000 418.400000
1396 12628 3702 1 109.50000 418.400000
1396 12628 3703 1 109.50000 418.400000
3702 12628 3703 1 109.50000 418.400000
3704 12629 3705 1 109.50000 418.400000
3704 12629 3706 1 109.50000 418.400000
3704 12629 3707 1 109.50000 418.400000
3705 12629 3706 1 109.50000 418.400000
3705 12629 3707 1 109.50000 418.400000
3706 12629 3707 1 109.50000 418.400000
3709 12630 3710 1 109.50000 418.400000
3709 12630 3711 1 109.50000 418.400000
3709 12630 10468 1 109.50000 418.400000
3710 12630 3711 1 109.50000 418.400000
3710 12630 10468 1 109.50000 418.400000
3711 12630 10468 1 109.50000 418.400000
3712 12631 3713 1 109.50000 418.400000
3712 12631 3715 1 109.50000 418.400000
3712 12631 6794 1 109.50000 418.400000
3713 12631 3715 1 109.50000 418.400000
3713 12631 6794 1 109.50000 418.400000
3715 12631 6794 1 109.50000 418.400000
3716 12632 3717 1 109.50000 418.400000
3716 12632 3718 1 109.50000 418.400000
3716 12632 3719 1 109.50000 418.400000
3717 12632 3718 1 109.50000 418.400000
3717 12632 3719 1 109.50000 418.400000
3718 12632 3719 1 109.50000 418.400000
1004 12633 3720 1 109.50000 418.400000
1004 12633 3721 1 109.50000 418.400000
1004 12633 3722 1 109.50000 418.400000
3720 12633 3721 1 109.50000 418.400000
3720 12633 3722 1 109.50000 418.400000
3721 12633 3722 1 109.50000 418.400000
673 12634 3723 1 109.50000 418.400000
673 12634 3724 1 109.50000 418.400000
673 12634 3725 1 109.50000 418.400000
3723 12634 3724 1 109.50000 418.400000
3723 12634 3725 1 109.50000 418.400000
3724 12634 3725 1 109.50000 418.400000
2064 12635 2697 1 109.50000 418.400000
2064 12635 3726 1 109.50000 418.400000
2064 12635 3727 1 109.50000 418.400000
2697 12635 3726 1 109.50000 418.400000
2697 12635 3727 1 109.50000 418.400000
3726 12635 3727 1 109.50000 418.400000
3728 12636 3730 1 109.50000 418.400000
3728 12636 3731 1 109.50000 418.400000
3728 12636 6971 1 109.50000 418.400000
3730 12636 3731 1 109.50000 418.400000
3730 12636 6971 1 109.50000 418.400000
3731 12636 6971 1 109.50000 418.400000
3732 12637 3733 1 109.50000 418.400000
3732 12637 3734 1 109.50000 418.400000
3732 12637 3735 1 109.50000 418.400000
3733 12637 3734 1 109.50000 418.400000
3733 12637 3735 1 109.50000 418.400000
3734 12637 3735 1 109.50000 418.400000
2095 12638 3736 1 109.50000 418.400000
2095 12638 3737 1 109.50000 418.400000
2095 12638 11596 1 109.50000 418.400000
3736 12638 3737 1 109.50000 418.400000
3736 12638 11596 1 109.50000 418.400000
3737 12638 11596 1 109.50000 418.400000
18 12639 3738 1 109.50000 418.400000
18 12639 3739 1 109.50000 418.400000
18 12639 3740 1 109.50000 418.400000
3738 12639 3739 1 109.50000 418.400000
3738 12639 3740 1 109.50000 418.400000
3739 12639 3740 1 109.50000 418.400000
3741 12640 3742 1 109.50000 418.400000
3741 12640 3743 1 109.50000 418.400000
3741 12640 3744 1 109.50000 418.400000
3742 12640 3743 1 109.50000 418.400000
3742 12640 3744 1 109.50000 418.400000
3743 12640 3744 1 109.50000 418.400000
3745 12641 3746 1 109.50000 418.400000
3745 12641 3747 1 109.50000 418.400000
3745 12641 3748 1 109.50000 418.400000
3746 12641 3747 1 109.50000 418.400000
3746 12641 3748 1 109.50000 418.400000
3747 12641 3748 1 109.50000 418.400000
1265 12642 3477 1 109.50000 418.400000
1265 12642 3749 1 109.50000 418.400000
1265 12642 3750 1 109.50000 418.400000
3477 12642 3749 1 109.50000 418.400000
3477 12642 3750 1 109.50000 418.400000
3749 12642 3750 1 109.50000 418.400000
3751 12643 3752 1 109.50000 418.400000
3751 12643 3753 1 109.50000 418.400000
3751 12643 3754 1 109.50000 418.400000
3752 12643 3753 1 109.50000 418.400000
3752 12643 3754 1 109.50000 418.400000
3753 12643 3754 1 109.50000 418.400000
3755 12644 3756 1 109.50000 418.400000
3755 12644 3757 1 109.50000 418.400000
3755 12644 3758 1 109.50000 418.400000
3756 12644 3757 1 109.50000 418.400000
3756 12644 3758 1 109.50000 418.400000
3757 12644 3758 1 109.50000 418.400000
2572 12645 2573 1 109.50000 418.400000
2572 12645 3760 1 109.50000 418.400000
2572 12645 3761 1 109.50000 418.400000
2573 12645 3760 1 109.50000 418.400000
2573 12645 3761 1 109.50000 418.400000
3760 12645 3761 1 109.50000 418.400000
2524 12646 3315 1 109.50000 418.400000
2524 12646 3762 1 109.50000 418.400000
2524 12646 3763 1 109.50000 418.400000
3315 12646 3762 1 109.50000 418.400000
3315 12646 3763 1 109.50000 418.400000
3762 12646 3763 1 109.50000 418.400000
1134 12647 1152 1 109.50000 418.400000
1134 12647 3764 1 109.50000 418.400000
1134 12647 3765 1 109.50000 418.400000
1152 12647 3764 1 109.50000 418.400000
1152 12647 3765 1 109.50000 418.400000
3764 12647 3765 1 109.50000 418.400000
3766 12648 3767 1 109.50000 418.400000
3766 12648 3768 1 109.50000 418.400000
3766 12648 3769 1 109.50000 418.400000
3767 12648 3768 1 109.50000 418.400000
3767 12648 3769 1 109.50000 418.400000
3768 12648 3769 1 109.50000 418.400000
958 12649 960 1 109.50000 418.400000
958 12649 2190 1 109.50000 418.400000
958 12649 2818 1 109.50000 418.400000
960 12649 2190 1 109.50000 418.400000
960 12649 2818 1 109.50000 418.400000
2190 12649 2818 1 109.50000 418.400000
1069 12650 3773 1 109.50000 418.400000
1069 12650 3774 1 109.50000 418.400000
1069 12650 3775 1 109.50000 418.400000
3773 12650 3774 1 109.50000 418.400000
3773 12650 3775 1 109.50000 418.400000
3774 12650 3775 1 109.50000 418.400000
3776 12651 3777 1 109.50000 418.400000
3776 12651 3778 1 109.50000 418.400000
3776 12651 3779 1 109.50000 418.400000
3777 12651 3778 1 109.50000 418.400000
3777 12651 3779 1 109.50000 418.400000
3778 12651 3779 1 109.50000 418.400000
3780 12652 3781 1 109.50000 418.400000
3780 12652 3782 1 109.50000 418.400000
3780 12652 3783 1 109.50000 418.400000
3781 12652 3782 1 109.50000 418.400000
3781 12652 3783 1 109.50000 418.400000
3782 12652 3783 1 109.50000 418.400000
2972 12653 3784 1 109.50000 418.400000
2972 12653 3785 1 109.50000 418.400000
2972 12653 3786 1 109.50000 418.400000
3784 12653 3785 1 109.50000 418.400000
3784 12653 3786 1 109.50000 418.400000
3785 12653 3786 1 109.50000 418.400000
3787 12654 3788 1 109.50000 418.400000
3787 12654 3789 1 109.50000 418.400000
3787 12654 3805 1 109.50000 418.400000
3788 12654 3789 1 109.50000 418.400000
3788 12654 3805 1 109.50000 418.400000
3789 12654 3805 1 109.50000 418.400000
2268 12655 3790 1 109.50000 418.400000
2268 12655 3791 1 109.50000 418.400000
2268 12655 3792 1 109.50000 418.400000
3790 12655 3791 1 109.50000 418.400000
3790 12655 3792 1 109.50000 418.400000
3791 12655 3792 1 109.50000 418.400000
3793 12656 3794 1 109.50000 418.400000
3793 12656 3795 1 109.50000 418.400000
3793 12656 3796 1 109.50000 418.400000
3794 12656 3795 1 109.50000 418.400000
3794 12656 3796 1 109.50000 418.400000
3795 12656 3796 1 109.50000 418.400000
3797 12657 3798 1 109.50000 418.400000
3797 12657 3799 1 109.50000 418.400000
3797 12657 3800 1 109.50000 418.400000
3798 12657 3799 1 109.50000 418.400000
3798 12657 3800 1 109.50000 418.400000
3799 12657 3800 1 109.50000 418.400000
3801 12658 3802 1 109.50000 418.400000
3801 12658 3803 1 109.50000 418.400000
3801 12658 3804 1 109.50000 418.400000
3802 12658 3803 1 109.50000 418.400000
3802 12658 3804 1 109.50000 418.400000
3803 12658 3804 1 109.50000 418.400000
3196 12659 3788 1 109.50000 418.400000
3196 12659 3806 1 109.50000 418.400000
3196 12659 3807 1 109.50000 418.400000
3788 12659 3806 1 109.50000 418.400000
3788 12659 3807 1 109.50000 418.400000
3806 12659 3807 1 109.50000 418.400000
3808 12660 3809 1 109.50000 418.400000
3808 12660 3810 1 109.50000 418.400000
3808 12660 3811 1 109.50000 418.400000
3809 12660 3810 1 109.50000 418.400000
3809 12660 3811 1 109.50000 418.400000
3810 12660 3811 1 109.50000 418.400000
3813 12661 3814 1 109.50000 418.400000
3813 12661 3815 1 109.50000 418.400000
3813 12661 9228 1 109.50000 418.400000
3814 12661 3815 1 109.50000 418.400000
3814 12661 9228 1 109.50000 418.400000
3815 12661 9228 1 109.50000 418.400000
1627 12662 3816 1 109.50000 418.400000
1627 12662 3817 1 109.50000 418.400000
1627 12662 3818 1 109.50000 418.400000
3816 12662 3817 1 109.50000 418.400000
3816 12662 3818 1 109.50000 418.400000
3817 12662 3818 1 109.50000 418.400000
3819 12663 3820 1 109.50000 418.400000
3819 12663 3821 1 109.50000 418.400000
3819 12663 3822 1 109.50000 418.400000
3820 12663 3821 1 109.50000 418.400000
3820 12663 3822 1 109.50000 418.400000
3821 12663 3822 1 109.50000 418.400000
2479 12664 3823 1 109.50000 418.400000
2479 12664 3824 1 109.50000 418.400000
2479 12664 3825 1 109.50000 418.400000
3823 12664 3824 1 109.50000 418.400000
3823 12664 3825 1 109.50000 418.400000
3824 12664 3825 1 109.50000 418.400000
591 12665 3826 1 109.50000 418.400000
591 12665 3827 1 109.50000 418.400000
591 12665 3828 1 109.50000 418.400000
3826 12665 3827 1 109.50000 418.400000
3826 12665 3828 1 109.50000 418.400000
3827 12665 3828 1 109.50000 418.400000
2974 12666 3829 1 109.50000 418.400000
2974 12666 3830 1 109.50000 418.400000
2974 12666 3831 1 109.50000 418.400000
3829 12666 3830 1 109.50000 418.400000
3829 12666 3831 1 109.50000 418.400000
3830 12666 3831 1 109.50000 418.400000
3832 12667 3834 1 109.50000 418.400000
3832 12667 4789 1 109.50000 418.400000
3832 12667 9939 1 109.50000 418.400000
3834 12667 4789 1 109.50000 418.400000
3834 12667 9939 1 109.50000 418.400000
4789 12667 9939 1 109.50000 418.400000
2723 12668 3835 1 109.50000 418.400000
2723 12668 3836 1 109.50000 418.400000
2723 12668 3837 1 109.50000 418.400000
3835 12668 3836 1 109.50000 418.400000
3835 12668 3837 1 109.50000 418.400000
3836 12668 3837 1 109.50000 418.400000
3838 12669 3839 1 109.50000 418.400000
3838 12669 3840 1 109.50000 418.400000
3838 12669 3841 1 109.50000 418.400000
3839 12669 3840 1 109.50000 418.400000
3839 12669 3841 1 109.50000 418.400000
3840 12669 3841 1 109.50000 418.400000
3063 12670 3842 1 109.50000 418.400000
3063 12670 3843 1 109.50000 418.400000
3063 12670 3844 1 109.50000 418.400000
3842 12670 3843 1 109.50000 418.400000
3842 12670 3844 1 109.50000 418.400000
3843 12670 3844 1 109.50000 418.400000
3845 12671 3846 1 109.50000 418.400000
3845 12671 3847 1 109.50000 418.400000
3845 12671 3848 1 109.50000 418.400000
3846 12671 3847 1 109.50000 418.400000
3846 12671 3848 1 109.50000 418.400000
3847 12671 3848 1 109.50000 418.400000
1588 12672 3849 1 109.50000 418.400000
1588 12672 3850 1 109.50000 418.400000
1588 12672 3851 1 109.50000 418.400000
3849 12672 3850 1 109.50000 418.400000
3849 12672 3851 1 109.50000 418.400000
3850 12672 3851 1 109.50000 418.400000
1659 12673 3852 1 109.50000 418.400000
1659 12673 3853 1 109.50000 418.400000
1659 12673 3854 1 109.50000 418.400000
3852 12673 3853 1 109.50000 418.400000
3852 12673 3854 1 109.50000 418.400000
3853 12673 3854 1 109.50000 418.400000
3855 12674 3856 1 109.50000 418.400000
3855 12674 3857 1 109.50000 418.400000
3855 12674 3858 1 109.50000 418.400000
3856 12674 3857 1 109.50000 418.400000
3856 12674 3858 1 109.50000 418.400000
3857 12674 3858 1 109.50000 418.400000
3859 12675 3860 1 109.50000 418.400000
3859 12675 3861 1 109.50000 418.400000
3859 12675 3862 1 109.50000 418.400000
3860 12675 3861 1 109.50000 418.400000
3860 12675 3862 1 109.50000 418.400000
3861 12675 3862 1 109.50000 418.400000
3863 12676 3864 1 109.50000 418.400000
3863 12676 3865 1 109.50000 418.400000
3863 12676 3866 1 109.50000 418.400000
3864 12676 3865 1 109.50000 418.400000
3864 12676 3866 1 109.50000 418.400000
3865 12676 3866 1 109.50000 418.400000
1608 12677 2333 1 109.50000 418.400000
1608 12677 3867 1 109.50000 418.400000
1608 12677 3868 1 109.50000 418.400000
2333 12677 3867 1 109.50000 418.400000
2333 12677 3868 1 109.50000 418.400000
3867 12677 3868 1 109.50000 418.400000
739 12678 1767 1 109.50000 418.400000
739 12678 3563 1 109.50000 418.400000
739 12678 3869 1 109.50000 418.400000
1767 12678 3563 1 109.50000 418.400000
1767 12678 3869 1 109.50000 418.400000
3563 12678 3869 1 109.50000 418.400000
3805 12679 3870 1 109.50000 418.400000
3805 12679 3871 1 109.50000 418.400000
3805 12679 3872 1 109.50000 418.400000
3870 12679 3871 1 109.50000 418.400000
3870 12679 3872 1 109.50000 418.400000
3871 12679 3872 1 109.50000 418.400000
3873 12680 3874 1 109.50000 418.400000
3873 12680 3875 1 109.50000 418.400000
3873 12680 3876 1 109.50000 418.400000
3874 12680 3875 1 109.50000 418.400000
3874 12680 3876 1 109.50000 418.400000
3875 12680 3876 1 109.50000 418.400000
2097 12681 3877 1 109.50000 418.400000
2097 12681 3878 1 109.50000 418.400000
2097 12681 11602 1 109.50000 418.400000
3877 12681 3878 1 109.50000 418.400000
3877 12681 11602 1 109.50000 418.400000
3878 12681 11602 1 109.50000 418.400000
3882 12682 3883 1 109.50000 418.400000
3882 12682 3884 1 109.50000 418.400000
3882 12682 3885 1 109.50000 418.400000
3883 12682 3884 1 109.50000 418.400000
3883 12682 3885 1 109.50000 418.400000
3884 12682 3885 1 109.50000 418.400000
200 12683 3886 1 109.50000 418.400000
200 12683 3887 1 109.50000 418.400000
200 12683 3888 1 109.50000 418.400000
3886 12683 3887 1 109.50000 418.400000
3886 12683 3888 1 109.50000 418.400000
3887 12683 3888 1 109.50000 418.400000
738 12684 3889 1 109.50000 418.400000
738 12684 3890 1 109.50000 418.400000
738 12684 3891 1 109.50000 418.400000
3889 12684 3890 1 109.50000 418.400000
3889 12684 3891 1 109.50000 418.400000
3890 12684 3891 1 109.50000 418.400000
3250 12685 3892 1 109.50000 418.400000
3250 12685 3893 1 109.50000 418.400000
3250 12685 3894 1 109.50000 418.400000
3892 12685 3893 1 109.50000 418.400000
3892 12685 3894 1 109.50000 418.400000
3893 12685 3894 1 109.50000 418.400000
3895 12686 3896 1 109.50000 418.400000
3895 12686 3897 1 109.50000 418.400000
3895 12686 3898 1 109.50000 418.400000
3896 12686 3897 1 109.50000 418.400000
3896 12686 3898 1 109.50000 418.400000
3897 12686 3898 1 109.50000 418.400000
457 12687 3899 1 109.50000 418.400000
457 12687 3900 1 109.50000 418.400000
457 12687 3901 1 109.50000 418.400000
3899 12687 3900 1 109.50000 418.400000
3899 12687 3901 1 109.50000 418.400000
3900 12687 3901 1 109.50000 418.400000
3902 12688 3903 1 109.50000 418.400000
3902 12688 3904 1 109.50000 418.400000
3902 12688 3905 1 109.50000 418.400000
3903 12688 3904 1 109.50000 418.400000
3903 12688 3905 1 109.50000 418.400000
3904 12688 3905 1 109.50000 418.400000
3906 12689 3907 1 109.50000 418.400000
3906 12689 3908 1 109.50000 418.400000
3906 12689 3909 1 109.50000 418.400000
3907 12689 3908 1 109.50000 418.400000
3907 12689 3909 1 109.50000 418.400000
3908 12689 3909 1 109.50000 418.400000
3600 12690 3910 1 109.50000 418.400000
3600 12690 3911 1 109.50000 418.400000
3600 12690 3912 1 109.50000 418.400000
3910 12690 3911 1 109.50000 418.400000
3910 12690 3912 1 109.50000 418.400000
3911 12690 3912 1 109.50000 418.400000
370 12691 3754 1 109.50000 418.400000
370 12691 3913 1 109.50000 418.400000
370 12691 3914 1 109.50000 418.400000
3754 12691 3913 1 109.50000 418.400000
3754 12691 3914 1 109.50000 418.400000
3913 12691 3914 1 109.50000 418.400000
3915 12692 3916 1 109.50000 418.400000
3915 12692 3917 1 109.50000 418.400000
3915 12692 3918 1 109.50000 418.400000
3916 12692 3917 1 109.50000 418.400000
3916 12692 3918 1 109.50000 418.400000
3917 12692 3918 1 109.50000 418.400000
3920 12693 3921 1 109.50000 418.400000
3920 12693 7085 1 109.50000 418.400000
3920 12693 8211 1 109.50000 418.400000
3921 12693 7085 1 109.50000 418.400000
3921 12693 8211 1 109.50000 418.400000
7085 12693 8211 1 109.50000 418.400000
537 12694 727 1 109.50000 418.400000
537 12694 2894 1 109.50000 418.400000
537 12694 3923 1 109.50000 418.400000
727 12694 2894 1 109.50000 418.400000
727 12694 3923 1 109.50000 418.400000
2894 12694 3923 1 109.50000 418.400000
3706 12695 3924 1 109.50000 418.400000
3706 12695 3925 1 109.50000 418.400000
3706 12695 3926 1 109.50000 418.400000
3924 12695 3925 1 109.50000 418.400000
3924 12695 3926 1 109.50000 418.400000
3925 12695 3926 1 109.50000 418.400000
563 12696 2993 1 109.50000 418.400000
563 12696 3927 1 109.50000 418.400000
563 12696 3928 1 109.50000 418.400000
2993 12696 3927 1 109.50000 418.400000
2993 12696 3928 1 109.50000 418.400000
3927 12696 3928 1 109.50000 418.400000
1929 12697 3929 1 109.50000 418.400000
1929 12697 3930 1 109.50000 418.400000
1929 12697 11181 1 109.50000 418.400000
3929 12697 3930 1 109.50000 418.400000
3929 12697 11181 1 109.50000 418.400000
3930 12697 11181 1 109.50000 418.400000
3931 12698 3932 1 109.50000 418.400000
3931 12698 3933 1 109.50000 418.400000
3931 12698 3934 1 109.50000 418.400000
3932 12698 3933 1 109.50000 418.400000
3932 12698 3934 1 109.50000 418.400000
3933 12698 3934 1 109.50000 418.400000
986 12699 3936 1 109.50000 418.400000
986 12699 11183 1 109.50000 418.400000
986 12699 11295 1 109.50000 418.400000
3936 12699 11183 1 109.50000 418.400000
3936 12699 11295 1 109.50000 418.400000
11183 12699 11295 1 109.50000 418.400000
1741 12700 3937 1 109.50000 418.400000
1741 12700 3938 1 109.50000 418.400000
1741 12700 6861 1 109.50000 418.400000
3937 12700 3938 1 109.50000 418.400000
3937 12700 6861 1 109.50000 418.400000
3938 12700 6861 1 109.50000 418.400000
3939 12701 3940 1 109.50000 418.400000
3939 12701 3941 1 109.50000 418.400000
3939 12701 3942 1 109.50000 418.400000
3940 12701 3941 1 109.50000 418.400000
3940 12701 3942 1 109.50000 418.400000
3941 12701 3942 1 109.50000 418.400000
3279 12702 3943 1 109.50000 418.400000
3279 12702 3944 1 109.50000 418.400000
3279 12702 3945 1 109.50000 418.400000
3943 12702 3944 1 109.50000 418.400000
3943 12702 3945 1 109.50000 418.400000
3944 12702 3945 1 109.50000 418.400000
1423 12703 1957 1 109.50000 418.400000
1423 12703 3249 1 109.50000 418.400000
1423 12703 3946 1 109.50000 418.400000
1957 12703 3249 1 109.50000 418.400000
1957 12703 3946 1 109.50000 418.400000
3249 12703 3946 1 109.50000 418.400000
103 12704 3947 1 109.50000 418.400000
103 12704 3948 1 109.50000 418.400000
103 12704 3949 1 109.50000 418.400000
3947 12704 3948 1 109.50000 418.400000
3947 12704 3949 1 109.50000 418.400000
3948 12704 3949 1 109.50000 418.400000
3950 12705 3951 1 109.50000 418.400000
3950 12705 3952 1 109.50000 418.400000
3950 12705 3953 1 109.50000 418.400000
3951 12705 3952 1 109.50000 418.400000
3951 12705 3953 1 109.50000 418.400000
3952 12705 3953 1 109.50000 418.400000
3954 12706 3955 1 109.50000 418.400000
3954 12706 3957 1 109.50000 418.400000
3954 12706 7409 1 109.50000 418.400000
3955 12706 3957 1 109.50000 418.400000
3955 12706 7409 1 109.50000 418.400000
3957 12706 7409 1 109.50000 418.400000
2526 12707 3670 1 109.50000 418.400000
2526 12707 3958 1 109.50000 418.400000
2526 12707 3959 1 109.50000 418.400000
3670 12707 3958 1 109.50000 418.400000
3670 12707 3959 1 109.50000 418.400000
3958 12707 3959 1 109.50000 418.400000
882 12708 1547 1 109.50000 418.400000
882 12708 3960 1 109.50000 418.400000
882 12708 3961 1 109.50000 418.400000
1547 12708 3960 1 109.50000 418.400000
1547 12708 3961 1 109.50000 418.400000
3960 12708 3961 1 109.50000 418.400000
3962 12709 3963 1 109.50000 418.400000
3962 12709 3964 1 109.50000 418.400000
3962 12709 3965 1 109.50000 418.400000
3963 12709 3964 1 109.50000 418.400000
3963 12709 3965 1 109.50000 418.400000
3964 12709 3965 1 109.50000 418.400000
3966 12710 3967 1 109.50000 418.400000
3966 12710 3968 1 109.50000 418.400000
3966 12710 3969 1 109.50000 418.400000
3967 12710 3968 1 109.50000 418.400000
3967 12710 3969 1 109.50000 418.400000
3968 12710 3969 1 109.50000 418.400000
1568 12711 1569 1 109.50000 418.400000
1568 12711 3970 1 109.50000 418.400000
1568 12711 3971 1 109.50000 418.400000
1569 12711 3970 1 109.50000 418.400000
1569 12711 3971 1 109.50000 418.400000
3970 12711 3971 1 109.50000 418.400000
3973 12712 3974 1 109.50000 418.400000
3973 12712 3975 1 109.50000 418.400000
3973 12712 3976 1 109.50000 418.400000
3974 12712 3975 1 109.50000 418.400000
3974 12712 3976 1 109.50000 418.400000
3975 12712 3976 1 109.50000 418.400000
634 12713 3977 1 109.50000 418.400000
634 12713 3978 1 109.50000 418.400000
634 12713 9486 1 109.50000 418.400000
3977 12713 3978 1 109.50000 418.400000
3977 12713 9486 1 109.50000 418.400000
3978 12713 9486 1 109.50000 418.400000
1345 12714 3979 1 109.50000 418.400000
1345 12714 3980 1 109.50000 418.400000
1345 12714 3981 1 109.50000 418.400000
3979 12714 3980 1 109.50000 418.400000
3979 12714 3981 1 109.50000 418.400000
3980 12714 3981 1 109.50000 418.400000
3905 12715 3982 1 109.50000 418.400000
3905 12715 3983 1 109.50000 418.400000
3905 12715 3984 1 109.50000 418.400000
3982 12715 3983 1 109.50000 418.400000
3982 12715 3984 1 109.50000 418.400000
3983 12715 3984 1 109.50000 418.400000
3985 12716 3986 1 109.50000 418.400000
3985 12716 3987 1 109.50000 418.400000
3985 12716 3988 1 109.50000 418.400000
3986 12716 3987 1 109.50000 418.400000
3986 12716 3988 1 109.50000 418.400000
3987 12716 3988 1 109.50000 418.400000
3989 12717 3990 1 109.50000 418.400000
3989 12717 3991 1 109.50000 418.400000
3989 12717 3992 1 109.50000 418.400000
3990 12717 3991 1 109.50000 418.400000
3990 12717 3992 1 109.50000 418.400000
3991 12717 3992 1 109.50000 418.400000
3993 12718 3994 1 109.50000 418.400000
3993 12718 3995 1 109.50000 418.400000
3993 12718 3996 1 109.50000 418.400000
3994 12718 3995 1 109.50000 418.400000
3994 12718 3996 1 109.50000 418.400000
3995 12718 3996 1 109.50000 418.400000
2075 12719 3997 1 109.50000 418.400000
2075 12719 3998 1 109.50000 418.400000
2075 12719 3999 1 109.50000 418.400000
3997 12719 3998 1 109.50000 418.400000
3997 12719 3999 1 109.50000 418.400000
3998 12719 3999 1 109.50000 418.400000
1019 12720 4000 1 109.50000 418.400000
1019 12720 4001 1 109.50000 418.400000
1019 12720 4002 1 109.50000 418.400000
4000 12720 4001 1 109.50000 418.400000
4000 12720 4002 1 109.50000 418.400000
4001 12720 4002 1 109.50000 418.400000
577 12721 1841 1 109.50000 418.400000
577 12721 4003 1 109.50000 418.400000
577 12721 4004 1 109.50000 418.400000
1841 12721 4003 1 109.50000 418.400000
1841 12721 4004 1 109.50000 418.400000
4003 12721 4004 1 109.50000 418.400000
4005 12722 4006 1 109.50000 418.400000
4005 12722 4007 1 109.50000 418.400000
4005 12722 4008 1 109.50000 418.400000
4006 12722 4007 1 109.50000 418.400000
4006 12722 4008 1 109.50000 418.400000
4007 12722 4008 1 109.50000 418.400000
1273 12723 4009 1 109.50000 418.400000
1273 12723 4010 1 109.50000 418.400000
1273 12723 4011 1 109.50000 418.400000
4009 12723 4010 1 109.50000 418.400000
4009 12723 4011 1 109.50000 418.400000
4010 12723 4011 1 109.50000 418.400000
1773 12724 3971 1 109.50000 418.400000
1773 12724 4012 1 109.50000 418.400000
1773 12724 4013 1 109.50000 418.400000
3971 12724 4012 1 109.50000 418.400000
3971 12724 4013 1 109.50000 418.400000
4012 12724 4013 1 109.50000 418.400000
4014 12725 4015 1 109.50000 418.400000
4014 12725 4016 1 109.50000 418.400000
4014 12725 11205 1 109.50000 418.400000
4015 12725 4016 1 109.50000 418.400000
4015 12725 11205 1 109.50000 418.400000
4016 12725 11205 1 109.50000 418.400000
1689 12726 4017 1 109.50000 418.400000
1689 12726 4018 1 109.50000 418.400000
1689 12726 11223 1 109.50000 418.400000
4017 12726 4018 1 109.50000 418.400000
4017 12726 11223 1 109.50000 418.400000
4018 12726 11223 1 109.50000 418.400000
2531 12727 4019 1 109.50000 418.400000
2531 12727 4020 1 109.50000 418.400000
2531 12727 4021 1 109.50000 418.400000
4019 12727 4020 1 109.50000 418.400000
4019 12727 4021 1 109.50000 418.400000
4020 12727 4021 1 109.50000 418.400000
4023 12728 4024 1 109.50000 418.400000
4023 12728 4025 1 109.50000 418.400000
4023 12728 10492 1 109.50000 418.400000
4024 12728 4025 1 109.50000 418.400000
4024 12728 10492 1 109.50000 418.400000
4025 12728 10492 1 109.50000 418.400000
3308 12729 4026 1 109.50000 418.400000
3308 12729 6468 1 109.50000 418.400000
3308 12729 6470 1 109.50000 418.400000
4026 12729 6468 1 109.50000 418.400000
4026 12729 6470 1 109.50000 418.400000
6468 12729 6470 1 109.50000 418.400000
718 12730 4028 1 109.50000 418.400000
718 12730 4029 1 109.50000 418.400000
718 12730 11565 1 109.50000 418.400000
4028 12730 4029 1 109.50000 418.400000
4028 12730 11565 1 109.50000 418.400000
4029 12730 11565 1 109.50000 418.400000
895 12731 897 1 109.50000 418.400000
895 12731 4031 1 109.50000 418.400000
895 12731 4032 1 109.50000 418.400000
897 12731 4031 1 109.50000 418.400000
897 12731 4032 1 109.50000 418.400000
4031 12731 4032 1 109.50000 418.400000
4035 12732 4037 1 109.50000 418.400000
4035 12732 4038 1 109.50000 418.400000
4035 12732 9062 1 109.50000 418.400000
4037 12732 4038 1 109.50000 418.400000
4037 12732 9062 1 109.50000 418.400000
4038 12732 9062 1 109.50000 418.400000
10 12733 507 1 109.50000 418.400000
10 12733 4039 1 109.50000 418.400000
10 12733 4040 1 109.50000 418.400000
507 12733 4039 1 109.50000 418.400000
507 12733 4040 1 109.50000 418.400000
4039 12733 4040 1 109.50000 418.400000
1170 12734 4041 1 109.50000 418.400000
1170 12734 4042 1 109.50000 418.400000
1170 12734 11586 1 109.50000 418.400000
4041 12734 4042 1 109.50000 418.400000
4041 12734 11586 1 109.50000 418.400000
4042 12734 11586 1 109.50000 418.400000
1708 12735 4043 1 109.50000 418.400000
1708 12735 4044 1 109.50000 418.400000
1708 12735 4045 1 109.50000 418.400000
4043 12735 4044 1 109.50000 418.400000
4043 12735 4045 1 109.50000 418.400000
4044 12735 4045 1 109.50000 418.400000
3026 12736 4046 1 109.50000 418.400000
3026 12736 4047 1 109.50000 418.400000
3026 12736 4048 1 109.50000 418.400000
4046 12736 4047 1 109.50000 418.400000
4046 12736 4048 1 109.50000 418.400000
4047 12736 4048 1 109.50000 418.400000
4049 12737 4050 1 109.50000 418.400000
4049 12737 4051 1 109.50000 418.400000
4049 12737 4052 1 109.50000 418.400000
4050 12737 4051 1 109.50000 418.400000
4050 12737 4052 1 109.50000 418.400000
4051 12737 4052 1 109.50000 418.400000
62 12738 4053 1 109.50000 418.400000
62 12738 4054 1 109.50000 418.400000
62 12738 4055 1 109.50000 418.400000
4053 12738 4054 1 109.50000 418.400000
4053 12738 4055 1 109.50000 418.400000
4054 12738 4055 1 109.50000 418.400000
2032 12739 4056 1 109.50000 418.400000
2032 12739 4057 1 109.50000 418.400000
2032 12739 4058 1 109.50000 418.400000
4056 12739 4057 1 109.50000 418.400000
4056 12739 4058 1 109.50000 418.400000
4057 12739 4058 1 109.50000 418.400000
78 12740 4059 1 109.50000 418.400000
78 12740 4060 1 109.50000 418.400000
78 12740 4061 1 109.50000 418.400000
4059 12740 4060 1 109.50000 418.400000
4059 12740 4061 1 109.50000 418.400000
4060 12740 4061 1 109.50000 418.400000
4062 12741 4063 1 109.50000 418.400000
4062 12741 4064 1 109.50000 418.400000
4062 12741 4065 1 109.50000 418.400000
4063 12741 4064 1 109.50000 418.400000
4063 12741 4065 1 109.50000 418.400000
4064 12741 4065 1 109.50000 418.400000
3193 12742 4066 1 109.50000 418.400000
3193 12742 4068 1 109.50000 418.400000
3193 12742 5893 1 109.50000 418.400000
4066 12742 4068 1 109.50000 418.400000
4066 12742 5893 1 109.50000 418.400000
4068 12742 5893 1 109.50000 418.400000
2941 12743 2943 1 109.50000 418.400000
2941 12743 3652 1 109.50000 418.400000
2941 12743 4069 1 109.50000 418.400000
2943 12743 3652 1 109.50000 418.400000
2943 12743 4069 1 109.50000 418.400000
3652 12743 4069 1 109.50000 418.400000
4070 12744 4071 1 109.50000 418.400000
4070 12744 4072 1 109.50000 418.400000
4070 12744 4073 1 109.50000 418.400000
4071 12744 4072 1 109.50000 418.400000
4071 12744 4073 1 109.50000 418.400000
4072 12744 4073 1 109.50000 418.400000
2715 12745 4074 1 109.50000 418.400000
2715 12745 4075 1 109.50000 418.400000
2715 12745 4076 1 109.50000 418.400000
4074 12745 4075 1 109.50000 418.400000
4074 12745 4076 1 109.50000 418.400000
4075 12745 4076 1 109.50000 418.400000
4077 12746 4078 1 109.50000 418.400000
4077 12746 4079 1 109.50000 418.400000
4077 12746 4080 1 109.50000 418.400000
4078 12746 4079 1 109.50000 418.400000
4078 12746 4080 1 109.50000 418.400000
4079 12746 4080 1 109.50000 418.400000
1696 12747 1697 1 109.50000 418.400000
1696 12747 4082 1 109.50000 418.400000
1696 12747 4083 1 109.50000 418.400000
1697 12747 4082 1 109.50000 418.400000
1697 12747 4083 1 109.50000 418.400000
4082 12747 4083 1 109.50000 418.400000
2233 12748 2342 1 109.50000 418.400000
2233 12748 4084 1 109.50000 418.400000
2233 12748 4085 1 109.50000 418.400000
2342 12748 4084 1 109.50000 418.400000
2342 12748 4085 1 109.50000 418.400000
4084 12748 4085 1 109.50000 418.400000
1331 12749 4086 1 109.50000 418.400000
1331 12749 4087 1 109.50000 418.400000
1331 12749 4088 1 109.50000 418.400000
4086 12749 4087 1 109.50000 418.400000
4086 12749 4088 1 109.50000 418.400000
4087 12749 4088 1 109.50000 418.400000
3360 12750 4089 1 109.50000 418.400000
3360 12750 4090 1 109.50000 418.400000
3360 12750 4091 1 109.50000 418.400000
4089 12750 4090 1 109.50000 418.400000
4089 12750 4091 1 109.50000 418.400000
4090 12750 4091 1 109.50000 418.400000
4092 12751 4093 1 109.50000 418.400000
4092 12751 4094 1 109.50000 418.400000
4092 12751 4095 1 109.50000 418.400000
4093 12751 4094 1 109.50000 418.400000
4093 12751 4095 1 109.50000 418.400000
4094 12751 4095 1 109.50000 418.400000
4096 12752 4097 1 109.50000 418.400000
4096 12752 4098 1 109.50000 418.400000
4096 12752 4099 1 109.50000 418.400000
4097 12752 4098 1 109.50000 418.400000
4097 12752 4099 1 109.50000 418.400000
4098 12752 4099 1 109.50000 418.400000
409 12753 1379 1 109.50000 418.400000
409 12753 4100 1 109.50000 418.400000
409 12753 6959 1 109.50000 418.400000
1379 12753 4100 1 109.50000 418.400000
1379 12753 6959 1 109.50000 418.400000
4100 12753 6959 1 109.50000 418.400000
168 12754 4102 1 109.50000 418.400000
168 12754 4103 1 109.50000 418.400000
168 12754 11507 1 109.50000 418.400000
4102 12754 4103 1 109.50000 418.400000
4102 12754 11507 1 109.50000 418.400000
4103 12754 11507 1 109.50000 418.400000
4044 12755 4104 1 109.50000 418.400000
4044 12755 4105 1 109.50000 418.400000
4044 12755 4106 1 109.50000 418.400000
4104 12755 4105 1 109.50000 418.400000
4104 12755 4106 1 109.50000 418.400000
4105 12755 4106 1 109.50000 418.400000
4108 12756 4109 1 109.50000 418.400000
4108 12756 4110 1 109.50000 418.400000
4108 12756 11209 1 109.50000 418.400000
4109 12756 4110 1 109.50000 418.400000
4109 12756 11209 1 109.50000 418.400000
4110 12756 11209 1 109.50000 418.400000
1252 12757 1278 1 109.50000 418.400000
1252 12757 4112 1 109.50000 418.400000
1252 12757 4113 1 109.50000 418.400000
1278 12757 4112 1 109.50000 418.400000
1278 12757 4113 1 109.50000 418.400000
4112 12757 4113 1 109.50000 418.400000
4114 12758 4115 1 109.50000 418.400000
4114 12758 4116 1 109.50000 418.400000
4114 12758 4117 1 109.50000 418.400000
4115 12758 4116 1 109.50000 418.400000
4115 12758 4117 1 109.50000 418.400000
4116 12758 4117 1 109.50000 418.400000
1469 12759 1471 1 109.50000 418.400000
1469 12759 4118 1 109.50000 418.400000
1469 12759 4119 1 109.50000 418.400000
1471 12759 4118 1 109.50000 418.400000
1471 12759 4119 1 109.50000 418.400000
4118 12759 4119 1 109.50000 418.400000
4120 12760 4121 1 109.50000 418.400000
4120 12760 4122 1 109.50000 418.400000
4120 12760 4123 1 109.50000 418.400000
4121 12760 4122 1 109.50000 418.400000
4121 12760 4123 1 109.50000 418.400000
4122 12760 4123 1 109.50000 418.400000
4124 12761 4125 1 109.50000 418.400000
4124 12761 4126 1 109.50000 418.400000
4124 12761 4127 1 109.50000 418.400000
4125 12761 4126 1 109.50000 418.400000
4125 12761 4127 1 109.50000 418.400000
4126 12761 4127 1 109.50000 418.400000
1086 12762 1586 1 109.50000 418.400000
1086 12762 4128 1 109.50000 418.400000
1086 12762 4129 1 109.50000 418.400000
1586 12762 4128 1 109.50000 418.400000
1586 12762 4129 1 109.50000 418.400000
4128 12762 4129 1 109.50000 418.400000
1214 12763 2757 1 109.50000 418.400000
1214 12763 4130 1 109.50000 418.400000
1214 12763 4131 1 109.50000 418.400000
2757 12763 4130 1 109.50000 418.400000
2757 12763 4131 1 109.50000 418.400000
4130 12763 4131 1 109.50000 418.400000
1809 12764 4132 1 109.50000 418.400000
1809 12764 4133 1 109.50000 418.400000
1809 12764 4134 1 109.50000 418.400000
4132 12764 4133 1 109.50000 418.400000
4132 12764 4134 1 109.50000 418.400000
4133 12764 4134 1 109.50000 418.400000
3168 12765 4135 1 109.50000 418.400000
3168 12765 4136 1 109.50000 418.400000
3168 12765 4137 1 109.50000 418.400000
4135 12765 4136 1 109.50000 418.400000
4135 12765 4137 1 109.50000 418.400000
4136 12765 4137 1 109.50000 418.400000
196 12766 4138 1 109.50000 418.400000
196 12766 4139 1 109.50000 418.400000
196 12766 4140 1 109.50000 418.400000
4138 12766 4139 1 109.50000 418.400000
4138 12766 4140 1 109.50000 418.400000
4139 12766 4140 1 109.50000 418.400000
4141 12767 4142 1 109.50000 418.400000
4141 12767 4143 1 109.50000 418.400000
4141 12767 4144 1 109.50000 418.400000
4142 12767 4143 1 109.50000 418.400000
4142 12767 4144 1 109.50000 418.400000
4143 12767 4144 1 109.50000 418.400000
4145 12768 4146 1 109.50000 418.400000
4145 12768 4147 1 109.50000 418.400000
4145 12768 4148 1 109.50000 418.400000
4146 12768 4147 1 109.50000 418.400000
4146 12768 4148 1 109.50000 418.400000
4147 12768 4148 1 109.50000 418.400000
2453 12769 3542 1 109.50000 418.400000
2453 12769 4149 1 109.50000 418.400000
2453 12769 4150 1 109.50000 418.400000
3542 12769 4149 1 109.50000 418.400000
3542 12769 4150 1 109.50000 418.400000
4149 12769 4150 1 109.50000 418.400000
781 12770 4151 1 109.50000 418.400000
781 12770 4152 1 109.50000 418.400000
781 12770 4153 1 109.50000 418.400000
4151 12770 4152 1 109.50000 418.400000
4151 12770 4153 1 109.50000 418.400000
4152 12770 4153 1 109.50000 418.400000
4154 12771 4155 1 109.50000 418.400000
4154 12771 4156 1 109.50000 418.400000
4154 12771 4157 1 109.50000 418.400000
4155 12771 4156 1 109.50000 418.400000
4155 12771 4157 1 109.50000 418.400000
4156 12771 4157 1 109.50000 418.400000
1882 12772 3232 1 109.50000 418.400000
1882 12772 4158 1 109.50000 418.400000
1882 12772 4159 1 109.50000 418.400000
3232 12772 4158 1 109.50000 418.400000
3232 12772 4159 1 109.50000 418.400000
4158 12772 4159 1 109.50000 418.400000
2309 12773 4160 1 109.50000 418.400000
2309 12773 4161 1 109.50000 418.400000
2309 12773 4162 1 109.50000 418.400000
4160 12773 4161 1 109.50000 418.400000
4160 12773 4162 1 109.50000 418.400000
4161 12773 4162 1 109.50000 418.400000
4163 12774 4164 1 109.50000 418.400000
4163 12774 4165 1 109.50000 418.400000
4163 12774 4166 1 109.50000 418.400000
4164 12774 4165 1 109.50000 418.400000
4164 12774 4166 1 109.50000 418.400000
4165 12774 4166 1 109.50000 418.400000
480 12775 3500 1 109.50000 418.400000
480 12775 4167 1 109.50000 418.400000
480 12775 11160 1 109.50000 418.400000
3500 12775 4167 1 109.50000 418.400000
3500 12775 11160 1 109.50000 418.400000
4167 12775 11160 1 109.50000 418.400000
547 12776 4169 1 109.50000 418.400000
547 12776 4170 1 109.50000 418.400000
547 12776 4171 1 109.50000 418.400000
4169 12776 4170 1 109.50000 418.400000
4169 12776 4171 1 109.50000 418.400000
4170 12776 4171 1 109.50000 418.400000
2684 12777 4172 1 109.50000 418.400000
2684 12777 11330 1 109.50000 418.400000
2684 12777 11605 1 109.50000 418.400000
4172 12777 11330 1 109.50000 418.400000
4172 12777 11605 1 109.50000 418.400000
11330 12777 11605 1 109.50000 418.400000
4173 12778 4174 1 109.50000 418.400000
4173 12778 4175 1 109.50000 418.400000
4173 12778 9352 1 109.50000 418.400000
4174 12778 4175 1 109.50000 418.400000
4174 12778 9352 1 109.50000 418.400000
4175 12778 9352 1 109.50000 418.400000
2241 12779 4176 1 109.50000 418.400000
2241 12779 4177 1 109.50000 418.400000
2241 12779 4178 1 109.50000 418.400000
4176 12779 4177 1 109.50000 418.400000
4176 12779 4178 1 109.50000 418.400000
4177 12779 4178 1 109.50000 418.400000
4179 12780 4180 1 109.50000 418.400000
4179 12780 4181 1 109.50000 418.400000
4179 12780 4625 1 109.50000 418.400000
4180 12780 4181 1 109.50000 418.400000
4180 12780 4625 1 109.50000 418.400000
4181 12780 4625 1 109.50000 418.400000
2590 12781 3284 1 109.50000 418.400000
2590 12781 4182 1 109.50000 418.400000
2590 12781 4183 1 109.50000 418.400000
3284 12781 4182 1 109.50000 418.400000
3284 12781 4183 1 109.50000 418.400000
4182 12781 4183 1 109.50000 418.400000
204 12782 2463 1 109.50000 418.400000
204 12782 4184 1 109.50000 418.400000
204 12782 4185 1 109.50000 418.400000
2463 12782 4184 1 109.50000 418.400000
2463 12782 4185 1 109.50000 418.400000
4184 12782 4185 1 109.50000 418.400000
4175 12783 4186 1 109.50000 418.400000
4175 12783 4187 1 109.50000 418.400000
4175 12783 4188 1 109.50000 418.400000
4186 12783 4187 1 109.50000 418.400000
4186 12783 4188 1 109.50000 418.400000
4187 12783 4188 1 109.50000 418.400000
3234 12784 3364 1 109.50000 418.400000
3234 12784 4189 1 109.50000 418.400000
3234 12784 4190 1 109.50000 418.400000
3364 12784 4189 1 109.50000 418.400000
3364 12784 4190 1 109.50000 418.400000
4189 12784 4190 1 109.50000 418.400000
3599 12785 4191 1 109.50000 418.400000
3599 12785 4192 1 109.50000 418.400000
3599 12785 4193 1 109.50000 418.400000
4191 12785 4192 1 109.50000 418.400000
4191 12785 4193 1 109.50000 418.400000
4192 12785 4193 1 109.50000 418.400000
4065 12786 4194 1 109.50000 418.400000
4065 12786 4195 1 109.50000 418.400000
4065 12786 4196 1 109.50000 418.400000
4194 12786 4195 1 109.50000 418.400000
4194 12786 4196 1 109.50000 418.400000
4195 12786 4196 1 109.50000 418.400000
4197 12787 4198 1 109.50000 418.400000
4197 12787 4199 1 109.50000 418.400000
4197 12787 4200 1 109.50000 418.400000
4198 12787 4199 1 109.50000 418.400000
4198 12787 4200 1 109.50000 418.400000
4199 12787 4200 1 109.50000 418.400000
4201 12788 4202 1 109.50000 418.400000
4201 12788 4203 1 109.50000 418.400000
4201 12788 4204 1 109.50000 418.400000
4202 12788 4203 1 109.50000 418.400000
4202 12788 4204 1 109.50000 418.400000
4203 12788 4204 1 109.50000 418.400000
1223 12789 4205 1 109.50000 418.400000
1223 12789 4206 1 109.50000 418.400000
1223 12789 4207 1 109.50000 418.400000
4205 12789 4206 1 109.50000 418.400000
4205 12789 4207 1 109.50000 418.400000
4206 12789 4207 1 109.50000 418.400000
4208 12790 4209 1 109.50000 418.400000
4208 12790 11178 1 109.50000 418.400000
4208 12790 11599 1 109.50000 418.400000
4209 12790 11178 1 109.50000 418.400000
4209 12790 11599 1 109.50000 418.400000
11178 12790 11599 1 109.50000 418.400000
4210 12791 4211 1 109.50000 418.400000
4210 12791 4212 1 109.50000 418.400000
4210 12791 6234 1 109.50000 418.400000
4211 12791 4212 1 109.50000 418.400000
4211 12791 6234 1 109.50000 418.400000
4212 12791 6234 1 109.50000 418.400000
4213 12792 4214 1 109.50000 418.400000
4213 12792 4215 1 109.50000 418.400000
4213 12792 4216 1 109.50000 418.400000
4214 12792 4215 1 109.50000 418.400000
4214 12792 4216 1 109.50000 418.400000
4215 12792 4216 1 109.50000 418.400000
4217 12793 4218 1 109.50000 418.400000
4217 12793 4219 1 109.50000 418.400000
4217 12793 4220 1 109.50000 418.400000
4218 12793 4219 1 109.50000 418.400000
4218 12793 4220 1 109.50000 418.400000
4219 12793 4220 1 109.50000 418.400000
4221 12794 4222 1 109.50000 418.400000
4221 12794 4223 1 109.50000 418.400000
4221 12794 4224 1 109.50000 418.400000
4222 12794 4223 1 109.50000 418.400000
4222 12794 4224 1 109.50000 418.400000
4223 12794 4224 1 109.50000 418.400000
4225 12795 4226 1 109.50000 418.400000
4225 12795 4227 1 109.50000 418.400000
4225 12795 4228 1 109.50000 418.400000
4226 12795 4227 1 109.50000 418.400000
4226 12795 4228 1 109.50000 418.400000
4227 12795 4228 1 109.50000 418.400000
4229 12796 4230 1 109.50000 418.400000
4229 12796 4231 1 109.50000 418.400000
4229 12796 7658 1 109.50000 418.400000
4230 12796 4231 1 109.50000 418.400000
4230 12796 7658 1 109.50000 418.400000
4231 12796 7658 1 109.50000 418.400000
4232 12797 4233 1 109.50000 418.400000
4232 12797 4234 1 109.50000 418.400000
4232 12797 4235 1 109.50000 418.400000
4233 12797 4234 1 109.50000 418.400000
4233 12797 4235 1 109.50000 418.400000
4234 12797 4235 1 109.50000 418.400000
4237 12798 4238 1 109.50000 418.400000
4237 12798 4239 1 109.50000 418.400000
4237 12798 4240 1 109.50000 418.400000
4238 12798 4239 1 109.50000 418.400000
4238 12798 4240 1 109.50000 418.400000
4239 12798 4240 1 109.50000 418.400000
4241 12799 4242 1 109.50000 418.400000
4241 12799 4243 1 109.50000 418.400000
4241 12799 11282 1 109.50000 418.400000
4242 12799 4243 1 109.50000 418.400000
4242 12799 11282 1 109.50000 418.400000
4243 12799 11282 1 109.50000 418.400000
4244 12800 4245 1 109.50000 418.400000
4244 12800 4246 1 109.50000 418.400000
4244 12800 4247 1 109.50000 418.400000
4245 12800 4246 1 109.50000 418.400000
4245 12800 4247 1 109.50000 418.400000
4246 12800 4247 1 109.50000 418.400000
4248 12801 4249 1 109.50000 418.400000
4248 12801 4250 1 109.50000 418.400000
4248 12801 4251 1 109.50000 418.400000
4249 12801 4250 1 109.50000 418.400000
4249 12801 4251 1 109.50000 418.400000
4250 12801 4251 1 109.50000 418.400000
704 12802 4252 1 109.50000 418.400000
704 12802 4253 1 109.50000 418.400000
704 12802 4254 1 109.50000 418.400000
4252 12802 4253 1 109.50000 418.400000
4252 12802 4254 1 109.50000 418.400000
4253 12802 4254 1 109.50000 418.400000
4255 12803 4256 1 109.50000 418.400000
4255 12803 4257 1 109.50000 418.400000
4255 12803 4258 1 109.50000 418.400000
4256 12803 4257 1 109.50000 418.400000
4256 12803 4258 1 109.50000 418.400000
4257 12803 4258 1 109.50000 418.400000
1848 12804 4259 1 109.50000 418.400000
1848 12804 4260 1 109.50000 418.400000
1848 12804 4261 1 109.50000 418.400000
4259 12804 4260 1 109.50000 418.400000
4259 12804 4261 1 109.50000 418.400000
4260 12804 4261 1 109.50000 418.400000
4262 12805 4263 1 109.50000 418.400000
4262 12805 4264 1 109.50000 418.400000
4262 12805 4265 1 109.50000 418.400000
4263 12805 4264 1 109.50000 418.400000
4263 12805 4265 1 109.50000 418.400000
4264 12805 4265 1 109.50000 418.400000
4266 12806 4267 1 109.50000 418.400000
4266 12806 4268 1 109.50000 418.400000
4266 12806 4269 1 109.50000 418.400000
4267 12806 4268 1 109.50000 418.400000
4267 12806 4269 1 109.50000 418.400000
4268 12806 4269 1 109.50000 418.400000
3108 12807 3893 1 109.50000 418.400000
3108 12807 4270 1 109.50000 418.400000
3108 12807 4271 1 109.50000 418.400000
3893 12807 4270 1 109.50000 418.400000
3893 12807 4271 1 109.50000 418.400000
4270 12807 4271 1 109.50000 418.400000
4272 12808 4273 1 109.50000 418.400000
4272 12808 4274 1 109.50000 418.400000
4272 12808 4275 1 109.50000 418.400000
4273 12808 4274 1 109.50000 418.400000
4273 12808 4275 1 109.50000 418.400000
4274 12808 4275 1 109.50000 418.400000
1460 12809 3687 1 109.50000 418.400000
1460 12809 4276 1 109.50000 418.400000
1460 12809 4277 1 109.50000 418.400000
3687 12809 4276 1 109.50000 418.400000
3687 12809 4277 1 109.50000 418.400000
4276 12809 4277 1 109.50000 418.400000
4278 12810 4279 1 109.50000 418.400000
4278 12810 4280 1 109.50000 418.400000
4278 12810 4281 1 109.50000 418.400000
4279 12810 4280 1 109.50000 418.400000
4279 12810 4281 1 109.50000 418.400000
4280 12810 4281 1 109.50000 418.400000
363 12811 1544 1 109.50000 418.400000
363 12811 4282 1 109.50000 418.400000
363 12811 4283 1 109.50000 418.400000
1544 12811 4282 1 109.50000 418.400000
1544 12811 4283 1 109.50000 418.400000
4282 12811 4283 1 109.50000 418.400000
3396 12812 4284 1 109.50000 418.400000
3396 12812 4286 1 109.50000 418.400000
3396 12812 10038 1 109.50000 418.400000
4284 12812 4286 1 109.50000 418.400000
4284 12812 10038 1 109.50000 418.400000
4286 12812 10038 1 109.50000 418.400000
4272 12813 4287 1 109.50000 418.400000
4272 12813 4288 1 109.50000 418.400000
4272 12813 4289 1 109.50000 418.400000
4287 12813 4288 1 109.50000 418.400000
4287 12813 4289 1 109.50000 418.400000
4288 12813 4289 1 109.50000 418.400000
4290 12814 4291 1 109.50000 418.400000
4290 12814 4292 1 109.50000 418.400000
4290 12814 4293 1 109.50000 418.400000
4291 12814 4292 1 109.50000 418.400000
4291 12814 4293 1 109.50000 418.400000
4292 12814 4293 1 109.50000 418.400000
658 12815 660 1 109.50000 418.400000
658 12815 4294 1 109.50000 418.400000
658 12815 4296 1 109.50000 418.400000
660 12815 4294 1 109.50000 418.400000
660 12815 4296 1 109.50000 418.400000
4294 12815 4296 1 109.50000 418.400000
4075 12816 4297 1 109.50000 418.400000
4075 12816 4298 1 109.50000 418.400000
4075 12816 11598 1 109.50000 418.400000
4297 12816 4298 1 109.50000 418.400000
4297 12816 11598 1 109.50000 418.400000
4298 12816 11598 1 109.50000 418.400000
3164 12817 4299 1 109.50000 418.400000
3164 12817 4300 1 109.50000 418.400000
3164 12817 4301 1 109.50000 418.400000
4299 12817 4300 1 109.50000 418.400000
4299 12817 4301 1 109.50000 418.400000
4300 12817 4301 1 109.50000 418.400000
559 12818 4302 1 109.50000 418.400000
559 12818 4304 1 109.50000 418.400000
559 12818 4560 1 109.50000 418.400000
4302 12818 4304 1 109.50000 418.400000
4302 12818 4560 1 109.50000 418.400000
4304 12818 4560 1 109.50000 418.400000
4305 12819 4306 1 109.50000 418.400000
4305 12819 4307 1 109.50000 418.400000
4305 12819 4308 1 109.50000 418.400000
4306 12819 4307 1 109.50000 418.400000
4306 12819 4308 1 109.50000 418.400000
4307 12819 4308 1 109.50000 418.400000
2836 12820 4309 1 109.50000 418.400000
2836 12820 4310 1 109.50000 418.400000
2836 12820 4311 1 109.50000 418.400000
4309 12820 4310 1 109.50000 418.400000
4309 12820 4311 1 109.50000 418.400000
4310 12820 4311 1 109.50000 418.400000
17 12821 4137 1 109.50000 418.400000
17 12821 4312 1 109.50000 418.400000
17 12821 4313 1 109.50000 418.400000
4137 12821 4312 1 109.50000 418.400000
4137 12821 4313 1 109.50000 418.400000
4312 12821 4313 1 109.50000 418.400000
740 12822 4314 1 109.50000 418.400000
740 12822 4315 1 109.50000 418.400000
740 12822 4316 1 109.50000 418.400000
4314 12822 4315 1 109.50000 418.400000
4314 12822 4316 1 109.50000 418.400000
4315 12822 4316 1 109.50000 418.400000
4317 12823 4318 1 109.50000 418.400000
4317 12823 4319 1 109.50000 418.400000
4317 12823 7759 1 109.50000 418.400000
4318 12823 4319 1 109.50000 418.400000
4318 12823 7759 1 109.50000 418.400000
4319 12823 7759 1 109.50000 418.400000
4321 12824 4322 1 109.50000 418.400000
4321 12824 4323 1 109.50000 418.400000
4321 12824 4324 1 109.50000 418.400000
4322 12824 4323 1 109.50000 418.400000
4322 12824 4324 1 109.50000 418.400000
4323 12824 4324 1 109.50000 418.400000
4325 12825 4326 1 109.50000 418.400000
4325 12825 11149 1 109.50000 418.400000
4325 12825 11587 1 109.50000 418.400000
4326 12825 11149 1 109.50000 418.400000
4326 12825 11587 1 109.50000 418.400000
11149 12825 11587 1 109.50000 418.400000
4327 12826 4328 1 109.50000 418.400000
4327 12826 4329 1 109.50000 418.400000
4327 12826 4330 1 109.50000 418.400000
4328 12826 4329 1 109.50000 418.400000
4328 12826 4330 1 109.50000 418.400000
4329 12826 4330 1 109.50000 418.400000
4331 12827 4332 1 109.50000 418.400000
4331 12827 4333 1 109.50000 418.400000
4331 12827 4334 1 109.50000 418.400000
4332 12827 4333 1 109.50000 418.400000
4332 12827 4334 1 109.50000 418.400000
4333 12827 4334 1 109.50000 418.400000
3556 12828 4335 1 109.50000 418.400000
3556 12828 4336 1 109.50000 418.400000
3556 12828 4337 1 109.50000 418.400000
4335 12828 4336 1 109.50000 418.400000
4335 12828 4337 1 109.50000 418.400000
4336 12828 4337 1 109.50000 418.400000
4338 12829 4339 1 109.50000 418.400000
4338 12829 4340 1 109.50000 418.400000
4338 12829 11502 1 109.50000 418.400000
4339 12829 4340 1 109.50000 418.400000
4339 12829 11502 1 109.50000 418.400000
4340 12829 11502 1 109.50000 418.400000
4341 12830 4342 1 109.50000 418.400000
4341 12830 4343 1 109.50000 418.400000
4341 12830 4344 1 109.50000 418.400000
4342 12830 4343 1 109.50000 418.400000
4342 12830 4344 1 109.50000 418.400000
4343 12830 4344 1 109.50000 418.400000
4345 12831 4346 1 109.50000 418.400000
4345 12831 4347 1 109.50000 418.400000
4345 12831 4348 1 109.50000 418.400000
4346 12831 4347 1 109.50000 418.400000
4346 12831 4348 1 109.50000 418.400000
4347 12831 4348 1 109.50000 418.400000
4349 12832 4350 1 109.50000 418.400000
4349 12832 4351 1 109.50000 418.400000
4349 12832 4352 1 109.50000 418.400000
4350 12832 4351 1 109.50000 418.400000
4350 12832 4352 1 109.50000 418.400000
4351 12832 4352 1 109.50000 418.400000
4353 12833 4354 1 109.50000 418.400000
4353 12833 4355 1 109.50000 418.400000
4353 12833 4356 1 109.50000 418.400000
4354 12833 4355 1 109.50000 418.400000
4354 12833 4356 1 109.50000 418.400000
4355 12833 4356 1 109.50000 418.400000
4357 12834 4358 1 109.50000 418.400000
4357 12834 4359 1 109.50000 418.400000
4357 12834 4360 1 109.50000 418.400000
4358 12834 4359 1 109.50000 418.400000
4358 12834 4360 1 109.50000 418.400000
4359 12834 4360 1 109.50000 418.400000
4361 12835 4362 1 109.50000 418.400000
4361 12835 4363 1 109.50000 418.400000
4361 12835 4364 1 109.50000 418.400000
4362 12835 4363 1 109.50000 418.400000
4362 12835 4364 1 109.50000 418.400000
4363 12835 4364 1 109.50000 418.400000
4365 12836 4366 1 109.50000 418.400000
4365 12836 4367 1 109.50000 418.400000
4365 12836 4368 1 109.50000 418.400000
4366 12836 4367 1 109.50000 418.400000
4366 12836 4368 1 109.50000 418.400000
4367 12836 4368 1 109.50000 418.400000
757 12837 4369 1 109.50000 418.400000
757 12837 4370 1 109.50000 418.400000
757 12837 4371 1 109.50000 418.400000
4369 12837 4370 1 109.50000 418.400000
4369 12837 4371 1 109.50000 418.400000
4370 12837 4371 1 109.50000 418.400000
114 12838 4143 1 109.50000 418.400000
114 12838 4372 1 109.50000 418.400000
114 12838 4373 1 109.50000 418.400000
4143 12838 4372 1 109.50000 418.400000
4143 12838 4373 1 109.50000 418.400000
4372 12838 4373 1 109.50000 418.400000
2490 12839 2492 1 109.50000 418.400000
2490 12839 4374 1 109.50000 418.400000
2490 12839 11443 1 109.50000 418.400000
2492 12839 4374 1 109.50000 418.400000
2492 12839 11443 1 109.50000 418.400000
4374 12839 11443 1 109.50000 418.400000
3088 12840 3574 1 109.50000 418.400000
3088 12840 4375 1 109.50000 418.400000
3088 12840 4376 1 109.50000 418.400000
3574 12840 4375 1 109.50000 418.400000
3574 12840 4376 1 109.50000 418.400000
4375 12840 4376 1 109.50000 418.400000
675 12841 4377 1 109.50000 418.400000
675 12841 4378 1 109.50000 418.400000
675 12841 4379 1 109.50000 418.400000
4377 12841 4378 1 109.50000 418.400000
4377 12841 4379 1 109.50000 418.400000
4378 12841 4379 1 109.50000 418.400000
999 12842 3664 1 109.50000 418.400000
999 12842 4380 1 109.50000 418.400000
999 12842 4381 1 109.50000 418.400000
3664 12842 4380 1 109.50000 418.400000
3664 12842 4381 1 109.50000 418.400000
4380 12842 4381 1 109.50000 418.400000
4089 12843 4382 1 109.50000 418.400000
4089 12843 4383 1 109.50000 418.400000
4089 12843 4384 1 109.50000 418.400000
4382 12843 4383 1 109.50000 418.400000
4382 12843 4384 1 109.50000 418.400000
4383 12843 4384 1 109.50000 418.400000
4385 12844 4386 1 109.50000 418.400000
4385 12844 4387 1 109.50000 418.400000
4385 12844 4388 1 109.50000 418.400000
4386 12844 4387 1 109.50000 418.400000
4386 12844 4388 1 109.50000 418.400000
4387 12844 4388 1 109.50000 418.400000
664 12845 2529 1 109.50000 418.400000
664 12845 4389 1 109.50000 418.400000
664 12845 4390 1 109.50000 418.400000
2529 12845 4389 1 109.50000 418.400000
2529 12845 4390 1 109.50000 418.400000
4389 12845 4390 1 109.50000 418.400000
1338 12846 4391 1 109.50000 418.400000
1338 12846 4393 1 109.50000 418.400000
1338 12846 9172 1 109.50000 418.400000
4391 12846 4393 1 109.50000 418.400000
4391 12846 9172 1 109.50000 418.400000
4393 12846 9172 1 109.50000 418.400000
4394 12847 4395 1 109.50000 418.400000
4394 12847 4396 1 109.50000 418.400000
4394 12847 4397 1 109.50000 418.400000
4395 12847 4396 1 109.50000 418.400000
4395 12847 4397 1 109.50000 418.400000
4396 12847 4397 1 109.50000 418.400000
4398 12848 4399 1 109.50000 418.400000
4398 12848 4400 1 109.50000 418.400000
4398 12848 11541 1 109.50000 418.400000
4399 12848 4400 1 109.50000 418.400000
4399 12848 11541 1 109.50000 418.400000
4400 12848 11541 1 109.50000 418.400000
2778 12849 4401 1 109.50000 418.400000
2778 12849 4402 1 109.50000 418.400000
2778 12849 4403 1 109.50000 418.400000
4401 12849 4402 1 109.50000 418.400000
4401 12849 4403 1 109.50000 418.400000
4402 12849 4403 1 109.50000 418.400000
4245 12850 4404 1 109.50000 418.400000
4245 12850 4405 1 109.50000 418.400000
4245 12850 4406 1 109.50000 418.400000
4404 12850 4405 1 109.50000 418.400000
4404 12850 4406 1 109.50000 418.400000
4405 12850 4406 1 109.50000 418.400000
571 12851 4407 1 109.50000 418.400000
571 12851 4408 1 109.50000 418.400000
571 12851 4409 1 109.50000 418.400000
4407 12851 4408 1 109.50000 418.400000
4407 12851 4409 1 109.50000 418.400000
4408 12851 4409 1 109.50000 418.400000
1203 12852 4410 1 109.50000 418.400000
1203 12852 4411 1 109.50000 418.400000
1203 12852 4412 1 109.50000 418.400000
4410 12852 4411 1 109.50000 418.400000
4410 12852 4412 1 109.50000 418.400000
4411 12852 4412 1 109.50000 418.400000
4413 12853 4414 1 109.50000 418.400000
4413 12853 4415 1 109.50000 418.400000
4413 12853 4416 1 109.50000 418.400000
4414 12853 4415 1 109.50000 418.400000
4414 12853 4416 1 109.50000 418.400000
4415 12853 4416 1 109.50000 418.400000
3407 12854 3408 1 109.50000 418.400000
3407 12854 4417 1 109.50000 418.400000
3407 12854 4418 1 109.50000 418.400000
3408 12854 4417 1 109.50000 418.400000
3408 12854 4418 1 109.50000 418.400000
4417 12854 4418 1 109.50000 418.400000
3798 12855 4420 1 109.50000 418.400000
3798 12855 4421 1 109.50000 418.400000
3798 12855 4422 1 109.50000 418.400000
4420 12855 4421 1 109.50000 418.400000
4420 12855 4422 1 109.50000 418.400000
4421 12855 4422 1 109.50000 418.400000
2375 12856 4309 1 109.50000 418.400000
2375 12856 4423 1 109.50000 418.400000
2375 12856 4424 1 109.50000 418.400000
4309 12856 4423 1 109.50000 418.400000
4309 12856 4424 1 109.50000 418.400000
4423 12856 4424 1 109.50000 418.400000
1861 12857 4425 1 109.50000 418.400000
1861 12857 4426 1 109.50000 418.400000
1861 12857 4427 1 109.50000 418.400000
4425 12857 4426 1 109.50000 418.400000
4425 12857 4427 1 109.50000 418.400000
4426 12857 4427 1 109.50000 418.400000
4428 12858 4429 1 109.50000 418.400000
4428 12858 4430 1 109.50000 418.400000
4428 12858 4431 1 109.50000 418.400000
4429 12858 4430 1 109.50000 418.400000
4429 12858 4431 1 109.50000 418.400000
4430 12858 4431 1 109.50000 418.400000
4432 12859 4433 1 109.50000 418.400000
4432 12859 4434 1 109.50000 418.400000
4432 12859 11307 1 109.50000 418.400000
4433 12859 4434 1 109.50000 418.400000
4433 12859 11307 1 109.50000 418.400000
4434 12859 11307 1 109.50000 418.400000
4436 12860 4437 1 109.50000 418.400000
4436 12860 4438 1 109.50000 418.400000
4436 12860 4439 1 109.50000 418.400000
4437 12860 4438 1 109.50000 418.400000
4437 12860 4439 1 109.50000 418.400000
4438 12860 4439 1 109.50000 418.400000
1833 12861 3721 1 109.50000 418.400000
1833 12861 4440 1 109.50000 418.400000
1833 12861 4441 1 109.50000 418.400000
3721 12861 4440 1 109.50000 418.400000
3721 12861 4441 1 109.50000 418.400000
4440 12861 4441 1 109.50000 418.400000
4442 12862 4443 1 109.50000 418.400000
4442 12862 4444 1 109.50000 418.400000
4442 12862 4445 1 109.50000 418.400000
4443 12862 4444 1 109.50000 418.400000
4443 12862 4445 1 109.50000 418.400000
4444 12862 4445 1 109.50000 418.400000
4446 12863 4447 1 109.50000 418.400000
4446 12863 4448 1 109.50000 418.400000
4446 12863 4449 1 109.50000 418.400000
4447 12863 4448 1 109.50000 418.400000
4447 12863 4449 1 109.50000 418.400000
4448 12863 4449 1 109.50000 418.400000
2184 12864 4450 1 109.50000 418.400000
2184 12864 4451 1 109.50000 418.400000
2184 12864 4452 1 109.50000 418.400000
4450 12864 4451 1 109.50000 418.400000
4450 12864 4452 1 109.50000 418.400000
4451 12864 4452 1 109.50000 418.400000
2483 12865 4453 1 109.50000 418.400000
2483 12865 4454 1 109.50000 418.400000
2483 12865 4455 1 109.50000 418.400000
4453 12865 4454 1 109.50000 418.400000
4453 12865 4455 1 109.50000 418.400000
4454 12865 4455 1 109.50000 418.400000
1015 12866 4456 1 109.50000 418.400000
1015 12866 4457 1 109.50000 418.400000
1015 12866 4458 1 109.50000 418.400000
4456 12866 4457 1 109.50000 418.400000
4456 12866 4458 1 109.50000 418.400000
4457 12866 4458 1 109.50000 418.400000
1055 12867 4285 1 109.50000 418.400000
1055 12867 4459 1 109.50000 418.400000
1055 12867 4460 1 109.50000 418.400000
4285 12867 4459 1 109.50000 418.400000
4285 12867 4460 1 109.50000 418.400000
4459 12867 4460 1 109.50000 418.400000
2487 12868 4461 1 109.50000 418.400000
2487 12868 4462 1 109.50000 418.400000
2487 12868 4463 1 109.50000 418.400000
4461 12868 4462 1 109.50000 418.400000
4461 12868 4463 1 109.50000 418.400000
4462 12868 4463 1 109.50000 418.400000
3350 12869 4464 1 109.50000 418.400000
3350 12869 4465 1 109.50000 418.400000
3350 12869 10518 1 109.50000 418.400000
4464 12869 4465 1 109.50000 418.400000
4464 12869 10518 1 109.50000 418.400000
4465 12869 10518 1 109.50000 418.400000
3271 12870 4466 1 109.50000 418.400000
3271 12870 4467 1 109.50000 418.400000
3271 12870 4468 1 109.50000 418.400000
4466 12870 4467 1 109.50000 418.400000
4466 12870 4468 1 109.50000 418.400000
4467 12870 4468 1 109.50000 418.400000
4469 12871 4470 1 109.50000 418.400000
4469 12871 4471 1 109.50000 418.400000
4469 12871 4472 1 109.50000 418.400000
4470 12871 4471 1 109.50000 418.400000
4470 12871 4472 1 109.50000 418.400000
4471 12871 4472 1 109.50000 418.400000
310 12872 4473 1 109.50000 418.400000
310 12872 4474 1 109.50000 418.400000
310 12872 4475 1 109.50000 418.400000
4473 12872 4474 1 109.50000 418.400000
4473 12872 4475 1 109.50000 418.400000
4474 12872 4475 1 109.50000 418.400000
4476 12873 4477 1 109.50000 418.400000
4476 12873 4478 1 109.50000 418.400000
4476 12873 11572 1 109.50000 418.400000
4477 12873 4478 1 109.50000 418.400000
4477 12873 11572 1 109.50000 418.400000
4478 12873 11572 1 109.50000 418.400000
4479 12874 4481 1 109.50000 418.400000
4479 12874 11228 1 109.50000 418.400000
4479 12874 11476 1 109.50000 418.400000
4481 12874 11228 1 109.50000 418.400000
4481 12874 11476 1 109.50000 418.400000
11228 12874 11476 1 109.50000 418.400000
4482 12875 4483 1 109.50000 418.400000
4482 12875 4484 1 109.50000 418.400000
4482 12875 4485 1 109.50000 418.400000
4483 12875 4484 1 109.50000 418.400000
4483 12875 4485 1 109.50000 418.400000
4484 12875 4485 1 109.50000 418.400000
4486 12876 4487 1 109.50000 418.400000
4486 12876 4488 1 109.50000 418.400000
4486 12876 4489 1 109.50000 418.400000
4487 12876 4488 1 109.50000 418.400000
4487 12876 4489 1 109.50000 418.400000
4488 12876 4489 1 109.50000 418.400000
4490 12877 4491 1 109.50000 418.400000
4490 12877 4492 1 109.50000 418.400000
4490 12877 4493 1 109.50000 418.400000
4491 12877 4492 1 109.50000 418.400000
4491 12877 4493 1 109.50000 418.400000
4492 12877 4493 1 109.50000 418.400000
4494 12878 4496 1 109.50000 418.400000
4494 12878 4497 1 109.50000 418.400000
4494 12878 9510 1 109.50000 418.400000
4496 12878 4497 1 109.50000 418.400000
4496 12878 9510 1 109.50000 418.400000
4497 12878 9510 1 109.50000 418.400000
893 12879 4498 1 109.50000 418.400000
893 12879 4499 1 109.50000 418.400000
893 12879 4500 1 109.50000 418.400000
4498 12879 4499 1 109.50000 418.400000
4498 12879 4500 1 109.50000 418.400000
4499 12879 4500 1 109.50000 418.400000
2160 12880 4501 1 109.50000 418.400000
2160 12880 4502 1 109.50000 418.400000
2160 12880 4503 1 109.50000 418.400000
4501 12880 4502 1 109.50000 418.400000
4501 12880 4503 1 109.50000 418.400000
4502 12880 4503 1 109.50000 418.400000
3266 12881 4504 1 109.50000 418.400000
3266 12881 4505 1 109.50000 418.400000
3266 12881 4506 1 109.50000 418.400000
4504 12881 4505 1 109.50000 418.400000
4504 12881 4506 1 109.50000 418.400000
4505 12881 4506 1 109.50000 418.400000
2879 12882 3961 1 109.50000 418.400000
2879 12882 4507 1 109.50000 418.400000
2879 12882 4508 1 109.50000 418.400000
3961 12882 4507 1 109.50000 418.400000
3961 12882 4508 1 109.50000 418.400000
4507 12882 4508 1 109.50000 418.400000
4509 12883 4510 1 109.50000 418.400000
4509 12883 11139 1 109.50000 418.400000
4509 12883 11297 1 109.50000 418.400000
4510 12883 11139 1 109.50000 418.400000
4510 12883 11297 1 109.50000 418.400000
11139 12883 11297 1 109.50000 418.400000
4518 12884 4519 1 109.50000 418.400000
4518 12884 4520 1 109.50000 418.400000
4518 12884 4521 1 109.50000 418.400000
4519 12884 4520 1 109.50000 418.400000
4519 12884 4521 1 109.50000 418.400000
4520 12884 4521 1 109.50000 418.400000
529 12885 2344 1 109.50000 418.400000
529 12885 4522 1 109.50000 418.400000
529 12885 4523 1 109.50000 418.400000
2344 12885 4522 1 109.50000 418.400000
2344 12885 4523 1 109.50000 418.400000
4522 12885 4523 1 109.50000 418.400000
2214 12886 3701 1 109.50000 418.400000
2214 12886 4524 1 109.50000 418.400000
2214 12886 4525 1 109.50000 418.400000
3701 12886 4524 1 109.50000 418.400000
3701 12886 4525 1 109.50000 418.400000
4524 12886 4525 1 109.50000 418.400000
4526 12887 4527 1 109.50000 418.400000
4526 12887 4528 1 109.50000 418.400000
4526 12887 4529 1 109.50000 418.400000
4527 12887 4528 1 109.50000 418.400000
4527 12887 4529 1 109.50000 418.400000
4528 12887 4529 1 109.50000 418.400000
796 12888 4530 1 109.50000 418.400000
796 12888 9194 1 109.50000 418.400000
796 12888 11206 1 109.50000 418.400000
4530 12888 9194 1 109.50000 418.400000
4530 12888 11206 1 109.50000 418.400000
9194 12888 11206 1 109.50000 418.400000
4371 12889 4531 1 109.50000 418.400000
4371 12889 4532 1 109.50000 418.400000
4371 12889 4533 1 109.50000 418.400000
4531 12889 4532 1 109.50000 418.400000
4531 12889 4533 1 109.50000 418.400000
4532 12889 4533 1 109.50000 418.400000
4534 12890 4535 1 109.50000 418.400000
4534 12890 11176 1 109.50000 418.400000
4534 12890 11493 1 109.50000 418.400000
4535 12890 11176 1 109.50000 418.400000
4535 12890 11493 1 109.50000 418.400000
11176 12890 11493 1 109.50000 418.400000
12 12891 4536 1 109.50000 418.400000
12 12891 4537 1 109.50000 418.400000
12 12891 4538 1 109.50000 418.400000
4536 12891 4537 1 109.50000 418.400000
4536 12891 4538 1 109.50000 418.400000
4537 12891 4538 1 109.50000 418.400000
147 12892 4539 1 109.50000 418.400000
147 12892 11355 1 109.50000 418.400000
147 12892 11366 1 109.50000 418.400000
4539 12892 11355 1 109.50000 418.400000
4539 12892 11366 1 109.50000 418.400000
11355 12892 11366 1 109.50000 418.400000
3231 12893 4540 1 109.50000 418.400000
3231 12893 4541 1 109.50000 418.400000
3231 12893 4542 1 109.50000 418.400000
4540 12893 4541 1 109.50000 418.400000
4540 12893 4542 1 109.50000 418.400000
4541 12893 4542 1 109.50000 418.400000
3759 12894 4543 1 109.50000 418.400000
3759 12894 4544 1 109.50000 418.400000
3759 12894 4545 1 109.50000 418.400000
4543 12894 4544 1 109.50000 418.400000
4543 12894 4545 1 109.50000 418.400000
4544 12894 4545 1 109.50000 418.400000
4546 12895 4547 1 109.50000 418.400000
4546 12895 4548 1 109.50000 418.400000
4546 12895 4549 1 109.50000 418.400000
4547 12895 4548 1 109.50000 418.400000
4547 12895 4549 1 109.50000 418.400000
4548 12895 4549 1 109.50000 418.400000
2289 12896 4550 1 109.50000 418.400000
2289 12896 4551 1 109.50000 418.400000
2289 12896 4552 1 109.50000 418.400000
4550 12896 4551 1 109.50000 418.400000
4550 12896 4552 1 109.50000 418.400000
4551 12896 4552 1 109.50000 418.400000
4554 12897 4555 1 109.50000 418.400000
4554 12897 4556 1 109.50000 418.400000
4554 12897 9056 1 109.50000 418.400000
4555 12897 4556 1 109.50000 418.400000
4555 12897 9056 1 109.50000 418.400000
4556 12897 9056 1 109.50000 418.400000
2614 12898 4557 1 109.50000 418.400000
2614 12898 4558 1 109.50000 418.400000
2614 12898 4559 1 109.50000 418.400000
4557 12898 4558 1 109.50000 418.400000
4557 12898 4559 1 109.50000 418.400000
4558 12898 4559 1 109.50000 418.400000
4302 12899 4303 1 109.50000 418.400000
4302 12899 4561 1 109.50000 418.400000
4302 12899 4562 1 109.50000 418.400000
4303 12899 4561 1 109.50000 418.400000
4303 12899 4562 1 109.50000 418.400000
4561 12899 4562 1 109.50000 418.400000
394 12900 4462 1 109.50000 418.400000
394 12900 4563 1 109.50000 418.400000
394 12900 4564 1 109.50000 418.400000
4462 12900 4563 1 109.50000 418.400000
4462 12900 4564 1 109.50000 418.400000
4563 12900 4564 1 109.50000 418.400000
415 12901 3031 1 109.50000 418.400000
415 12901 4565 1 109.50000 418.400000
415 12901 4566 1 109.50000 418.400000
3031 12901 4565 1 109.50000 418.400000
3031 12901 4566 1 109.50000 418.400000
4565 12901 4566 1 109.50000 418.400000
754 12902 2128 1 109.50000 418.400000
754 12902 2917 1 109.50000 418.400000
754 12902 4567 1 109.50000 418.400000
2128 12902 2917 1 109.50000 418.400000
2128 12902 4567 1 109.50000 418.400000
2917 12902 4567 1 109.50000 418.400000
4568 12903 4569 1 109.50000 418.400000
4568 12903 4570 1 109.50000 418.400000
4568 12903 4571 1 109.50000 418.400000
4569 12903 4570 1 109.50000 418.400000
4569 12903 4571 1 109.50000 418.400000
4570 12903 4571 1 109.50000 418.400000
3517 12904 4572 1 109.50000 418.400000
3517 12904 4573 1 109.50000 418.400000
3517 12904 4574 1 109.50000 418.400000
4572 12904 4573 1 109.50000 418.400000
4572 12904 4574 1 109.50000 418.400000
4573 12904 4574 1 109.50000 418.400000
4575 12905 4576 1 109.50000 418.400000
4575 12905 4577 1 109.50000 418.400000
4575 12905 4578 1 109.50000 418.400000
4576 12905 4577 1 109.50000 418.400000
4576 12905 4578 1 109.50000 418.400000
4577 12905 4578 1 109.50000 418.400000
4579 12906 4580 1 109.50000 418.400000
4579 12906 4581 1 109.50000 418.400000
4579 12906 4582 1 109.50000 418.400000
4580 12906 4581 1 109.50000 418.400000
4580 12906 4582 1 109.50000 418.400000
4581 12906 4582 1 109.50000 418.400000
2219 12907 3346 1 109.50000 418.400000
2219 12907 4583 1 109.50000 418.400000
2219 12907 8090 1 109.50000 418.400000
3346 12907 4583 1 109.50000 418.400000
3346 12907 8090 1 109.50000 418.400000
4583 12907 8090 1 109.50000 418.400000
2454 12908 2843 1 109.50000 418.400000
2454 12908 4364 1 109.50000 418.400000
2454 12908 4585 1 109.50000 418.400000
2843 12908 4364 1 109.50000 418.400000
2843 12908 4585 1 109.50000 418.400000
4364 12908 4585 1 109.50000 418.400000
4586 12909 4587 1 109.50000 418.400000
4586 12909 4588 1 109.50000 418.400000
4586 12909 11458 1 109.50000 418.400000
4587 12909 4588 1 109.50000 418.400000
4587 12909 11458 1 109.50000 418.400000
4588 12909 11458 1 109.50000 418.400000
4591 12910 9469 1 109.50000 418.400000
4591 12910 10531 1 109.50000 418.400000
4591 12910 10532 1 109.50000 418.400000
9469 12910 10531 1 109.50000 418.400000
9469 12910 10532 1 109.50000 418.400000
10531 12910 10532 1 109.50000 418.400000
2864 12911 4594 1 109.50000 418.400000
2864 12911 4595 1 109.50000 418.400000
2864 12911 10285 1 109.50000 418.400000
4594 12911 4595 1 109.50000 418.400000
4594 12911 10285 1 109.50000 418.400000
4595 12911 10285 1 109.50000 418.400000
120 12912 4596 1 109.50000 418.400000
120 12912 4597 1 109.50000 418.400000
120 12912 4598 1 109.50000 418.400000
4596 12912 4597 1 109.50000 418.400000
4596 12912 4598 1 109.50000 418.400000
4597 12912 4598 1 109.50000 418.400000
4599 12913 4600 1 109.50000 418.400000
4599 12913 4601 1 109.50000 418.400000
4599 12913 4602 1 109.50000 418.400000
4600 12913 4601 1 109.50000 418.400000
4600 12913 4602 1 109.50000 418.400000
4601 12913 4602 1 109.50000 418.400000
399 12914 1946 1 109.50000 418.400000
399 12914 4605 1 109.50000 418.400000
399 12914 4606 1 109.50000 418.400000
1946 12914 4605 1 109.50000 418.400000
1946 12914 4606 1 109.50000 418.400000
4605 12914 4606 1 109.50000 418.400000
4609 12915 4610 1 109.50000 418.400000
4609 12915 4611 1 109.50000 418.400000
4609 12915 4612 1 109.50000 418.400000
4610 12915 4611 1 109.50000 418.400000
4610 12915 4612 1 109.50000 418.400000
4611 12915 4612 1 109.50000 418.400000
4613 12916 4614 1 109.50000 418.400000
4613 12916 4615 1 109.50000 418.400000
4613 12916 4616 1 109.50000 418.400000
4614 12916 4615 1 109.50000 418.400000
4614 12916 4616 1 109.50000 418.400000
4615 12916 4616 1 109.50000 418.400000
140 12917 4617 1 109.50000 418.400000
140 12917 4618 1 109.50000 418.400000
140 12917 4619 1 109.50000 418.400000
4617 12917 4618 1 109.50000 418.400000
4617 12917 4619 1 109.50000 418.400000
4618 12917 4619 1 109.50000 418.400000
2542 12918 4620 1 109.50000 418.400000
2542 12918 4621 1 109.50000 418.400000
2542 12918 4622 1 109.50000 418.400000
4620 12918 4621 1 109.50000 418.400000
4620 12918 4622 1 109.50000 418.400000
4621 12918 4622 1 109.50000 418.400000
4418 12919 4623 1 109.50000 418.400000
4418 12919 4624 1 109.50000 418.400000
4418 12919 11392 1 109.50000 418.400000
4623 12919 4624 1 109.50000 418.400000
4623 12919 11392 1 109.50000 418.400000
4624 12919 11392 1 109.50000 418.400000
753 12920 4179 1 109.50000 418.400000
753 12920 4626 1 109.50000 418.400000
753 12920 4627 1 109.50000 418.400000
4179 12920 4626 1 109.50000 418.400000
4179 12920 4627 1 109.50000 418.400000
4626 12920 4627 1 109.50000 418.400000
1393 12921 4420 1 109.50000 418.400000
1393 12921 4628 1 109.50000 418.400000
1393 12921 4629 1 109.50000 418.400000
4420 12921 4628 1 109.50000 418.400000
4420 12921 4629 1 109.50000 418.400000
4628 12921 4629 1 109.50000 418.400000
4630 12922 4631 1 109.50000 418.400000
4630 12922 4632 1 109.50000 418.400000
4630 12922 4633 1 109.50000 418.400000
4631 12922 4632 1 109.50000 418.400000
4631 12922 4633 1 109.50000 418.400000
4632 12922 4633 1 109.50000 418.400000
1847 12923 3783 1 109.50000 418.400000
1847 12923 4634 1 109.50000 418.400000
1847 12923 4635 1 109.50000 418.400000
3783 12923 4634 1 109.50000 418.400000
3783 12923 4635 1 109.50000 418.400000
4634 12923 4635 1 109.50000 418.400000
4636 12924 4637 1 109.50000 418.400000
4636 12924 4638 1 109.50000 418.400000
4636 12924 11542 1 109.50000 418.400000
4637 12924 4638 1 109.50000 418.400000
4637 12924 11542 1 109.50000 418.400000
4638 12924 11542 1 109.50000 418.400000
186 12925 543 1 109.50000 418.400000
186 12925 544 1 109.50000 418.400000
186 12925 545 1 109.50000 418.400000
543 12925 544 1 109.50000 418.400000
543 12925 545 1 109.50000 418.400000
544 12925 545 1 109.50000 418.400000
4641 12926 4642 1 109.50000 418.400000
4641 12926 4643 1 109.50000 418.400000
4641 12926 4644 1 109.50000 418.400000
4642 12926 4643 1 109.50000 418.400000
4642 12926 4644 1 109.50000 418.400000
4643 12926 4644 1 109.50000 418.400000
1801 12927 4645 1 109.50000 418.400000
1801 12927 4646 1 109.50000 418.400000
1801 12927 4647 1 109.50000 418.400000
4645 12927 4646 1 109.50000 418.400000
4645 12927 4647 1 109.50000 418.400000
4646 12927 4647 1 109.50000 418.400000
3623 12928 4648 1 109.50000 418.400000
3623 12928 4649 1 109.50000 418.400000
3623 12928 4650 1 109.50000 418.400000
4648 12928 4649 1 109.50000 418.400000
4648 12928 4650 1 109.50000 418.400000
4649 12928 4650 1 109.50000 418.400000
4046 12929 4651 1 109.50000 418.400000
4046 12929 4652 1 109.50000 418.400000
4046 12929 4653 1 109.50000 418.400000
4651 12929 4652 1 109.50000 418.400000
4651 12929 4653 1 109.50000 418.400000
4652 12929 4653 1 109.50000 418.400000
4654 12930 4655 1 109.50000 418.400000
4654 12930 4656 1 109.50000 418.400000
4654 12930 4657 1 109.50000 418.400000
4655 12930 4656 1 109.50000 418.400000
4655 12930 4657 1 109.50000 418.400000
4656 12930 4657 1 109.50000 418.400000
2561 12931 2745 1 109.50000 418.400000
2561 12931 4658 1 109.50000 418.400000
2561 12931 4659 1 109.50000 418.400000
2745 12931 4658 1 109.50000 418.400000
2745 12931 4659 1 109.50000 418.400000
4658 12931 4659 1 109.50000 418.400000
4660 12932 4661 1 109.50000 418.400000
4660 12932 4662 1 109.50000 418.400000
4660 12932 4663 1 109.50000 418.400000
4661 12932 4662 1 109.50000 418.400000
4661 12932 4663 1 109.50000 418.400000
4662 12932 4663 1 109.50000 418.400000
3758 12933 4664 1 109.50000 418.400000
3758 12933 4665 1 109.50000 418.400000
3758 12933 4666 1 109.50000 418.400000
4664 12933 4665 1 109.50000 418.400000
4664 12933 4666 1 109.50000 418.400000
4665 12933 4666 1 109.50000 418.400000
4667 12934 4668 1 109.50000 418.400000
4667 12934 4669 1 109.50000 418.400000
4667 12934 4670 1 109.50000 418.400000
4668 12934 4669 1 109.50000 418.400000
4668 12934 4670 1 109.50000 418.400000
4669 12934 4670 1 109.50000 418.400000
4422 12935 4671 1 109.50000 418.400000
4422 12935 4672 1 109.50000 418.400000
4422 12935 4673 1 109.50000 418.400000
4671 12935 4672 1 109.50000 418.400000
4671 12935 4673 1 109.50000 418.400000
4672 12935 4673 1 109.50000 418.400000
4674 12936 4675 1 109.50000 418.400000
4674 12936 4677 1 109.50000 418.400000
4674 12936 6369 1 109.50000 418.400000
4675 12936 4677 1 109.50000 418.400000
4675 12936 6369 1 109.50000 418.400000
4677 12936 6369 1 109.50000 418.400000
4678 12937 4679 1 109.50000 418.400000
4678 12937 4680 1 109.50000 418.400000
4678 12937 4681 1 109.50000 418.400000
4679 12937 4680 1 109.50000 418.400000
4679 12937 4681 1 109.50000 418.400000
4680 12937 4681 1 109.50000 418.400000
96 12938 2613 1 109.50000 418.400000
96 12938 4682 1 109.50000 418.400000
96 12938 4683 1 109.50000 418.400000
2613 12938 4682 1 109.50000 418.400000
2613 12938 4683 1 109.50000 418.400000
4682 12938 4683 1 109.50000 418.400000
4684 12939 4685 1 109.50000 418.400000
4684 12939 4686 1 109.50000 418.400000
4684 12939 4687 1 109.50000 418.400000
4685 12939 4686 1 109.50000 418.400000
4685 12939 4687 1 109.50000 418.400000
4686 12939 4687 1 109.50000 418.400000
2685 12940 4688 1 109.50000 418.400000
2685 12940 4689 1 109.50000 418.400000
2685 12940 4690 1 109.50000 418.400000
4688 12940 4689 1 109.50000 418.400000
4688 12940 4690 1 109.50000 418.400000
4689 12940 4690 1 109.50000 418.400000
3592 12941 4649 1 109.50000 418.400000
3592 12941 4694 1 109.50000 418.400000
3592 12941 4695 1 109.50000 418.400000
4649 12941 4694 1 109.50000 418.400000
4649 12941 4695 1 109.50000 418.400000
4694 12941 4695 1 109.50000 418.400000
623 12942 2273 1 109.50000 418.400000
623 12942 4696 1 109.50000 418.400000
623 12942 4697 1 109.50000 418.400000
2273 12942 4696 1 109.50000 418.400000
2273 12942 4697 1 109.50000 418.400000
4696 12942 4697 1 109.50000 418.400000
1474 12943 2833 1 109.50000 418.400000
1474 12943 4698 1 109.50000 418.400000
1474 12943 4699 1 109.50000 418.400000
2833 12943 4698 1 109.50000 418.400000
2833 12943 4699 1 109.50000 418.400000
4698 12943 4699 1 109.50000 418.400000
4648 12944 4700 1 109.50000 418.400000
4648 12944 4701 1 109.50000 418.400000
4648 12944 11145 1 109.50000 418.400000
4700 12944 4701 1 109.50000 418.400000
4700 12944 11145 1 109.50000 418.400000
4701 12944 11145 1 109.50000 418.400000
4262 12945 4702 1 109.50000 418.400000
4262 12945 4703 1 109.50000 418.400000
4262 12945 4704 1 109.50000 418.400000
4702 12945 4703 1 109.50000 418.400000
4702 12945 4704 1 109.50000 418.400000
4703 12945 4704 1 109.50000 418.400000
1082 12946 4705 1 109.50000 418.400000
1082 12946 4706 1 109.50000 418.400000
1082 12946 4707 1 109.50000 418.400000
4705 12946 4706 1 109.50000 418.400000
4705 12946 4707 1 109.50000 418.400000
4706 12946 4707 1 109.50000 418.400000
2497 12947 4708 1 109.50000 418.400000
2497 12947 4709 1 109.50000 418.400000
2497 12947 4710 1 109.50000 418.400000
4708 12947 4709 1 109.50000 418.400000
4708 12947 4710 1 109.50000 418.400000
4709 12947 4710 1 109.50000 418.400000
4711 12948 4712 1 109.50000 418.400000
4711 12948 4713 1 109.50000 418.400000
4711 12948 4714 1 109.50000 418.400000
4712 12948 4713 1 109.50000 418.400000
4712 12948 4714 1 109.50000 418.400000
4713 12948 4714 1 109.50000 418.400000
2594 12949 4083 1 109.50000 418.400000
2594 12949 4715 1 109.50000 418.400000
2594 12949 4716 1 109.50000 418.400000
4083 12949 4715 1 109.50000 418.400000
4083 12949 4716 1 109.50000 418.400000
4715 12949 4716 1 109.50000 418.400000
4717 12950 4718 1 109.50000 418.400000
4717 12950 4719 1 109.50000 418.400000
4717 12950 4720 1 109.50000 418.400000
4718 12950 4719 1 109.50000 418.400000
4718 12950 4720 1 109.50000 418.400000
4719 12950 4720 1 109.50000 418.400000
4721 12951 4722 1 109.50000 418.400000
4721 12951 4723 1 109.50000 418.400000
4721 12951 4724 1 109.50000 418.400000
4722 12951 4723 1 109.50000 418.400000
4722 12951 4724 1 109.50000 418.400000
4723 12951 4724 1 109.50000 418.400000
4725 12952 4726 1 109.50000 418.400000
4725 12952 4727 1 109.50000 418.400000
4725 12952 4728 1 109.50000 418.400000
4726 12952 4727 1 109.50000 418.400000
4726 12952 4728 1 109.50000 418.400000
4727 12952 4728 1 109.50000 418.400000
4557 12953 4729 1 109.50000 418.400000
4557 12953 4730 1 109.50000 418.400000
4557 12953 4731 1 109.50000 418.400000
4729 12953 4730 1 109.50000 418.400000
4729 12953 4731 1 109.50000 418.400000
4730 12953 4731 1 109.50000 418.400000
4732 12954 4733 1 109.50000 418.400000
4732 12954 4734 1 109.50000 418.400000
4732 12954 4735 1 109.50000 418.400000
4733 12954 4734 1 109.50000 418.400000
4733 12954 4735 1 109.50000 418.400000
4734 12954 4735 1 109.50000 418.400000
519 12955 4736 1 109.50000 418.400000
519 12955 4737 1 109.50000 418.400000
519 12955 11505 1 109.50000 418.400000
4736 12955 4737 1 109.50000 418.400000
4736 12955 11505 1 109.50000 418.400000
4737 12955 11505 1 109.50000 418.400000
4738 12956 4739 1 109.50000 418.400000
4738 12956 4740 1 109.50000 418.400000
4738 12956 4741 1 109.50000 418.400000
4739 12956 4740 1 109.50000 418.400000
4739 12956 4741 1 109.50000 418.400000
4740 12956 4741 1 109.50000 418.400000
3547 12957 4742 1 109.50000 418.400000
3547 12957 4743 1 109.50000 418.400000
3547 12957 4744 1 109.50000 418.400000
4742 12957 4743 1 109.50000 418.400000
4742 12957 4744 1 109.50000 418.400000
4743 12957 4744 1 109.50000 418.400000
2565 12958 4144 1 109.50000 418.400000
2565 12958 4745 1 109.50000 418.400000
2565 12958 4746 1 109.50000 418.400000
4144 12958 4745 1 109.50000 418.400000
4144 12958 4746 1 109.50000 418.400000
4745 12958 4746 1 109.50000 418.400000
4112 12959 4747 1 109.50000 418.400000
4112 12959 4748 1 109.50000 418.400000
4112 12959 4749 1 109.50000 418.400000
4747 12959 4748 1 109.50000 418.400000
4747 12959 4749 1 109.50000 418.400000
4748 12959 4749 1 109.50000 418.400000
1616 12960 1815 1 109.50000 418.400000
1616 12960 4750 1 109.50000 418.400000
1616 12960 4751 1 109.50000 418.400000
1815 12960 4750 1 109.50000 418.400000
1815 12960 4751 1 109.50000 418.400000
4750 12960 4751 1 109.50000 418.400000
4723 12961 4752 1 109.50000 418.400000
4723 12961 4753 1 109.50000 418.400000
4723 12961 4754 1 109.50000 418.400000
4752 12961 4753 1 109.50000 418.400000
4752 12961 4754 1 109.50000 418.400000
4753 12961 4754 1 109.50000 418.400000
54 12962 4756 1 109.50000 418.400000
54 12962 4757 1 109.50000 418.400000
54 12962 4758 1 109.50000 418.400000
4756 12962 4757 1 109.50000 418.400000
4756 12962 4758 1 109.50000 418.400000
4757 12962 4758 1 109.50000 418.400000
4288 12963 4759 1 109.50000 418.400000
4288 12963 4761 1 109.50000 418.400000
4288 12963 9073 1 109.50000 418.400000
4759 12963 4761 1 109.50000 418.400000
4759 12963 9073 1 109.50000 418.400000
4761 12963 9073 1 109.50000 418.400000
4713 12964 4762 1 109.50000 418.400000
4713 12964 4763 1 109.50000 418.400000
4713 12964 4764 1 109.50000 418.400000
4762 12964 4763 1 109.50000 418.400000
4762 12964 4764 1 109.50000 418.400000
4763 12964 4764 1 109.50000 418.400000
1679 12965 2482 1 109.50000 418.400000
1679 12965 4133 1 109.50000 418.400000
1679 12965 4765 1 109.50000 418.400000
2482 12965 4133 1 109.50000 418.400000
2482 12965 4765 1 109.50000 418.400000
4133 12965 4765 1 109.50000 418.400000
4606 12966 4766 1 109.50000 418.400000
4606 12966 4767 1 109.50000 418.400000
4606 12966 4768 1 109.50000 418.400000
4766 12966 4767 1 109.50000 418.400000
4766 12966 4768 1 109.50000 418.400000
4767 12966 4768 1 109.50000 418.400000
1665 12967 2646 1 109.50000 418.400000
1665 12967 4769 1 109.50000 418.400000
1665 12967 4770 1 109.50000 418.400000
2646 12967 4769 1 109.50000 418.400000
2646 12967 4770 1 109.50000 418.400000
4769 12967 4770 1 109.50000 418.400000
4773 12968 4774 1 109.50000 418.400000
4773 12968 4775 1 109.50000 418.400000
4773 12968 4776 1 109.50000 418.400000
4774 12968 4775 1 109.50000 418.400000
4774 12968 4776 1 109.50000 418.400000
4775 12968 4776 1 109.50000 418.400000
4777 12969 4778 1 109.50000 418.400000
4777 12969 4779 1 109.50000 418.400000
4777 12969 4780 1 109.50000 418.400000
4778 12969 4779 1 109.50000 418.400000
4778 12969 4780 1 109.50000 418.400000
4779 12969 4780 1 109.50000 418.400000
3001 12970 4072 1 109.50000 418.400000
3001 12970 4781 1 109.50000 418.400000
3001 12970 4782 1 109.50000 418.400000
4072 12970 4781 1 109.50000 418.400000
4072 12970 4782 1 109.50000 418.400000
4781 12970 4782 1 109.50000 418.400000
797 12971 4322 1 109.50000 418.400000
797 12971 4784 1 109.50000 418.400000
797 12971 4785 1 109.50000 418.400000
4322 12971 4784 1 109.50000 418.400000
4322 12971 4785 1 109.50000 418.400000
4784 12971 4785 1 109.50000 418.400000
379 12972 4786 1 109.50000 418.400000
379 12972 4787 1 109.50000 418.400000
379 12972 4788 1 109.50000 418.400000
4786 12972 4787 1 109.50000 418.400000
4786 12972 4788 1 109.50000 418.400000
4787 12972 4788 1 109.50000 418.400000
2021 12973 4789 1 109.50000 418.400000
2021 12973 6116 1 109.50000 418.400000
2021 12973 11235 1 109.50000 418.400000
4789 12973 6116 1 109.50000 418.400000
4789 12973 11235 1 109.50000 418.400000
6116 12973 11235 1 109.50000 418.400000
4790 12974 4791 1 109.50000 418.400000
4790 12974 4792 1 109.50000 418.400000
4790 12974 11506 1 109.50000 418.400000
4791 12974 4792 1 109.50000 418.400000
4791 12974 11506 1 109.50000 418.400000
4792 12974 11506 1 109.50000 418.400000
2971 12975 2972 1 109.50000 418.400000
2971 12975 4793 1 109.50000 418.400000
2971 12975 4794 1 109.50000 418.400000
2972 12975 4793 1 109.50000 418.400000
2972 12975 4794 1 109.50000 418.400000
4793 12975 4794 1 109.50000 418.400000
837 12976 4795 1 109.50000 418.400000
837 12976 11397 1 109.50000 418.400000
837 12976 11424 1 109.50000 418.400000
4795 12976 11397 1 109.50000 418.400000
4795 12976 11424 1 109.50000 418.400000
11397 12976 11424 1 109.50000 418.400000
4796 12977 4797 1 109.50000 418.400000
4796 12977 4798 1 109.50000 418.400000
4796 12977 4799 1 109.50000 418.400000
4797 12977 4798 1 109.50000 418.400000
4797 12977 4799 1 109.50000 418.400000
4798 12977 4799 1 109.50000 418.400000
2732 12978 3337 1 109.50000 418.400000
2732 12978 4800 1 109.50000 418.400000
2732 12978 11220 1 109.50000 418.400000
3337 12978 4800 1 109.50000 418.400000
3337 12978 11220 1 109.50000 418.400000
4800 12978 11220 1 109.50000 418.400000
4801 12979 4803 1 109.50000 418.400000
4801 12979 6161 1 109.50000 418.400000
4801 12979 7451 1 109.50000 418.400000
4803 12979 6161 1 109.50000 418.400000
4803 12979 7451 1 109.50000 418.400000
6161 12979 7451 1 109.50000 418.400000
2791 12980 2793 1 109.50000 418.400000
2791 12980 4804 1 109.50000 418.400000
2791 12980 4805 1 109.50000 418.400000
2793 12980 4804 1 109.50000 418.400000
2793 12980 4805 1 109.50000 418.400000
4804 12980 4805 1 109.50000 418.400000
4807 12981 4808 1 109.50000 418.400000
4807 12981 4809 1 109.50000 418.400000
4807 12981 11156 1 109.50000 418.400000
4808 12981 4809 1 109.50000 418.400000
4808 12981 11156 1 109.50000 418.400000
4809 12981 11156 1 109.50000 418.400000
4810 12982 4812 1 109.50000 418.400000
4810 12982 8212 1 109.50000 418.400000
4810 12982 11525 1 109.50000 418.400000
4812 12982 8212 1 109.50000 418.400000
4812 12982 11525 1 109.50000 418.400000
8212 12982 11525 1 109.50000 418.400000
274 12983 4813 1 109.50000 418.400000
274 12983 4814 1 109.50000 418.400000
274 12983 11583 1 109.50000 418.400000
4813 12983 4814 1 109.50000 418.400000
4813 12983 11583 1 109.50000 418.400000
4814 12983 11583 1 109.50000 418.400000
4032 12984 4817 1 109.50000 418.400000
4032 12984 11395 1 109.50000 418.400000
4032 12984 11575 1 109.50000 418.400000
4817 12984 11395 1 109.50000 418.400000
4817 12984 11575 1 109.50000 418.400000
11395 12984 11575 1 109.50000 418.400000
3725 12985 4818 1 109.50000 418.400000
3725 12985 4819 1 109.50000 418.400000
3725 12985 4820 1 109.50000 418.400000
4818 12985 4819 1 109.50000 418.400000
4818 12985 4820 1 109.50000 418.400000
4819 12985 4820 1 109.50000 418.400000
4821 12986 4822 1 109.50000 418.400000
4821 12986 4823 1 109.50000 418.400000
4821 12986 4824 1 109.50000 418.400000
4822 12986 4823 1 109.50000 418.400000
4822 12986 4824 1 109.50000 418.400000
4823 12986 4824 1 109.50000 418.400000
4825 12987 4826 1 109.50000 418.400000
4825 12987 4827 1 109.50000 418.400000
4825 12987 11150 1 109.50000 418.400000
4826 12987 4827 1 109.50000 418.400000
4826 12987 11150 1 109.50000 418.400000
4827 12987 11150 1 109.50000 418.400000
1424 12988 4828 1 109.50000 418.400000
1424 12988 4829 1 109.50000 418.400000
1424 12988 4830 1 109.50000 418.400000
4828 12988 4829 1 109.50000 418.400000
4828 12988 4830 1 109.50000 418.400000
4829 12988 4830 1 109.50000 418.400000
4831 12989 4832 1 109.50000 418.400000
4831 12989 4833 1 109.50000 418.400000
4831 12989 4834 1 109.50000 418.400000
4832 12989 4833 1 109.50000 418.400000
4832 12989 4834 1 109.50000 418.400000
4833 12989 4834 1 109.50000 418.400000
39 12990 4835 1 109.50000 418.400000
39 12990 4836 1 109.50000 418.400000
39 12990 4837 1 109.50000 418.400000
4835 12990 4836 1 109.50000 418.400000
4835 12990 4837 1 109.50000 418.400000
4836 12990 4837 1 109.50000 418.400000
955 12991 4838 1 109.50000 418.400000
955 12991 4839 1 109.50000 418.400000
955 12991 4840 1 109.50000 418.400000
4838 12991 4839 1 109.50000 418.400000
4838 12991 4840 1 109.50000 418.400000
4839 12991 4840 1 109.50000 418.400000
4841 12992 4842 1 109.50000 418.400000
4841 12992 4843 1 109.50000 418.400000
4841 12992 4844 1 109.50000 418.400000
4842 12992 4843 1 109.50000 418.400000
4842 12992 4844 1 109.50000 418.400000
4843 12992 4844 1 109.50000 418.400000
3912 12993 4845 1 109.50000 418.400000
3912 12993 4846 1 109.50000 418.400000
3912 12993 4847 1 109.50000 418.400000
4845 12993 4846 1 109.50000 418.400000
4845 12993 4847 1 109.50000 418.400000
4846 12993 4847 1 109.50000 418.400000
145 12994 4849 1 109.50000 418.400000
145 12994 11366 1 109.50000 418.400000
145 12994 11509 1 109.50000 418.400000
4849 12994 11366 1 109.50000 418.400000
4849 12994 11509 1 109.50000 418.400000
11366 12994 11509 1 109.50000 418.400000
340 12995 4850 1 109.50000 418.400000
340 12995 4851 1 109.50000 418.400000
340 12995 4852 1 109.50000 418.400000
4850 12995 4851 1 109.50000 418.400000
4850 12995 4852 1 109.50000 418.400000
4851 12995 4852 1 109.50000 418.400000
4392 12996 4853 1 109.50000 418.400000
4392 12996 4854 1 109.50000 418.400000
4392 12996 4855 1 109.50000 418.400000
4853 12996 4854 1 109.50000 418.400000
4853 12996 4855 1 109.50000 418.400000
4854 12996 4855 1 109.50000 418.400000
2447 12997 3909 1 109.50000 418.400000
2447 12997 4856 1 109.50000 418.400000
2447 12997 4857 1 109.50000 418.400000
3909 12997 4856 1 109.50000 418.400000
3909 12997 4857 1 109.50000 418.400000
4856 12997 4857 1 109.50000 418.400000
2865 12998 2866 1 109.50000 418.400000
2865 12998 4858 1 109.50000 418.400000
2865 12998 4859 1 109.50000 418.400000
2866 12998 4858 1 109.50000 418.400000
2866 12998 4859 1 109.50000 418.400000
4858 12998 4859 1 109.50000 418.400000
4861 12999 4862 1 109.50000 418.400000
4861 12999 11370 1 109.50000 418.400000
4861 12999 11524 1 109.50000 418.400000
4862 12999 11370 1 109.50000 418.400000
4862 12999 11524 1 109.50000 418.400000
11370 12999 11524 1 109.50000 418.400000
4863 13000 4864 1 109.50000 418.400000
4863 13000 4865 1 109.50000 418.400000
4863 13000 4866 1 109.50000 418.400000
4864 13000 4865 1 109.50000 418.400000
4864 13000 4866 1 109.50000 418.400000
4865 13000 4866 1 109.50000 418.400000
2320 13001 4867 1 109.50000 418.400000
2320 13001 4868 1 109.50000 418.400000
2320 13001 4869 1 109.50000 418.400000
4867 13001 4868 1 109.50000 418.400000
4867 13001 4869 1 109.50000 418.400000
4868 13001 4869 1 109.50000 418.400000
841 13002 2752 1 109.50000 418.400000
841 13002 3015 1 109.50000 418.400000
841 13002 4872 1 109.50000 418.400000
2752 13002 3015 1 109.50000 418.400000
2752 13002 4872 1 109.50000 418.400000
3015 13002 4872 1 109.50000 418.400000
3810 13003 4873 1 109.50000 418.400000
3810 13003 4874 1 109.50000 418.400000
3810 13003 4875 1 109.50000 418.400000
4873 13003 4874 1 109.50000 418.400000
4873 13003 4875 1 109.50000 418.400000
4874 13003 4875 1 109.50000 418.400000
1451 13004 4876 1 109.50000 418.400000
1451 13004 4877 1 109.50000 418.400000
1451 13004 4878 1 109.50000 418.400000
4876 13004 4877 1 109.50000 418.400000
4876 13004 4878 1 109.50000 418.400000
4877 13004 4878 1 109.50000 418.400000
523 13005 889 1 109.50000 418.400000
523 13005 4879 1 109.50000 418.400000
523 13005 11167 1 109.50000 418.400000
889 13005 4879 1 109.50000 418.400000
889 13005 11167 1 109.50000 418.400000
4879 13005 11167 1 109.50000 418.400000
161 13006 4880 1 109.50000 418.400000
161 13006 4881 1 109.50000 418.400000
161 13006 4882 1 109.50000 418.400000
4880 13006 4881 1 109.50000 418.400000
4880 13006 4882 1 109.50000 418.400000
4881 13006 4882 1 109.50000 418.400000
4722 13007 4883 1 109.50000 418.400000
4722 13007 4884 1 109.50000 418.400000
4722 13007 4885 1 109.50000 418.400000
4883 13007 4884 1 109.50000 418.400000
4883 13007 4885 1 109.50000 418.400000
4884 13007 4885 1 109.50000 418.400000
4887 13008 4888 1 109.50000 418.400000
4887 13008 4889 1 109.50000 418.400000
4887 13008 4890 1 109.50000 418.400000
4888 13008 4889 1 109.50000 418.400000
4888 13008 4890 1 109.50000 418.400000
4889 13008 4890 1 109.50000 418.400000
2426 13009 4891 1 109.50000 418.400000
2426 13009 4892 1 109.50000 418.400000
2426 13009 4893 1 109.50000 418.400000
4891 13009 4892 1 109.50000 418.400000
4891 13009 4893 1 109.50000 418.400000
4892 13009 4893 1 109.50000 418.400000
4895 13010 4896 1 109.50000 418.400000
4895 13010 11320 1 109.50000 418.400000
4895 13010 11530 1 109.50000 418.400000
4896 13010 11320 1 109.50000 418.400000
4896 13010 11530 1 109.50000 418.400000
11320 13010 11530 1 109.50000 418.400000
732 13011 2676 1 109.50000 418.400000
732 13011 4897 1 109.50000 418.400000
732 13011 4898 1 109.50000 418.400000
2676 13011 4897 1 109.50000 418.400000
2676 13011 4898 1 109.50000 418.400000
4897 13011 4898 1 109.50000 418.400000
4900 13012 4901 1 109.50000 418.400000
4900 13012 8815 1 109.50000 418.400000
4900 13012 11432 1 109.50000 418.400000
4901 13012 8815 1 109.50000 418.400000
4901 13012 11432 1 109.50000 418.400000
8815 13012 11432 1 109.50000 418.400000
4902 13013 4903 1 109.50000 418.400000
4902 13013 4904 1 109.50000 418.400000
4902 13013 4905 1 109.50000 418.400000
4903 13013 4904 1 109.50000 418.400000
4903 13013 4905 1 109.50000 418.400000
4904 13013 4905 1 109.50000 418.400000
4906 13014 4907 1 109.50000 418.400000
4906 13014 4908 1 109.50000 418.400000
4906 13014 4909 1 109.50000 418.400000
4907 13014 4908 1 109.50000 418.400000
4907 13014 4909 1 109.50000 418.400000
4908 13014 4909 1 109.50000 418.400000
4910 13015 4911 1 109.50000 418.400000
4910 13015 4912 1 109.50000 418.400000
4910 13015 4913 1 109.50000 418.400000
4911 13015 4912 1 109.50000 418.400000
4911 13015 4913 1 109.50000 418.400000
4912 13015 4913 1 109.50000 418.400000
4914 13016 4915 1 109.50000 418.400000
4914 13016 4916 1 109.50000 418.400000
4914 13016 4917 1 109.50000 418.400000
4915 13016 4916 1 109.50000 418.400000
4915 13016 4917 1 109.50000 418.400000
4916 13016 4917 1 109.50000 418.400000
4918 13017 4919 1 109.50000 418.400000
4918 13017 4920 1 109.50000 418.400000
4918 13017 4921 1 109.50000 418.400000
4919 13017 4920 1 109.50000 418.400000
4919 13017 4921 1 109.50000 418.400000
4920 13017 4921 1 109.50000 418.400000
1750 13018 4922 1 109.50000 418.400000
1750 13018 11188 1 109.50000 418.400000
1750 13018 11265 1 109.50000 418.400000
4922 13018 11188 1 109.50000 418.400000
4922 13018 11265 1 109.50000 418.400000
11188 13018 11265 1 109.50000 418.400000
1302 13019 4923 1 109.50000 418.400000
1302 13019 4924 1 109.50000 418.400000
1302 13019 4925 1 109.50000 418.400000
4923 13019 4924 1 109.50000 418.400000
4923 13019 4925 1 109.50000 418.400000
4924 13019 4925 1 109.50000 418.400000
4458 13020 4926 1 109.50000 418.400000
4458 13020 4927 1 109.50000 418.400000
4458 13020 4928 1 109.50000 418.400000
4926 13020 4927 1 109.50000 418.400000
4926 13020 4928 1 109.50000 418.400000
4927 13020 4928 1 109.50000 418.400000
960 13021 2203 1 109.50000 418.400000
960 13021 4194 1 109.50000 418.400000
960 13021 4931 1 109.50000 418.400000
2203 13021 4194 1 109.50000 418.400000
2203 13021 4931 1 109.50000 418.400000
4194 13021 4931 1 109.50000 418.400000
2297 13022 2633 1 109.50000 418.400000
2297 13022 4932 1 109.50000 418.400000
2297 13022 11466 1 109.50000 418.400000
2633 13022 4932 1 109.50000 418.400000
2633 13022 11466 1 109.50000 418.400000
4932 13022 11466 1 109.50000 418.400000
4933 13023 4934 1 109.50000 418.400000
4933 13023 4935 1 109.50000 418.400000
4933 13023 4936 1 109.50000 418.400000
4934 13023 4935 1 109.50000 418.400000
4934 13023 4936 1 109.50000 418.400000
4935 13023 4936 1 109.50000 418.400000
4938 13024 4939 1 109.50000 418.400000
4938 13024 10105 1 109.50000 418.400000
4938 13024 11595 1 109.50000 418.400000
4939 13024 10105 1 109.50000 418.400000
4939 13024 11595 1 109.50000 418.400000
10105 13024 11595 1 109.50000 418.400000
4941 13025 4942 1 109.50000 418.400000
4941 13025 4943 1 109.50000 418.400000
4941 13025 6815 1 109.50000 418.400000
4942 13025 4943 1 109.50000 418.400000
4942 13025 6815 1 109.50000 418.400000
4943 13025 6815 1 109.50000 418.400000
3850 13026 4944 1 109.50000 418.400000
3850 13026 4945 1 109.50000 418.400000
3850 13026 4946 1 109.50000 418.400000
4944 13026 4945 1 109.50000 418.400000
4944 13026 4946 1 109.50000 418.400000
4945 13026 4946 1 109.50000 418.400000
4744 13027 4947 1 109.50000 418.400000
4744 13027 4948 1 109.50000 418.400000
4744 13027 4949 1 109.50000 418.400000
4947 13027 4948 1 109.50000 418.400000
4947 13027 4949 1 109.50000 418.400000
4948 13027 4949 1 109.50000 418.400000
4950 13028 4951 1 109.50000 418.400000
4950 13028 4952 1 109.50000 418.400000
4950 13028 4953 1 109.50000 418.400000
4951 13028 4952 1 109.50000 418.400000
4951 13028 4953 1 109.50000 418.400000
4952 13028 4953 1 109.50000 418.400000
180 13029 4954 1 109.50000 418.400000
180 13029 4955 1 109.50000 418.400000
180 13029 4956 1 109.50000 418.400000
4954 13029 4955 1 109.50000 418.400000
4954 13029 4956 1 109.50000 418.400000
4955 13029 4956 1 109.50000 418.400000
4957 13030 4958 1 109.50000 418.400000
4957 13030 4959 1 109.50000 418.400000
4957 13030 4960 1 109.50000 418.400000
4958 13030 4959 1 109.50000 418.400000
4958 13030 4960 1 109.50000 418.400000
4959 13030 4960 1 109.50000 418.400000
1777 13031 1943 1 109.50000 418.400000
1777 13031 4962 1 109.50000 418.400000
1777 13031 4963 1 109.50000 418.400000
1943 13031 4962 1 109.50000 418.400000
1943 13031 4963 1 109.50000 418.400000
4962 13031 4963 1 109.50000 418.400000
4780 13032 4964 1 109.50000 418.400000
4780 13032 4965 1 109.50000 418.400000
4780 13032 4966 1 109.50000 418.400000
4964 13032 4965 1 109.50000 418.400000
4964 13032 4966 1 109.50000 418.400000
4965 13032 4966 1 109.50000 418.400000
2296 13033 3299 1 109.50000 418.400000
2296 13033 4967 1 109.50000 418.400000
2296 13033 4968 1 109.50000 418.400000
3299 13033 4967 1 109.50000 418.400000
3299 13033 4968 1 109.50000 418.400000
4967 13033 4968 1 109.50000 418.400000
3679 13034 4969 1 109.50000 418.400000
3679 13034 4970 1 109.50000 418.400000
3679 13034 4971 1 109.50000 418.400000
4969 13034 4970 1 109.50000 418.400000
4969 13034 4971 1 109.50000 418.400000
4970 13034 4971 1 109.50000 418.400000
4972 13035 4973 1 109.50000 418.400000
4972 13035 4974 1 109.50000 418.400000
4972 13035 4975 1 109.50000 418.400000
4973 13035 4974 1 109.50000 418.400000
4973 13035 4975 1 109.50000 418.400000
4974 13035 4975 1 109.50000 418.400000
4244 13036 4976 1 109.50000 418.400000
4244 13036 4977 1 109.50000 418.400000
4244 13036 4978 1 109.50000 418.400000
4976 13036 4977 1 109.50000 418.400000
4976 13036 4978 1 109.50000 418.400000
4977 13036 4978 1 109.50000 418.400000
610 13037 1099 1 109.50000 418.400000
610 13037 4979 1 109.50000 418.400000
610 13037 4980 1 109.50000 418.400000
1099 13037 4979 1 109.50000 418.400000
1099 13037 4980 1 109.50000 418.400000
4979 13037 4980 1 109.50000 418.400000
4600 13038 4983 1 109.50000 418.400000
4600 13038 4984 1 109.50000 418.400000
4600 13038 4985 1 109.50000 418.400000
4983 13038 4984 1 109.50000 418.400000
4983 13038 4985 1 109.50000 418.400000
4984 13038 4985 1 109.50000 418.400000
4986 13039 4987 1 109.50000 418.400000
4986 13039 4988 1 109.50000 418.400000
4986 13039 11067 1 109.50000 418.400000
4987 13039 4988 1 109.50000 418.400000
4987 13039 11067 1 109.50000 418.400000
4988 13039 11067 1 109.50000 418.400000
2405 13040 3614 1 109.50000 418.400000
2405 13040 4381 1 109.50000 418.400000
2405 13040 4989 1 109.50000 418.400000
3614 13040 4381 1 109.50000 418.400000
3614 13040 4989 1 109.50000 418.400000
4381 13040 4989 1 109.50000 418.400000
366 13041 709 1 109.50000 418.400000
366 13041 4992 1 109.50000 418.400000
366 13041 4993 1 109.50000 418.400000
709 13041 4992 1 109.50000 418.400000
709 13041 4993 1 109.50000 418.400000
4992 13041 4993 1 109.50000 418.400000
4994 13042 4995 1 109.50000 418.400000
4994 13042 5969 1 109.50000 418.400000
4994 13042 11341 1 109.50000 418.400000
4995 13042 5969 1 109.50000 418.400000
4995 13042 11341 1 109.50000 418.400000
5969 13042 11341 1 109.50000 418.400000
4996 13043 4997 1 109.50000 418.400000
4996 13043 11245 1 109.50000 418.400000
4996 13043 11334 1 109.50000 418.400000
4997 13043 11245 1 109.50000 418.400000
4997 13043 11334 1 109.50000 418.400000
11245 13043 11334 1 109.50000 418.400000
4998 13044 4999 1 109.50000 418.400000
4998 13044 5000 1 109.50000 418.400000
4998 13044 5001 1 109.50000 418.400000
4999 13044 5000 1 109.50000 418.400000
4999 13044 5001 1 109.50000 418.400000
5000 13044 5001 1 109.50000 418.400000
4232 13045 5002 1 109.50000 418.400000
4232 13045 5003 1 109.50000 418.400000
4232 13045 5004 1 109.50000 418.400000
5002 13045 5003 1 109.50000 418.400000
5002 13045 5004 1 109.50000 418.400000
5003 13045 5004 1 109.50000 418.400000
3383 13046 5005 1 109.50000 418.400000
3383 13046 5006 1 109.50000 418.400000
3383 13046 5007 1 109.50000 418.400000
5005 13046 5006 1 109.50000 418.400000
5005 13046 5007 1 109.50000 418.400000
5006 13046 5007 1 109.50000 418.400000
1849 13047 2202 1 109.50000 418.400000
1849 13047 5008 1 109.50000 418.400000
1849 13047 5009 1 109.50000 418.400000
2202 13047 5008 1 109.50000 418.400000
2202 13047 5009 1 109.50000 418.400000
5008 13047 5009 1 109.50000 418.400000
5010 13048 5013 1 109.50000 418.400000
5010 13048 5858 1 109.50000 418.400000
5010 13048 7761 1 109.50000 418.400000
5013 13048 5858 1 109.50000 418.400000
5013 13048 7761 1 109.50000 418.400000
5858 13048 7761 1 109.50000 418.400000
5014 13049 5015 1 109.50000 418.400000
5014 13049 5016 1 109.50000 418.400000
5014 13049 5017 1 109.50000 418.400000
5015 13049 5016 1 109.50000 418.400000
5015 13049 5017 1 109.50000 418.400000
5016 13049 5017 1 109.50000 418.400000
1642 13050 5018 1 109.50000 418.400000
1642 13050 5019 1 109.50000 418.400000
1642 13050 5020 1 109.50000 418.400000
5018 13050 5019 1 109.50000 418.400000
5018 13050 5020 1 109.50000 418.400000
5019 13050 5020 1 109.50000 418.400000
2123 13051 3310 1 109.50000 418.400000
2123 13051 5021 1 109.50000 418.400000
2123 13051 10156 1 109.50000 418.400000
3310 13051 5021 1 109.50000 418.400000
3310 13051 10156 1 109.50000 418.400000
5021 13051 10156 1 109.50000 418.400000
5022 13052 5023 1 109.50000 418.400000
5022 13052 5024 1 109.50000 418.400000
5022 13052 5025 1 109.50000 418.400000
5023 13052 5024 1 109.50000 418.400000
5023 13052 5025 1 109.50000 418.400000
5024 13052 5025 1 109.50000 418.400000
2883 13053 3713 1 109.50000 418.400000
2883 13053 5026 1 109.50000 418.400000
2883 13053 5027 1 109.50000 418.400000
3713 13053 5026 1 109.50000 418.400000
3713 13053 5027 1 109.50000 418.400000
5026 13053 5027 1 109.50000 418.400000
446 13054 4191 1 109.50000 418.400000
446 13054 5029 1 109.50000 418.400000
446 13054 6715 1 109.50000 418.400000
4191 13054 5029 1 109.50000 418.400000
4191 13054 6715 1 109.50000 418.400000
5029 13054 6715 1 109.50000 418.400000
1972 13055 5030 1 109.50000 418.400000
1972 13055 5031 1 109.50000 418.400000
1972 13055 11448 1 109.50000 418.400000
5030 13055 5031 1 109.50000 418.400000
5030 13055 11448 1 109.50000 418.400000
5031 13055 11448 1 109.50000 418.400000
5032 13056 5033 1 109.50000 418.400000
5032 13056 5034 1 109.50000 418.400000
5032 13056 5035 1 109.50000 418.400000
5033 13056 5034 1 109.50000 418.400000
5033 13056 5035 1 109.50000 418.400000
5034 13056 5035 1 109.50000 418.400000
431 13057 3753 1 109.50000 418.400000
431 13057 5036 1 109.50000 418.400000
431 13057 5037 1 109.50000 418.400000
3753 13057 5036 1 109.50000 418.400000
3753 13057 5037 1 109.50000 418.400000
5036 13057 5037 1 109.50000 418.400000
2014 13058 5038 1 109.50000 418.400000
2014 13058 11333 1 109.50000 418.400000
2014 13058 11437 1 109.50000 418.400000
5038 13058 11333 1 109.50000 418.400000
5038 13058 11437 1 109.50000 418.400000
11333 13058 11437 1 109.50000 418.400000
5039 13059 5040 1 109.50000 418.400000
5039 13059 5041 1 109.50000 418.400000
5039 13059 5042 1 109.50000 418.400000
5040 13059 5041 1 109.50000 418.400000
5040 13059 5042 1 109.50000 418.400000
5041 13059 5042 1 109.50000 418.400000
5043 13060 5044 1 109.50000 418.400000
5043 13060 11201 1 109.50000 418.400000
5043 13060 11556 1 109.50000 418.400000
5044 13060 11201 1 109.50000 418.400000
5044 13060 11556 1 109.50000 418.400000
11201 13060 11556 1 109.50000 418.400000
4571 13061 5045 1 109.50000 418.400000
4571 13061 5046 1 109.50000 418.400000
4571 13061 5047 1 109.50000 418.400000
5045 13061 5046 1 109.50000 418.400000
5045 13061 5047 1 109.50000 418.400000
5046 13061 5047 1 109.50000 418.400000
5048 13062 5050 1 109.50000 418.400000
5048 13062 5051 1 109.50000 418.400000
5048 13062 11090 1 109.50000 418.400000
5050 13062 5051 1 109.50000 418.400000
5050 13062 11090 1 109.50000 418.400000
5051 13062 11090 1 109.50000 418.400000
2601 13063 4876 1 109.50000 418.400000
2601 13063 5052 1 109.50000 418.400000
2601 13063 5053 1 109.50000 418.400000
4876 13063 5052 1 109.50000 418.400000
4876 13063 5053 1 109.50000 418.400000
5052 13063 5053 1 109.50000 418.400000
654 13064 5054 1 109.50000 418.400000
654 13064 5055 1 109.50000 418.400000
654 13064 11498 1 109.50000 418.400000
5054 13064 5055 1 109.50000 418.400000
5054 13064 11498 1 109.50000 418.400000
5055 13064 11498 1 109.50000 418.400000
4182 13065 5056 1 109.50000 418.400000
4182 13065 5057 1 109.50000 418.400000
4182 13065 5058 1 109.50000 418.400000
5056 13065 5057 1 109.50000 418.400000
5056 13065 5058 1 109.50000 418.400000
5057 13065 5058 1 109.50000 418.400000
1660 13066 4690 1 109.50000 418.400000
1660 13066 5060 1 109.50000 418.400000
1660 13066 5061 1 109.50000 418.400000
4690 13066 5060 1 109.50000 418.400000
4690 13066 5061 1 109.50000 418.400000
5060 13066 5061 1 109.50000 418.400000
1139 13067 5062 1 109.50000 418.400000
1139 13067 5063 1 109.50000 418.400000
1139 13067 5064 1 109.50000 418.400000
5062 13067 5063 1 109.50000 418.400000
5062 13067 5064 1 109.50000 418.400000
5063 13067 5064 1 109.50000 418.400000
647 13068 5065 1 109.50000 418.400000
647 13068 5066 1 109.50000 418.400000
647 13068 5067 1 109.50000 418.400000
5065 13068 5066 1 109.50000 418.400000
5065 13068 5067 1 109.50000 418.400000
5066 13068 5067 1 109.50000 418.400000
3535 13069 5068 1 109.50000 418.400000
3535 13069 5069 1 109.50000 418.400000
3535 13069 5070 1 109.50000 418.400000
5068 13069 5069 1 109.50000 418.400000
5068 13069 5070 1 109.50000 418.400000
5069 13069 5070 1 109.50000 418.400000
4545 13070 5071 1 109.50000 418.400000
4545 13070 5072 1 109.50000 418.400000
4545 13070 5073 1 109.50000 418.400000
5071 13070 5072 1 109.50000 418.400000
5071 13070 5073 1 109.50000 418.400000
5072 13070 5073 1 109.50000 418.400000
5074 13071 5075 1 109.50000 418.400000
5074 13071 5076 1 109.50000 418.400000
5074 13071 5077 1 109.50000 418.400000
5075 13071 5076 1 109.50000 418.400000
5075 13071 5077 1 109.50000 418.400000
5076 13071 5077 1 109.50000 418.400000
2142 13072 5078 1 109.50000 418.400000
2142 13072 5079 1 109.50000 418.400000
2142 13072 5080 1 109.50000 418.400000
5078 13072 5079 1 109.50000 418.400000
5078 13072 5080 1 109.50000 418.400000
5079 13072 5080 1 109.50000 418.400000
376 13073 2161 1 109.50000 418.400000
376 13073 5081 1 109.50000 418.400000
376 13073 5082 1 109.50000 418.400000
2161 13073 5081 1 109.50000 418.400000
2161 13073 5082 1 109.50000 418.400000
5081 13073 5082 1 109.50000 418.400000
35 13074 425 1 109.50000 418.400000
35 13074 5083 1 109.50000 418.400000
35 13074 5084 1 109.50000 418.400000
425 13074 5083 1 109.50000 418.400000
425 13074 5084 1 109.50000 418.400000
5083 13074 5084 1 109.50000 418.400000
4222 13075 5085 1 109.50000 418.400000
4222 13075 5086 1 109.50000 418.400000
4222 13075 5087 1 109.50000 418.400000
5085 13075 5086 1 109.50000 418.400000
5085 13075 5087 1 109.50000 418.400000
5086 13075 5087 1 109.50000 418.400000
5088 13076 5089 1 109.50000 418.400000
5088 13076 5090 1 109.50000 418.400000
5088 13076 5091 1 109.50000 418.400000
5089 13076 5090 1 109.50000 418.400000
5089 13076 5091 1 109.50000 418.400000
5090 13076 5091 1 109.50000 418.400000
5092 13077 5093 1 109.50000 418.400000
5092 13077 5094 1 109.50000 418.400000
5092 13077 5095 1 109.50000 418.400000
5093 13077 5094 1 109.50000 418.400000
5093 13077 5095 1 109.50000 418.400000
5094 13077 5095 1 109.50000 418.400000
5096 13078 5097 1 109.50000 418.400000
5096 13078 5098 1 109.50000 418.400000
5096 13078 5099 1 109.50000 418.400000
5097 13078 5098 1 109.50000 418.400000
5097 13078 5099 1 109.50000 418.400000
5098 13078 5099 1 109.50000 418.400000
5100 13079 5101 1 109.50000 418.400000
5100 13079 5102 1 109.50000 418.400000
5100 13079 5103 1 109.50000 418.400000
5101 13079 5102 1 109.50000 418.400000
5101 13079 5103 1 109.50000 418.400000
5102 13079 5103 1 109.50000 418.400000
2997 13080 4997 1 109.50000 418.400000
2997 13080 5106 1 109.50000 418.400000
2997 13080 5107 1 109.50000 418.400000
4997 13080 5106 1 109.50000 418.400000
4997 13080 5107 1 109.50000 418.400000
5106 13080 5107 1 109.50000 418.400000
5108 13081 5109 1 109.50000 418.400000
5108 13081 5110 1 109.50000 418.400000
5108 13081 5111 1 109.50000 418.400000
5109 13081 5110 1 109.50000 418.400000
5109 13081 5111 1 109.50000 418.400000
5110 13081 5111 1 109.50000 418.400000
5112 13082 5113 1 109.50000 418.400000
5112 13082 5114 1 109.50000 418.400000
5112 13082 6356 1 109.50000 418.400000
5113 13082 5114 1 109.50000 418.400000
5113 13082 6356 1 109.50000 418.400000
5114 13082 6356 1 109.50000 418.400000
2175 13083 4734 1 109.50000 418.400000
2175 13083 5116 1 109.50000 418.400000
2175 13083 5117 1 109.50000 418.400000
4734 13083 5116 1 109.50000 418.400000
4734 13083 5117 1 109.50000 418.400000
5116 13083 5117 1 109.50000 418.400000
5118 13084 5119 1 109.50000 418.400000
5118 13084 5120 1 109.50000 418.400000
5118 13084 5121 1 109.50000 418.400000
5119 13084 5120 1 109.50000 418.400000
5119 13084 5121 1 109.50000 418.400000
5120 13084 5121 1 109.50000 418.400000
360 13085 5122 1 109.50000 418.400000
360 13085 5123 1 109.50000 418.400000
360 13085 5124 1 109.50000 418.400000
5122 13085 5123 1 109.50000 418.400000
5122 13085 5124 1 109.50000 418.400000
5123 13085 5124 1 109.50000 418.400000
2806 13086 5123 1 109.50000 418.400000
2806 13086 5125 1 109.50000 418.400000
2806 13086 5126 1 109.50000 418.400000
5123 13086 5125 1 109.50000 418.400000
5123 13086 5126 1 109.50000 418.400000
5125 13086 5126 1 109.50000 418.400000
1653 13087 5127 1 109.50000 418.400000
1653 13087 5128 1 109.50000 418.400000
1653 13087 5129 1 109.50000 418.400000
5127 13087 5128 1 109.50000 418.400000
5127 13087 5129 1 109.50000 418.400000
5128 13087 5129 1 109.50000 418.400000
5130 13088 5131 1 109.50000 418.400000
5130 13088 5132 1 109.50000 418.400000
5130 13088 11608 1 109.50000 418.400000
5131 13088 5132 1 109.50000 418.400000
5131 13088 11608 1 109.50000 418.400000
5132 13088 11608 1 109.50000 418.400000
2109 13089 4061 1 109.50000 418.400000
2109 13089 5133 1 109.50000 418.400000
2109 13089 5134 1 109.50000 418.400000
4061 13089 5133 1 109.50000 418.400000
4061 13089 5134 1 109.50000 418.400000
5133 13089 5134 1 109.50000 418.400000
5135 13090 5136 1 109.50000 418.400000
5135 13090 9621 1 109.50000 418.400000
5135 13090 11172 1 109.50000 418.400000
5136 13090 9621 1 109.50000 418.400000
5136 13090 11172 1 109.50000 418.400000
9621 13090 11172 1 109.50000 418.400000
5137 13091 5138 1 109.50000 418.400000
5137 13091 5139 1 109.50000 418.400000
5137 13091 5140 1 109.50000 418.400000
5138 13091 5139 1 109.50000 418.400000
5138 13091 5140 1 109.50000 418.400000
5139 13091 5140 1 109.50000 418.400000
5144 13092 5145 1 109.50000 418.400000
5144 13092 5146 1 109.50000 418.400000
5144 13092 5147 1 109.50000 418.400000
5145 13092 5146 1 109.50000 418.400000
5145 13092 5147 1 109.50000 418.400000
5146 13092 5147 1 109.50000 418.400000
1770 13093 5148 1 109.50000 418.400000
1770 13093 5149 1 109.50000 418.400000
1770 13093 5150 1 109.50000 418.400000
5148 13093 5149 1 109.50000 418.400000
5148 13093 5150 1 109.50000 418.400000
5149 13093 5150 1 109.50000 418.400000
3180 13094 5151 1 109.50000 418.400000
3180 13094 5152 1 109.50000 418.400000
3180 13094 5153 1 109.50000 418.400000
5151 13094 5152 1 109.50000 418.400000
5151 13094 5153 1 109.50000 418.400000
5152 13094 5153 1 109.50000 418.400000
700 13095 5154 1 109.50000 418.400000
700 13095 5155 1 109.50000 418.400000
700 13095 5156 1 109.50000 418.400000
5154 13095 5155 1 109.50000 418.400000
5154 13095 5156 1 109.50000 418.400000
5155 13095 5156 1 109.50000 418.400000
5157 13096 5158 1 109.50000 418.400000
5157 13096 5159 1 109.50000 418.400000
5157 13096 5160 1 109.50000 418.400000
5158 13096 5159 1 109.50000 418.400000
5158 13096 5160 1 109.50000 418.400000
5159 13096 5160 1 109.50000 418.400000
293 13097 2937 1 109.50000 418.400000
293 13097 5162 1 109.50000 418.400000
293 13097 9999 1 109.50000 418.400000
2937 13097 5162 1 109.50000 418.400000
2937 13097 9999 1 109.50000 418.400000
5162 13097 9999 1 109.50000 418.400000
1864 13098 1987 1 109.50000 418.400000
1864 13098 11164 1 109.50000 418.400000
1864 13098 11405 1 109.50000 418.400000
1987 13098 11164 1 109.50000 418.400000
1987 13098 11405 1 109.50000 418.400000
11164 13098 11405 1 109.50000 418.400000
3686 13099 5163 1 109.50000 418.400000
3686 13099 5164 1 109.50000 418.400000
3686 13099 11138 1 109.50000 418.400000
5163 13099 5164 1 109.50000 418.400000
5163 13099 11138 1 109.50000 418.400000
5164 13099 11138 1 109.50000 418.400000
342 13100 4193 1 109.50000 418.400000
342 13100 5165 1 109.50000 418.400000
342 13100 5166 1 109.50000 418.400000
4193 13100 5165 1 109.50000 418.400000
4193 13100 5166 1 109.50000 418.400000
5165 13100 5166 1 109.50000 418.400000
1978 13101 2985 1 109.50000 418.400000
1978 13101 5167 1 109.50000 418.400000
1978 13101 5168 1 109.50000 418.400000
2985 13101 5167 1 109.50000 418.400000
2985 13101 5168 1 109.50000 418.400000
5167 13101 5168 1 109.50000 418.400000
1205 13102 3777 1 109.50000 418.400000
1205 13102 5169 1 109.50000 418.400000
1205 13102 5170 1 109.50000 418.400000
3777 13102 5169 1 109.50000 418.400000
3777 13102 5170 1 109.50000 418.400000
5169 13102 5170 1 109.50000 418.400000
2994 13103 3386 1 109.50000 418.400000
2994 13103 3688 1 109.50000 418.400000
2994 13103 5171 1 109.50000 418.400000
3386 13103 3688 1 109.50000 418.400000
3386 13103 5171 1 109.50000 418.400000
3688 13103 5171 1 109.50000 418.400000
2443 13104 5172 1 109.50000 418.400000
2443 13104 11193 1 109.50000 418.400000
2443 13104 11486 1 109.50000 418.400000
5172 13104 11193 1 109.50000 418.400000
5172 13104 11486 1 109.50000 418.400000
11193 13104 11486 1 109.50000 418.400000
5175 13105 5176 1 109.50000 418.400000
5175 13105 5177 1 109.50000 418.400000
5175 13105 5178 1 109.50000 418.400000
5176 13105 5177 1 109.50000 418.400000
5176 13105 5178 1 109.50000 418.400000
5177 13105 5178 1 109.50000 418.400000
3095 13106 5179 1 109.50000 418.400000
3095 13106 5180 1 109.50000 418.400000
3095 13106 5181 1 109.50000 418.400000
5179 13106 5180 1 109.50000 418.400000
5179 13106 5181 1 109.50000 418.400000
5180 13106 5181 1 109.50000 418.400000
2852 13107 5182 1 109.50000 418.400000
2852 13107 5183 1 109.50000 418.400000
2852 13107 5184 1 109.50000 418.400000
5182 13107 5183 1 109.50000 418.400000
5182 13107 5184 1 109.50000 418.400000
5183 13107 5184 1 109.50000 418.400000
5185 13108 5186 1 109.50000 418.400000
5185 13108 5187 1 109.50000 418.400000
5185 13108 5745 1 109.50000 418.400000
5186 13108 5187 1 109.50000 418.400000
5186 13108 5745 1 109.50000 418.400000
5187 13108 5745 1 109.50000 418.400000
2188 13109 3950 1 109.50000 418.400000
2188 13109 5008 1 109.50000 418.400000
2188 13109 5190 1 109.50000 418.400000
3950 13109 5008 1 109.50000 418.400000
3950 13109 5190 1 109.50000 418.400000
5008 13109 5190 1 109.50000 418.400000
4022 13110 5191 1 109.50000 418.400000
4022 13110 5192 1 109.50000 418.400000
4022 13110 5193 1 109.50000 418.400000
5191 13110 5192 1 109.50000 418.400000
5191 13110 5193 1 109.50000 418.400000
5192 13110 5193 1 109.50000 418.400000
2592 13111 5194 1 109.50000 418.400000
2592 13111 5195 1 109.50000 418.400000
2592 13111 5196 1 109.50000 418.400000
5194 13111 5195 1 109.50000 418.400000
5194 13111 5196 1 109.50000 418.400000
5195 13111 5196 1 109.50000 418.400000
4821 13112 5197 1 109.50000 418.400000
4821 13112 5198 1 109.50000 418.400000
4821 13112 5199 1 109.50000 418.400000
5197 13112 5198 1 109.50000 418.400000
5197 13112 5199 1 109.50000 418.400000
5198 13112 5199 1 109.50000 418.400000
987 13113 5200 1 109.50000 418.400000
987 13113 5201 1 109.50000 418.400000
987 13113 5202 1 109.50000 418.400000
5200 13113 5201 1 109.50000 418.400000
5200 13113 5202 1 109.50000 418.400000
5201 13113 5202 1 109.50000 418.400000
5203 13114 5204 1 109.50000 418.400000
5203 13114 5205 1 109.50000 418.400000
5203 13114 6479 1 109.50000 418.400000
5204 13114 5205 1 109.50000 418.400000
5204 13114 6479 1 109.50000 418.400000
5205 13114 6479 1 109.50000 418.400000
5206 13115 5208 1 109.50000 418.400000
5206 13115 5209 1 109.50000 418.400000
5206 13115 5955 1 109.50000 418.400000
5208 13115 5209 1 109.50000 418.400000
5208 13115 5955 1 109.50000 418.400000
5209 13115 5955 1 109.50000 418.400000
5210 13116 5211 1 109.50000 418.400000
5210 13116 5212 1 109.50000 418.400000
5210 13116 5213 1 109.50000 418.400000
5211 13116 5212 1 109.50000 418.400000
5211 13116 5213 1 109.50000 418.400000
5212 13116 5213 1 109.50000 418.400000
2023 13117 5214 1 109.50000 418.400000
2023 13117 5215 1 109.50000 418.400000
2023 13117 5216 1 109.50000 418.400000
5214 13117 5215 1 109.50000 418.400000
5214 13117 5216 1 109.50000 418.400000
5215 13117 5216 1 109.50000 418.400000
5217 13118 5218 1 109.50000 418.400000
5217 13118 5219 1 109.50000 418.400000
5217 13118 5220 1 109.50000 418.400000
5218 13118 5219 1 109.50000 418.400000
5218 13118 5220 1 109.50000 418.400000
5219 13118 5220 1 109.50000 418.400000
1643 13119 5134 1 109.50000 418.400000
1643 13119 5221 1 109.50000 418.400000
1643 13119 11213 1 109.50000 418.400000
5134 13119 5221 1 109.50000 418.400000
5134 13119 11213 1 109.50000 418.400000
5221 13119 11213 1 109.50000 418.400000
1204 13120 1782 1 109.50000 418.400000
1204 13120 3778 1 109.50000 418.400000
1204 13120 5222 1 109.50000 418.400000
1782 13120 3778 1 109.50000 418.400000
1782 13120 5222 1 109.50000 418.400000
3778 13120 5222 1 109.50000 418.400000
5224 13121 5225 1 109.50000 418.400000
5224 13121 5226 1 109.50000 418.400000
5224 13121 8421 1 109.50000 418.400000
5225 13121 5226 1 109.50000 418.400000
5225 13121 8421 1 109.50000 418.400000
5226 13121 8421 1 109.50000 418.400000
5227 13122 5228 1 109.50000 418.400000
5227 13122 5229 1 109.50000 418.400000
5227 13122 5230 1 109.50000 418.400000
5228 13122 5229 1 109.50000 418.400000
5228 13122 5230 1 109.50000 418.400000
5229 13122 5230 1 109.50000 418.400000
317 13123 5232 1 109.50000 418.400000
317 13123 5233 1 109.50000 418.400000
317 13123 10628 1 109.50000 418.400000
5232 13123 5233 1 109.50000 418.400000
5232 13123 10628 1 109.50000 418.400000
5233 13123 10628 1 109.50000 418.400000
1288 13124 5234 1 109.50000 418.400000
1288 13124 5235 1 109.50000 418.400000
1288 13124 11460 1 109.50000 418.400000
5234 13124 5235 1 109.50000 418.400000
5234 13124 11460 1 109.50000 418.400000
5235 13124 11460 1 109.50000 418.400000
1258 13125 3717 1 109.50000 418.400000
1258 13125 5236 1 109.50000 418.400000
1258 13125 5237 1 109.50000 418.400000
3717 13125 5236 1 109.50000 418.400000
3717 13125 5237 1 109.50000 418.400000
5236 13125 5237 1 109.50000 418.400000
5238 13126 5240 1 109.50000 418.400000
5238 13126 5241 1 109.50000 418.400000
5238 13126 9128 1 109.50000 418.400000
5240 13126 5241 1 109.50000 418.400000
5240 13126 9128 1 109.50000 418.400000
5241 13126 9128 1 109.50000 418.400000
5242 13127 5243 1 109.50000 418.400000
5242 13127 5244 1 109.50000 418.400000
5242 13127 5245 1 109.50000 418.400000
5243 13127 5244 1 109.50000 418.400000
5243 13127 5245 1 109.50000 418.400000
5244 13127 5245 1 109.50000 418.400000
1497 13128 5246 1 109.50000 418.400000
1497 13128 5247 1 109.50000 418.400000
1497 13128 5248 1 109.50000 418.400000
5246 13128 5247 1 109.50000 418.400000
5246 13128 5248 1 109.50000 418.400000
5247 13128 5248 1 109.50000 418.400000
5249 13129 5250 1 109.50000 418.400000
5249 13129 5251 1 109.50000 418.400000
5249 13129 11168 1 109.50000 418.400000
5250 13129 5251 1 109.50000 418.400000
5250 13129 11168 1 109.50000 418.400000
5251 13129 11168 1 109.50000 418.400000
5253 13130 5254 1 109.50000 418.400000
5253 13130 5255 1 109.50000 418.400000
5253 13130 6222 1 109.50000 418.400000
5254 13130 5255 1 109.50000 418.400000
5254 13130 6222 1 109.50000 418.400000
5255 13130 6222 1 109.50000 418.400000
3632 13131 4521 1 109.50000 418.400000
3632 13131 5258 1 109.50000 418.400000
3632 13131 5259 1 109.50000 418.400000
4521 13131 5258 1 109.50000 418.400000
4521 13131 5259 1 109.50000 418.400000
5258 13131 5259 1 109.50000 418.400000
561 13132 5262 1 109.50000 418.400000
561 13132 5263 1 109.50000 418.400000
561 13132 5264 1 109.50000 418.400000
5262 13132 5263 1 109.50000 418.400000
5262 13132 5264 1 109.50000 418.400000
5263 13132 5264 1 109.50000 418.400000
1242 13133 5265 1 109.50000 418.400000
1242 13133 5266 1 109.50000 418.400000
1242 13133 9329 1 109.50000 418.400000
5265 13133 5266 1 109.50000 418.400000
5265 13133 9329 1 109.50000 418.400000
5266 13133 9329 1 109.50000 418.400000
5267 13134 5268 1 109.50000 418.400000
5267 13134 5269 1 109.50000 418.400000
5267 13134 5270 1 109.50000 418.400000
5268 13134 5269 1 109.50000 418.400000
5268 13134 5270 1 109.50000 418.400000
5269 13134 5270 1 109.50000 418.400000
1309 13135 5271 1 109.50000 418.400000
1309 13135 5272 1 109.50000 418.400000
1309 13135 5273 1 109.50000 418.400000
5271 13135 5272 1 109.50000 418.400000
5271 13135 5273 1 109.50000 418.400000
5272 13135 5273 1 109.50000 418.400000
848 13136 5274 1 109.50000 418.400000
848 13136 5275 1 109.50000 418.400000
848 13136 5276 1 109.50000 418.400000
5274 13136 5275 1 109.50000 418.400000
5274 13136 5276 1 109.50000 418.400000
5275 13136 5276 1 109.50000 418.400000
5277 13137 5278 1 109.50000 418.400000
5277 13137 5279 1 109.50000 418.400000
5277 13137 5280 1 109.50000 418.400000
5278 13137 5279 1 109.50000 418.400000
5278 13137 5280 1 109.50000 418.400000
5279 13137 5280 1 109.50000 418.400000
5281 13138 5282 1 109.50000 418.400000
5281 13138 5283 1 109.50000 418.400000
5281 13138 5284 1 109.50000 418.400000
5282 13138 5283 1 109.50000 418.400000
5282 13138 5284 1 109.50000 418.400000
5283 13138 5284 1 109.50000 418.400000
432 13139 674 1 109.50000 418.400000
432 13139 5285 1 109.50000 418.400000
432 13139 5286 1 109.50000 418.400000
674 13139 5285 1 109.50000 418.400000
674 13139 5286 1 109.50000 418.400000
5285 13139 5286 1 109.50000 418.400000
5171 13140 5287 1 109.50000 418.400000
5171 13140 5288 1 109.50000 418.400000
5171 13140 11579 1 109.50000 418.400000
5287 13140 5288 1 109.50000 418.400000
5287 13140 11579 1 109.50000 418.400000
5288 13140 11579 1 109.50000 418.400000
2789 13141 5289 1 109.50000 418.400000
2789 13141 5290 1 109.50000 418.400000
2789 13141 5291 1 109.50000 418.400000
5289 13141 5290 1 109.50000 418.400000
5289 13141 5291 1 109.50000 418.400000
5290 13141 5291 1 109.50000 418.400000
861 13142 5292 1 109.50000 418.400000
861 13142 5293 1 109.50000 418.400000
861 13142 5294 1 109.50000 418.400000
5292 13142 5293 1 109.50000 418.400000
5292 13142 5294 1 109.50000 418.400000
5293 13142 5294 1 109.50000 418.400000
25 13143 5295 1 109.50000 418.400000
25 13143 5296 1 109.50000 418.400000
25 13143 5297 1 109.50000 418.400000
5295 13143 5296 1 109.50000 418.400000
5295 13143 5297 1 109.50000 418.400000
5296 13143 5297 1 109.50000 418.400000
336 13144 5300 1 109.50000 418.400000
336 13144 5301 1 109.50000 418.400000
336 13144 5302 1 109.50000 418.400000
5300 13144 5301 1 109.50000 418.400000
5300 13144 5302 1 109.50000 418.400000
5301 13144 5302 1 109.50000 418.400000
1174 13145 1666 1 109.50000 418.400000
1174 13145 5303 1 109.50000 418.400000
1174 13145 5304 1 109.50000 418.400000
1666 13145 5303 1 109.50000 418.400000
1666 13145 5304 1 109.50000 418.400000
5303 13145 5304 1 109.50000 418.400000
804 13146 5305 1 109.50000 418.400000
804 13146 5306 1 109.50000 418.400000
804 13146 5307 1 109.50000 418.400000
5305 13146 5306 1 109.50000 418.400000
5305 13146 5307 1 109.50000 418.400000
5306 13146 5307 1 109.50000 418.400000
5308 13147 5309 1 109.50000 418.400000
5308 13147 5310 1 109.50000 418.400000
5308 13147 5311 1 109.50000 418.400000
5309 13147 5310 1 109.50000 418.400000
5309 13147 5311 1 109.50000 418.400000
5310 13147 5311 1 109.50000 418.400000
608 13148 1963 1 109.50000 418.400000
608 13148 4210 1 109.50000 418.400000
608 13148 5312 1 109.50000 418.400000
1963 13148 4210 1 109.50000 418.400000
1963 13148 5312 1 109.50000 418.400000
4210 13148 5312 1 109.50000 418.400000
5313 13149 5314 1 109.50000 418.400000
5313 13149 5315 1 109.50000 418.400000
5313 13149 5316 1 109.50000 418.400000
5314 13149 5315 1 109.50000 418.400000
5314 13149 5316 1 109.50000 418.400000
5315 13149 5316 1 109.50000 418.400000
5317 13150 5318 1 109.50000 418.400000
5317 13150 5319 1 109.50000 418.400000
5317 13150 5320 1 109.50000 418.400000
5318 13150 5319 1 109.50000 418.400000
5318 13150 5320 1 109.50000 418.400000
5319 13150 5320 1 109.50000 418.400000
1196 13151 5321 1 109.50000 418.400000
1196 13151 5322 1 109.50000 418.400000
1196 13151 5323 1 109.50000 418.400000
5321 13151 5322 1 109.50000 418.400000
5321 13151 5323 1 109.50000 418.400000
5322 13151 5323 1 109.50000 418.400000
5324 13152 5325 1 109.50000 418.400000
5324 13152 11274 1 109.50000 418.400000
5324 13152 11352 1 109.50000 418.400000
5325 13152 11274 1 109.50000 418.400000
5325 13152 11352 1 109.50000 418.400000
11274 13152 11352 1 109.50000 418.400000
2764 13153 5326 1 109.50000 418.400000
2764 13153 5327 1 109.50000 418.400000
2764 13153 5328 1 109.50000 418.400000
5326 13153 5327 1 109.50000 418.400000
5326 13153 5328 1 109.50000 418.400000
5327 13153 5328 1 109.50000 418.400000
1792 13154 4654 1 109.50000 418.400000
1792 13154 5158 1 109.50000 418.400000
1792 13154 5329 1 109.50000 418.400000
4654 13154 5158 1 109.50000 418.400000
4654 13154 5329 1 109.50000 418.400000
5158 13154 5329 1 109.50000 418.400000
1317 13155 5330 1 109.50000 418.400000
1317 13155 5331 1 109.50000 418.400000
1317 13155 5332 1 109.50000 418.400000
5330 13155 5331 1 109.50000 418.400000
5330 13155 5332 1 109.50000 418.400000
5331 13155 5332 1 109.50000 418.400000
3331 13156 4327 1 109.50000 418.400000
3331 13156 5333 1 109.50000 418.400000
3331 13156 5334 1 109.50000 418.400000
4327 13156 5333 1 109.50000 418.400000
4327 13156 5334 1 109.50000 418.400000
5333 13156 5334 1 109.50000 418.400000
5336 13157 9892 1 109.50000 418.400000
5336 13157 10576 1 109.50000 418.400000
5336 13157 10681 1 109.50000 418.400000
9892 13157 10576 1 109.50000 418.400000
9892 13157 10681 1 109.50000 418.400000
10576 13157 10681 1 109.50000 418.400000
5308 13158 5339 1 109.50000 418.400000
5308 13158 5340 1 109.50000 418.400000
5308 13158 5341 1 109.50000 418.400000
5339 13158 5340 1 109.50000 418.400000
5339 13158 5341 1 109.50000 418.400000
5340 13158 5341 1 109.50000 418.400000
268 13159 1769 1 109.50000 418.400000
268 13159 5342 1 109.50000 418.400000
268 13159 5343 1 109.50000 418.400000
1769 13159 5342 1 109.50000 418.400000
1769 13159 5343 1 109.50000 418.400000
5342 13159 5343 1 109.50000 418.400000
5019 13160 5344 1 109.50000 418.400000
5019 13160 11310 1 109.50000 418.400000
5019 13160 11604 1 109.50000 418.400000
5344 13160 11310 1 109.50000 418.400000
5344 13160 11604 1 109.50000 418.400000
11310 13160 11604 1 109.50000 418.400000
454 13161 5345 1 109.50000 418.400000
454 13161 5346 1 109.50000 418.400000
454 13161 5347 1 109.50000 418.400000
5345 13161 5346 1 109.50000 418.400000
5345 13161 5347 1 109.50000 418.400000
5346 13161 5347 1 109.50000 418.400000
3794 13162 5348 1 109.50000 418.400000
3794 13162 5349 1 109.50000 418.400000
3794 13162 5350 1 109.50000 418.400000
5348 13162 5349 1 109.50000 418.400000
5348 13162 5350 1 109.50000 418.400000
5349 13162 5350 1 109.50000 418.400000
2025 13163 5351 1 109.50000 418.400000
2025 13163 6810 1 109.50000 418.400000
2025 13163 11518 1 109.50000 418.400000
5351 13163 6810 1 109.50000 418.400000
5351 13163 11518 1 109.50000 418.400000
6810 13163 11518 1 109.50000 418.400000
940 13164 5352 1 109.50000 418.400000
940 13164 11407 1 109.50000 418.400000
940 13164 11500 1 109.50000 418.400000
5352 13164 11407 1 109.50000 418.400000
5352 13164 11500 1 109.50000 418.400000
11407 13164 11500 1 109.50000 418.400000
3034 13165 4956 1 109.50000 418.400000
3034 13165 5353 1 109.50000 418.400000
3034 13165 11489 1 109.50000 418.400000
4956 13165 5353 1 109.50000 418.400000
4956 13165 11489 1 109.50000 418.400000
5353 13165 11489 1 109.50000 418.400000
4901 13166 5155 1 109.50000 418.400000
4901 13166 5354 1 109.50000 418.400000
4901 13166 5355 1 109.50000 418.400000
5155 13166 5354 1 109.50000 418.400000
5155 13166 5355 1 109.50000 418.400000
5354 13166 5355 1 109.50000 418.400000
5357 13167 5358 1 109.50000 418.400000
5357 13167 5359 1 109.50000 418.400000
5357 13167 5360 1 109.50000 418.400000
5358 13167 5359 1 109.50000 418.400000
5358 13167 5360 1 109.50000 418.400000
5359 13167 5360 1 109.50000 418.400000
2087 13168 5361 1 109.50000 418.400000
2087 13168 5362 1 109.50000 418.400000
2087 13168 5363 1 109.50000 418.400000
5361 13168 5362 1 109.50000 418.400000
5361 13168 5363 1 109.50000 418.400000
5362 13168 5363 1 109.50000 418.400000
130 13169 1376 1 109.50000 418.400000
130 13169 5364 1 109.50000 418.400000
130 13169 5365 1 109.50000 418.400000
1376 13169 5364 1 109.50000 418.400000
1376 13169 5365 1 109.50000 418.400000
5364 13169 5365 1 109.50000 418.400000
4024 13170 5366 1 109.50000 418.400000
4024 13170 5367 1 109.50000 418.400000
4024 13170 5368 1 109.50000 418.400000
5366 13170 5367 1 109.50000 418.400000
5366 13170 5368 1 109.50000 418.400000
5367 13170 5368 1 109.50000 418.400000
3416 13171 5369 1 109.50000 418.400000
3416 13171 5370 1 109.50000 418.400000
3416 13171 5371 1 109.50000 418.400000
5369 13171 5370 1 109.50000 418.400000
5369 13171 5371 1 109.50000 418.400000
5370 13171 5371 1 109.50000 418.400000
1613 13172 2514 1 109.50000 418.400000
1613 13172 3459 1 109.50000 418.400000
1613 13172 5372 1 109.50000 418.400000
2514 13172 3459 1 109.50000 418.400000
2514 13172 5372 1 109.50000 418.400000
3459 13172 5372 1 109.50000 418.400000
5373 13173 5374 1 109.50000 418.400000
5373 13173 11374 1 109.50000 418.400000
5373 13173 11440 1 109.50000 418.400000
5374 13173 11374 1 109.50000 418.400000
5374 13173 11440 1 109.50000 418.400000
11374 13173 11440 1 109.50000 418.400000
5377 13174 5378 1 109.50000 418.400000
5377 13174 5419 1 109.50000 418.400000
5377 13174 7144 1 109.50000 418.400000
5378 13174 5419 1 109.50000 418.400000
5378 13174 7144 1 109.50000 418.400000
5419 13174 7144 1 109.50000 418.400000
2851 13175 4924 1 109.50000 418.400000
2851 13175 5379 1 109.50000 418.400000
2851 13175 5380 1 109.50000 418.400000
4924 13175 5379 1 109.50000 418.400000
4924 13175 5380 1 109.50000 418.400000
5379 13175 5380 1 109.50000 418.400000
858 13176 871 1 109.50000 418.400000
858 13176 966 1 109.50000 418.400000
858 13176 5381 1 109.50000 418.400000
871 13176 966 1 109.50000 418.400000
871 13176 5381 1 109.50000 418.400000
966 13176 5381 1 109.50000 418.400000
1147 13177 5382 1 109.50000 418.400000
1147 13177 5383 1 109.50000 418.400000
1147 13177 5384 1 109.50000 418.400000
5382 13177 5383 1 109.50000 418.400000
5382 13177 5384 1 109.50000 418.400000
5383 13177 5384 1 109.50000 418.400000
5181 13178 5385 1 109.50000 418.400000
5181 13178 5386 1 109.50000 418.400000
5181 13178 5387 1 109.50000 418.400000
5385 13178 5386 1 109.50000 418.400000
5385 13178 5387 1 109.50000 418.400000
5386 13178 5387 1 109.50000 418.400000
3806 13179 5388 1 109.50000 418.400000
3806 13179 5389 1 109.50000 418.400000
3806 13179 5390 1 109.50000 418.400000
5388 13179 5389 1 109.50000 418.400000
5388 13179 5390 1 109.50000 418.400000
5389 13179 5390 1 109.50000 418.400000
3301 13180 5391 1 109.50000 418.400000
3301 13180 5392 1 109.50000 418.400000
3301 13180 11170 1 109.50000 418.400000
5391 13180 5392 1 109.50000 418.400000
5391 13180 11170 1 109.50000 418.400000
5392 13180 11170 1 109.50000 418.400000
5395 13181 5396 1 109.50000 418.400000
5395 13181 5397 1 109.50000 418.400000
5395 13181 5398 1 109.50000 418.400000
5396 13181 5397 1 109.50000 418.400000
5396 13181 5398 1 109.50000 418.400000
5397 13181 5398 1 109.50000 418.400000
5399 13182 5400 1 109.50000 418.400000
5399 13182 5401 1 109.50000 418.400000
5399 13182 5402 1 109.50000 418.400000
5400 13182 5401 1 109.50000 418.400000
5400 13182 5402 1 109.50000 418.400000
5401 13182 5402 1 109.50000 418.400000
5276 13183 5403 1 109.50000 418.400000
5276 13183 5404 1 109.50000 418.400000
5276 13183 5405 1 109.50000 418.400000
5403 13183 5404 1 109.50000 418.400000
5403 13183 5405 1 109.50000 418.400000
5404 13183 5405 1 109.50000 418.400000
4678 13184 5406 1 109.50000 418.400000
4678 13184 5407 1 109.50000 418.400000
4678 13184 5408 1 109.50000 418.400000
5406 13184 5407 1 109.50000 418.400000
5406 13184 5408 1 109.50000 418.400000
5407 13184 5408 1 109.50000 418.400000
315 13185 1617 1 109.50000 418.400000
315 13185 5409 1 109.50000 418.400000
315 13185 5410 1 109.50000 418.400000
1617 13185 5409 1 109.50000 418.400000
1617 13185 5410 1 109.50000 418.400000
5409 13185 5410 1 109.50000 418.400000
2695 13186 5124 1 109.50000 418.400000
2695 13186 5411 1 109.50000 418.400000
2695 13186 5412 1 109.50000 418.400000
5124 13186 5411 1 109.50000 418.400000
5124 13186 5412 1 109.50000 418.400000
5411 13186 5412 1 109.50000 418.400000
2234 13187 5413 1 109.50000 418.400000
2234 13187 5414 1 109.50000 418.400000
2234 13187 11559 1 109.50000 418.400000
5413 13187 5414 1 109.50000 418.400000
5413 13187 11559 1 109.50000 418.400000
5414 13187 11559 1 109.50000 418.400000
5415 13188 5416 1 109.50000 418.400000
5415 13188 10084 1 109.50000 418.400000
5415 13188 11577 1 109.50000 418.400000
5416 13188 10084 1 109.50000 418.400000
5416 13188 11577 1 109.50000 418.400000
10084 13188 11577 1 109.50000 418.400000
5370 13189 5417 1 109.50000 418.400000
5370 13189 5418 1 109.50000 418.400000
5370 13189 5419 1 109.50000 418.400000
5417 13189 5418 1 109.50000 418.400000
5417 13189 5419 1 109.50000 418.400000
5418 13189 5419 1 109.50000 418.400000
5420 13190 5421 1 109.50000 418.400000
5420 13190 5422 1 109.50000 418.400000
5420 13190 5423 1 109.50000 418.400000
5421 13190 5422 1 109.50000 418.400000
5421 13190 5423 1 109.50000 418.400000
5422 13190 5423 1 109.50000 418.400000
2388 13191 5424 1 109.50000 418.400000
2388 13191 5425 1 109.50000 418.400000
2388 13191 5426 1 109.50000 418.400000
5424 13191 5425 1 109.50000 418.400000
5424 13191 5426 1 109.50000 418.400000
5425 13191 5426 1 109.50000 418.400000
4427 13192 5427 1 109.50000 418.400000
4427 13192 5428 1 109.50000 418.400000
4427 13192 11593 1 109.50000 418.400000
5427 13192 5428 1 109.50000 418.400000
5427 13192 11593 1 109.50000 418.400000
5428 13192 11593 1 109.50000 418.400000
5429 13193 5430 1 109.50000 418.400000
5429 13193 7418 1 109.50000 418.400000
5429 13193 9923 1 109.50000 418.400000
5430 13193 7418 1 109.50000 418.400000
5430 13193 9923 1 109.50000 418.400000
7418 13193 9923 1 109.50000 418.400000
3245 13194 5431 1 109.50000 418.400000
3245 13194 5432 1 109.50000 418.400000
3245 13194 5433 1 109.50000 418.400000
5431 13194 5432 1 109.50000 418.400000
5431 13194 5433 1 109.50000 418.400000
5432 13194 5433 1 109.50000 418.400000
3037 13195 5434 1 109.50000 418.400000
3037 13195 5435 1 109.50000 418.400000
3037 13195 5436 1 109.50000 418.400000
5434 13195 5435 1 109.50000 418.400000
5434 13195 5436 1 109.50000 418.400000
5435 13195 5436 1 109.50000 418.400000
5437 13196 5438 1 109.50000 418.400000
5437 13196 5439 1 109.50000 418.400000
5437 13196 9159 1 109.50000 418.400000
5438 13196 5439 1 109.50000 418.400000
5438 13196 9159 1 109.50000 418.400000
5439 13196 9159 1 109.50000 418.400000
1129 13197 5441 1 109.50000 418.400000
1129 13197 5442 1 109.50000 418.400000
1129 13197 5443 1 109.50000 418.400000
5441 13197 5442 1 109.50000 418.400000
5441 13197 5443 1 109.50000 418.400000
5442 13197 5443 1 109.50000 418.400000
348 13198 5444 1 109.50000 418.400000
348 13198 11348 1 109.50000 418.400000
348 13198 11532 1 109.50000 418.400000
5444 13198 11348 1 109.50000 418.400000
5444 13198 11532 1 109.50000 418.400000
11348 13198 11532 1 109.50000 418.400000
2527 13199 5446 1 109.50000 418.400000
2527 13199 5447 1 109.50000 418.400000
2527 13199 8593 1 109.50000 418.400000
5446 13199 5447 1 109.50000 418.400000
5446 13199 8593 1 109.50000 418.400000
5447 13199 8593 1 109.50000 418.400000
5318 13200 5448 1 109.50000 418.400000
5318 13200 5449 1 109.50000 418.400000
5318 13200 9465 1 109.50000 418.400000
5448 13200 5449 1 109.50000 418.400000
5448 13200 9465 1 109.50000 418.400000
5449 13200 9465 1 109.50000 418.400000
1720 13201 1721 1 109.50000 418.400000
1720 13201 1722 1 109.50000 418.400000
1720 13201 5450 1 109.50000 418.400000
1721 13201 1722 1 109.50000 418.400000
1721 13201 5450 1 109.50000 418.400000
1722 13201 5450 1 109.50000 418.400000
484 13202 5453 1 109.50000 418.400000
484 13202 5454 1 109.50000 418.400000
484 13202 5455 1 109.50000 418.400000
5453 13202 5454 1 109.50000 418.400000
5453 13202 5455 1 109.50000 418.400000
5454 13202 5455 1 109.50000 418.400000
5456 13203 5457 1 109.50000 418.400000
5456 13203 5458 1 109.50000 418.400000
5456 13203 5459 1 109.50000 418.400000
5457 13203 5458 1 109.50000 418.400000
5457 13203 5459 1 109.50000 418.400000
5458 13203 5459 1 109.50000 418.400000
5460 13204 5461 1 109.50000 418.400000
5460 13204 5462 1 109.50000 418.400000
5460 13204 5463 1 109.50000 418.400000
5461 13204 5462 1 109.50000 418.400000
5461 13204 5463 1 109.50000 418.400000
5462 13204 5463 1 109.50000 418.400000
246 13205 682 1 109.50000 418.400000
246 13205 3393 1 109.50000 418.400000
246 13205 3439 1 109.50000 418.400000
682 13205 3393 1 109.50000 418.400000
682 13205 3439 1 109.50000 418.400000
3393 13205 3439 1 109.50000 418.400000
4891 13206 5404 1 109.50000 418.400000
4891 13206 5465 1 109.50000 418.400000
4891 13206 5466 1 109.50000 418.400000
5404 13206 5465 1 109.50000 418.400000
5404 13206 5466 1 109.50000 418.400000
5465 13206 5466 1 109.50000 418.400000
5467 13207 5468 1 109.50000 418.400000
5467 13207 5469 1 109.50000 418.400000
5467 13207 11211 1 109.50000 418.400000
5468 13207 5469 1 109.50000 418.400000
5468 13207 11211 1 109.50000 418.400000
5469 13207 11211 1 109.50000 418.400000
2670 13208 4756 1 109.50000 418.400000
2670 13208 5470 1 109.50000 418.400000
2670 13208 5471 1 109.50000 418.400000
4756 13208 5470 1 109.50000 418.400000
4756 13208 5471 1 109.50000 418.400000
5470 13208 5471 1 109.50000 418.400000
4589 13209 5472 1 109.50000 418.400000
4589 13209 5473 1 109.50000 418.400000
4589 13209 11428 1 109.50000 418.400000
5472 13209 5473 1 109.50000 418.400000
5472 13209 11428 1 109.50000 418.400000
5473 13209 11428 1 109.50000 418.400000
542 13210 2211 1 109.50000 418.400000
542 13210 5474 1 109.50000 418.400000
542 13210 5475 1 109.50000 418.400000
2211 13210 5474 1 109.50000 418.400000
2211 13210 5475 1 109.50000 418.400000
5474 13210 5475 1 109.50000 418.400000
902 13211 903 1 109.50000 418.400000
902 13211 904 1 109.50000 418.400000
902 13211 905 1 109.50000 418.400000
903 13211 904 1 109.50000 418.400000
903 13211 905 1 109.50000 418.400000
904 13211 905 1 109.50000 418.400000
2356 13212 3115 1 109.50000 418.400000
2356 13212 5477 1 109.50000 418.400000
2356 13212 5478 1 109.50000 418.400000
3115 13212 5477 1 109.50000 418.400000
3115 13212 5478 1 109.50000 418.400000
5477 13212 5478 1 109.50000 418.400000
5479 13213 5480 1 109.50000 418.400000
5479 13213 5481 1 109.50000 418.400000
5479 13213 5482 1 109.50000 418.400000
5480 13213 5481 1 109.50000 418.400000
5480 13213 5482 1 109.50000 418.400000
5481 13213 5482 1 109.50000 418.400000
3743 13214 5483 1 109.50000 418.400000
3743 13214 5484 1 109.50000 418.400000
3743 13214 5485 1 109.50000 418.400000
5483 13214 5484 1 109.50000 418.400000
5483 13214 5485 1 109.50000 418.400000
5484 13214 5485 1 109.50000 418.400000
4085 13215 5486 1 109.50000 418.400000
4085 13215 5487 1 109.50000 418.400000
4085 13215 11148 1 109.50000 418.400000
5486 13215 5487 1 109.50000 418.400000
5486 13215 11148 1 109.50000 418.400000
5487 13215 11148 1 109.50000 418.400000
1791 13216 5488 1 109.50000 418.400000
1791 13216 5489 1 109.50000 418.400000
1791 13216 5490 1 109.50000 418.400000
5488 13216 5489 1 109.50000 418.400000
5488 13216 5490 1 109.50000 418.400000
5489 13216 5490 1 109.50000 418.400000
1779 13217 5491 1 109.50000 418.400000
1779 13217 5492 1 109.50000 418.400000
1779 13217 5493 1 109.50000 418.400000
5491 13217 5492 1 109.50000 418.400000
5491 13217 5493 1 109.50000 418.400000
5492 13217 5493 1 109.50000 418.400000
2236 13218 2625 1 109.50000 418.400000
2236 13218 5494 1 109.50000 418.400000
2236 13218 5495 1 109.50000 418.400000
2625 13218 5494 1 109.50000 418.400000
2625 13218 5495 1 109.50000 418.400000
5494 13218 5495 1 109.50000 418.400000
4459 13219 4750 1 109.50000 418.400000
4459 13219 5499 1 109.50000 418.400000
4459 13219 5500 1 109.50000 418.400000
4750 13219 5499 1 109.50000 418.400000
4750 13219 5500 1 109.50000 418.400000
5499 13219 5500 1 109.50000 418.400000
5501 13220 5502 1 109.50000 418.400000
5501 13220 5503 1 109.50000 418.400000
5501 13220 11507 1 109.50000 418.400000
5502 13220 5503 1 109.50000 418.400000
5502 13220 11507 1 109.50000 418.400000
5503 13220 11507 1 109.50000 418.400000
3448 13221 5504 1 109.50000 418.400000
3448 13221 5505 1 109.50000 418.400000
3448 13221 5506 1 109.50000 418.400000
5504 13221 5505 1 109.50000 418.400000
5504 13221 5506 1 109.50000 418.400000
5505 13221 5506 1 109.50000 418.400000
5357 13222 5507 1 109.50000 418.400000
5357 13222 5508 1 109.50000 418.400000
5357 13222 5509 1 109.50000 418.400000
5507 13222 5508 1 109.50000 418.400000
5507 13222 5509 1 109.50000 418.400000
5508 13222 5509 1 109.50000 418.400000
3575 13223 3876 1 109.50000 418.400000
3575 13223 5510 1 109.50000 418.400000
3575 13223 5511 1 109.50000 418.400000
3876 13223 5510 1 109.50000 418.400000
3876 13223 5511 1 109.50000 418.400000
5510 13223 5511 1 109.50000 418.400000
5512 13224 5513 1 109.50000 418.400000
5512 13224 5514 1 109.50000 418.400000
5512 13224 5515 1 109.50000 418.400000
5513 13224 5514 1 109.50000 418.400000
5513 13224 5515 1 109.50000 418.400000
5514 13224 5515 1 109.50000 418.400000
1387 13225 3539 1 109.50000 418.400000
1387 13225 5516 1 109.50000 418.400000
1387 13225 11140 1 109.50000 418.400000
3539 13225 5516 1 109.50000 418.400000
3539 13225 11140 1 109.50000 418.400000
5516 13225 11140 1 109.50000 418.400000
1677 13226 5517 1 109.50000 418.400000
1677 13226 5518 1 109.50000 418.400000
1677 13226 5519 1 109.50000 418.400000
5517 13226 5518 1 109.50000 418.400000
5517 13226 5519 1 109.50000 418.400000
5518 13226 5519 1 109.50000 418.400000
5156 13227 5520 1 109.50000 418.400000
5156 13227 5521 1 109.50000 418.400000
5156 13227 5522 1 109.50000 418.400000
5520 13227 5521 1 109.50000 418.400000
5520 13227 5522 1 109.50000 418.400000
5521 13227 5522 1 109.50000 418.400000
546 13228 3176 1 109.50000 418.400000
546 13228 5523 1 109.50000 418.400000
546 13228 5524 1 109.50000 418.400000
3176 13228 5523 1 109.50000 418.400000
3176 13228 5524 1 109.50000 418.400000
5523 13228 5524 1 109.50000 418.400000
1062 13229 1503 1 109.50000 418.400000
1062 13229 5439 1 109.50000 418.400000
1062 13229 5525 1 109.50000 418.400000
1503 13229 5439 1 109.50000 418.400000
1503 13229 5525 1 109.50000 418.400000
5439 13229 5525 1 109.50000 418.400000
5172 13230 5526 1 109.50000 418.400000
5172 13230 5527 1 109.50000 418.400000
5172 13230 11231 1 109.50000 418.400000
5526 13230 5527 1 109.50000 418.400000
5526 13230 11231 1 109.50000 418.400000
5527 13230 11231 1 109.50000 418.400000
5528 13231 5529 1 109.50000 418.400000
5528 13231 5530 1 109.50000 418.400000
5528 13231 5531 1 109.50000 418.400000
5529 13231 5530 1 109.50000 418.400000
5529 13231 5531 1 109.50000 418.400000
5530 13231 5531 1 109.50000 418.400000
4774 13232 5532 1 109.50000 418.400000
4774 13232 5533 1 109.50000 418.400000
4774 13232 5534 1 109.50000 418.400000
5532 13232 5533 1 109.50000 418.400000
5532 13232 5534 1 109.50000 418.400000
5533 13232 5534 1 109.50000 418.400000
2244 13233 2872 1 109.50000 418.400000
2244 13233 5535 1 109.50000 418.400000
2244 13233 5536 1 109.50000 418.400000
2872 13233 5535 1 109.50000 418.400000
2872 13233 5536 1 109.50000 418.400000
5535 13233 5536 1 109.50000 418.400000
2081 13234 5537 1 109.50000 418.400000
2081 13234 5538 1 109.50000 418.400000
2081 13234 5539 1 109.50000 418.400000
5537 13234 5538 1 109.50000 418.400000
5537 13234 5539 1 109.50000 418.400000
5538 13234 5539 1 109.50000 418.400000
1863 13235 2232 1 109.50000 418.400000
1863 13235 5542 1 109.50000 418.400000
1863 13235 5543 1 109.50000 418.400000
2232 13235 5542 1 109.50000 418.400000
2232 13235 5543 1 109.50000 418.400000
5542 13235 5543 1 109.50000 418.400000
5544 13236 5546 1 109.50000 418.400000
5544 13236 5547 1 109.50000 418.400000
5544 13236 7953 1 109.50000 418.400000
5546 13236 5547 1 109.50000 418.400000
5546 13236 7953 1 109.50000 418.400000
5547 13236 7953 1 109.50000 418.400000
3291 13237 3293 1 109.50000 418.400000
3291 13237 5548 1 109.50000 418.400000
3291 13237 5549 1 109.50000 418.400000
3293 13237 5548 1 109.50000 418.400000
3293 13237 5549 1 109.50000 418.400000
5548 13237 5549 1 109.50000 418.400000
5553 13238 5554 1 109.50000 418.400000
5553 13238 5555 1 109.50000 418.400000
5553 13238 5556 1 109.50000 418.400000
5554 13238 5555 1 109.50000 418.400000
5554 13238 5556 1 109.50000 418.400000
5555 13238 5556 1 109.50000 418.400000
1251 13239 5557 1 109.50000 418.400000
1251 13239 5558 1 109.50000 418.400000
1251 13239 5559 1 109.50000 418.400000
5557 13239 5558 1 109.50000 418.400000
5557 13239 5559 1 109.50000 418.400000
5558 13239 5559 1 109.50000 418.400000
2475 13240 3749 1 109.50000 418.400000
2475 13240 5560 1 109.50000 418.400000
2475 13240 5561 1 109.50000 418.400000
3749 13240 5560 1 109.50000 418.400000
3749 13240 5561 1 109.50000 418.400000
5560 13240 5561 1 109.50000 418.400000
2257 13241 5562 1 109.50000 418.400000
2257 13241 5563 1 109.50000 418.400000
2257 13241 5564 1 109.50000 418.400000
5562 13241 5563 1 109.50000 418.400000
5562 13241 5564 1 109.50000 418.400000
5563 13241 5564 1 109.50000 418.400000
1329 13242 1330 1 109.50000 418.400000
1329 13242 2716 1 109.50000 418.400000
1329 13242 11529 1 109.50000 418.400000
1330 13242 2716 1 109.50000 418.400000
1330 13242 11529 1 109.50000 418.400000
2716 13242 11529 1 109.50000 418.400000
3056 13243 5565 1 109.50000 418.400000
3056 13243 5566 1 109.50000 418.400000
3056 13243 5567 1 109.50000 418.400000
5565 13243 5566 1 109.50000 418.400000
5565 13243 5567 1 109.50000 418.400000
5566 13243 5567 1 109.50000 418.400000
1427 13244 5568 1 109.50000 418.400000
1427 13244 5569 1 109.50000 418.400000
1427 13244 5570 1 109.50000 418.400000
5568 13244 5569 1 109.50000 418.400000
5568 13244 5570 1 109.50000 418.400000
5569 13244 5570 1 109.50000 418.400000
2577 13245 3565 1 109.50000 418.400000
2577 13245 3648 1 109.50000 418.400000
2577 13245 5571 1 109.50000 418.400000
3565 13245 3648 1 109.50000 418.400000
3565 13245 5571 1 109.50000 418.400000
3648 13245 5571 1 109.50000 418.400000
3847 13246 5572 1 109.50000 418.400000
3847 13246 5573 1 109.50000 418.400000
3847 13246 11174 1 109.50000 418.400000
5572 13246 5573 1 109.50000 418.400000
5572 13246 11174 1 109.50000 418.400000
5573 13246 11174 1 109.50000 418.400000
1611 13247 5574 1 109.50000 418.400000
1611 13247 5575 1 109.50000 418.400000
1611 13247 5576 1 109.50000 418.400000
5574 13247 5575 1 109.50000 418.400000
5574 13247 5576 1 109.50000 418.400000
5575 13247 5576 1 109.50000 418.400000
4927 13248 5582 1 109.50000 418.400000
4927 13248 5583 1 109.50000 418.400000
4927 13248 5584 1 109.50000 418.400000
5582 13248 5583 1 109.50000 418.400000
5582 13248 5584 1 109.50000 418.400000
5583 13248 5584 1 109.50000 418.400000
3186 13249 4354 1 109.50000 418.400000
3186 13249 5585 1 109.50000 418.400000
3186 13249 5586 1 109.50000 418.400000
4354 13249 5585 1 109.50000 418.400000
4354 13249 5586 1 109.50000 418.400000
5585 13249 5586 1 109.50000 418.400000
5587 13250 5588 1 109.50000 418.400000
5587 13250 5589 1 109.50000 418.400000
5587 13250 5590 1 109.50000 418.400000
5588 13250 5589 1 109.50000 418.400000
5588 13250 5590 1 109.50000 418.400000
5589 13250 5590 1 109.50000 418.400000
4079 13251 5591 1 109.50000 418.400000
4079 13251 5592 1 109.50000 418.400000
4079 13251 5593 1 109.50000 418.400000
5591 13251 5592 1 109.50000 418.400000
5591 13251 5593 1 109.50000 418.400000
5592 13251 5593 1 109.50000 418.400000
5594 13252 5595 1 109.50000 418.400000
5594 13252 5596 1 109.50000 418.400000
5594 13252 5597 1 109.50000 418.400000
5595 13252 5596 1 109.50000 418.400000
5595 13252 5597 1 109.50000 418.400000
5596 13252 5597 1 109.50000 418.400000
1426 13253 5598 1 109.50000 418.400000
1426 13253 5599 1 109.50000 418.400000
1426 13253 5820 1 109.50000 418.400000
5598 13253 5599 1 109.50000 418.400000
5598 13253 5820 1 109.50000 418.400000
5599 13253 5820 1 109.50000 418.400000
2277 13254 5600 1 109.50000 418.400000
2277 13254 5601 1 109.50000 418.400000
2277 13254 7655 1 109.50000 418.400000
5600 13254 5601 1 109.50000 418.400000
5600 13254 7655 1 109.50000 418.400000
5601 13254 7655 1 109.50000 418.400000
248 13255 5602 1 109.50000 418.400000
248 13255 5603 1 109.50000 418.400000
248 13255 5604 1 109.50000 418.400000
5602 13255 5603 1 109.50000 418.400000
5602 13255 5604 1 109.50000 418.400000
5603 13255 5604 1 109.50000 418.400000
5605 13256 5606 1 109.50000 418.400000
5605 13256 5607 1 109.50000 418.400000
5605 13256 5608 1 109.50000 418.400000
5606 13256 5607 1 109.50000 418.400000
5606 13256 5608 1 109.50000 418.400000
5607 13256 5608 1 109.50000 418.400000
1514 13257 5609 1 109.50000 418.400000
1514 13257 5610 1 109.50000 418.400000
1514 13257 5611 1 109.50000 418.400000
5609 13257 5610 1 109.50000 418.400000
5609 13257 5611 1 109.50000 418.400000
5610 13257 5611 1 109.50000 418.400000
5063 13258 5612 1 109.50000 418.400000
5063 13258 5613 1 109.50000 418.400000
5063 13258 5614 1 109.50000 418.400000
5612 13258 5613 1 109.50000 418.400000
5612 13258 5614 1 109.50000 418.400000
5613 13258 5614 1 109.50000 418.400000
5570 13259 5615 1 109.50000 418.400000
5570 13259 5616 1 109.50000 418.400000
5570 13259 5617 1 109.50000 418.400000
5615 13259 5616 1 109.50000 418.400000
5615 13259 5617 1 109.50000 418.400000
5616 13259 5617 1 109.50000 418.400000
5618 13260 5619 1 109.50000 418.400000
5618 13260 5620 1 109.50000 418.400000
5618 13260 5621 1 109.50000 418.400000
5619 13260 5620 1 109.50000 418.400000
5619 13260 5621 1 109.50000 418.400000
5620 13260 5621 1 109.50000 418.400000
5622 13261 5623 1 109.50000 418.400000
5622 13261 5624 1 109.50000 418.400000
5622 13261 5625 1 109.50000 418.400000
5623 13261 5624 1 109.50000 418.400000
5623 13261 5625 1 109.50000 418.400000
5624 13261 5625 1 109.50000 418.400000
759 13262 3440 1 109.50000 418.400000
759 13262 3917 1 109.50000 418.400000
759 13262 5626 1 109.50000 418.400000
3440 13262 3917 1 109.50000 418.400000
3440 13262 5626 1 109.50000 418.400000
3917 13262 5626 1 109.50000 418.400000
1793 13263 3733 1 109.50000 418.400000
1793 13263 5627 1 109.50000 418.400000
1793 13263 5628 1 109.50000 418.400000
3733 13263 5627 1 109.50000 418.400000
3733 13263 5628 1 109.50000 418.400000
5627 13263 5628 1 109.50000 418.400000
1448 13264 4596 1 109.50000 418.400000
1448 13264 5629 1 109.50000 418.400000
1448 13264 8855 1 109.50000 418.400000
4596 13264 5629 1 109.50000 418.400000
4596 13264 8855 1 109.50000 418.400000
5629 13264 8855 1 109.50000 418.400000
4184 13265 5630 1 109.50000 418.400000
4184 13265 7614 1 109.50000 418.400000
4184 13265 11519 1 109.50000 418.400000
5630 13265 7614 1 109.50000 418.400000
5630 13265 11519 1 109.50000 418.400000
7614 13265 11519 1 109.50000 418.400000
5631 13266 5633 1 109.50000 418.400000
5631 13266 5634 1 109.50000 418.400000
5631 13266 7674 1 109.50000 418.400000
5633 13266 5634 1 109.50000 418.400000
5633 13266 7674 1 109.50000 418.400000
5634 13266 7674 1 109.50000 418.400000
5635 13267 5636 1 109.50000 418.400000
5635 13267 5637 1 109.50000 418.400000
5635 13267 5638 1 109.50000 418.400000
5636 13267 5637 1 109.50000 418.400000
5636 13267 5638 1 109.50000 418.400000
5637 13267 5638 1 109.50000 418.400000
4764 13268 5639 1 109.50000 418.400000
4764 13268 5640 1 109.50000 418.400000
4764 13268 5641 1 109.50000 418.400000
5639 13268 5640 1 109.50000 418.400000
5639 13268 5641 1 109.50000 418.400000
5640 13268 5641 1 109.50000 418.400000
5642 13269 5643 1 109.50000 418.400000
5642 13269 5644 1 109.50000 418.400000
5642 13269 5645 1 109.50000 418.400000
5643 13269 5644 1 109.50000 418.400000
5643 13269 5645 1 109.50000 418.400000
5644 13269 5645 1 109.50000 418.400000
2210 13270 5646 1 109.50000 418.400000
2210 13270 5647 1 109.50000 418.400000
2210 13270 5648 1 109.50000 418.400000
5646 13270 5647 1 109.50000 418.400000
5646 13270 5648 1 109.50000 418.400000
5647 13270 5648 1 109.50000 418.400000
5649 13271 5650 1 109.50000 418.400000
5649 13271 5651 1 109.50000 418.400000
5649 13271 5652 1 109.50000 418.400000
5650 13271 5651 1 109.50000 418.400000
5650 13271 5652 1 109.50000 418.400000
5651 13271 5652 1 109.50000 418.400000
1837 13272 3842 1 109.50000 418.400000
1837 13272 5654 1 109.50000 418.400000
1837 13272 5655 1 109.50000 418.400000
3842 13272 5654 1 109.50000 418.400000
3842 13272 5655 1 109.50000 418.400000
5654 13272 5655 1 109.50000 418.400000
5656 13273 5657 1 109.50000 418.400000
5656 13273 5658 1 109.50000 418.400000
5656 13273 5659 1 109.50000 418.400000
5657 13273 5658 1 109.50000 418.400000
5657 13273 5659 1 109.50000 418.400000
5658 13273 5659 1 109.50000 418.400000
4787 13274 5661 1 109.50000 418.400000
4787 13274 5662 1 109.50000 418.400000
4787 13274 5663 1 109.50000 418.400000
5661 13274 5662 1 109.50000 418.400000
5661 13274 5663 1 109.50000 418.400000
5662 13274 5663 1 109.50000 418.400000
1816 13275 5664 1 109.50000 418.400000
1816 13275 5665 1 109.50000 418.400000
1816 13275 5666 1 109.50000 418.400000
5664 13275 5665 1 109.50000 418.400000
5664 13275 5666 1 109.50000 418.400000
5665 13275 5666 1 109.50000 418.400000
3091 13276 5667 1 109.50000 418.400000
3091 13276 5668 1 109.50000 418.400000
3091 13276 5669 1 109.50000 418.400000
5667 13276 5668 1 109.50000 418.400000
5667 13276 5669 1 109.50000 418.400000
5668 13276 5669 1 109.50000 418.400000
5670 13277 5671 1 109.50000 418.400000
5670 13277 5672 1 109.50000 418.400000
5670 13277 5673 1 109.50000 418.400000
5671 13277 5672 1 109.50000 418.400000
5671 13277 5673 1 109.50000 418.400000
5672 13277 5673 1 109.50000 418.400000
5674 13278 5675 1 109.50000 418.400000
5674 13278 5676 1 109.50000 418.400000
5674 13278 5677 1 109.50000 418.400000
5675 13278 5676 1 109.50000 418.400000
5675 13278 5677 1 109.50000 418.400000
5676 13278 5677 1 109.50000 418.400000
3103 13279 5678 1 109.50000 418.400000
3103 13279 5679 1 109.50000 418.400000
3103 13279 5680 1 109.50000 418.400000
5678 13279 5679 1 109.50000 418.400000
5678 13279 5680 1 109.50000 418.400000
5679 13279 5680 1 109.50000 418.400000
2882 13280 3828 1 109.50000 418.400000
2882 13280 5681 1 109.50000 418.400000
2882 13280 5682 1 109.50000 418.400000
3828 13280 5681 1 109.50000 418.400000
3828 13280 5682 1 109.50000 418.400000
5681 13280 5682 1 109.50000 418.400000
483 13281 5683 1 109.50000 418.400000
483 13281 5684 1 109.50000 418.400000
483 13281 5685 1 109.50000 418.400000
5683 13281 5684 1 109.50000 418.400000
5683 13281 5685 1 109.50000 418.400000
5684 13281 5685 1 109.50000 418.400000
1903 13282 5686 1 109.50000 418.400000
1903 13282 5687 1 109.50000 418.400000
1903 13282 5688 1 109.50000 418.400000
5686 13282 5687 1 109.50000 418.400000
5686 13282 5688 1 109.50000 418.400000
5687 13282 5688 1 109.50000 418.400000
5205 13283 5521 1 109.50000 418.400000
5205 13283 5689 1 109.50000 418.400000
5205 13283 5690 1 109.50000 418.400000
5521 13283 5689 1 109.50000 418.400000
5521 13283 5690 1 109.50000 418.400000
5689 13283 5690 1 109.50000 418.400000
5396 13284 5691 1 109.50000 418.400000
5396 13284 5692 1 109.50000 418.400000
5396 13284 5693 1 109.50000 418.400000
5691 13284 5692 1 109.50000 418.400000
5691 13284 5693 1 109.50000 418.400000
5692 13284 5693 1 109.50000 418.400000
1928 13285 1931 1 109.50000 418.400000
1928 13285 2350 1 109.50000 418.400000
1928 13285 2352 1 109.50000 418.400000
1931 13285 2350 1 109.50000 418.400000
1931 13285 2352 1 109.50000 418.400000
2350 13285 2352 1 109.50000 418.400000
5696 13286 5697 1 109.50000 418.400000
5696 13286 5698 1 109.50000 418.400000
5696 13286 5699 1 109.50000 418.400000
5697 13286 5698 1 109.50000 418.400000
5697 13286 5699 1 109.50000 418.400000
5698 13286 5699 1 109.50000 418.400000
5317 13287 5700 1 109.50000 418.400000
5317 13287 5701 1 109.50000 418.400000
5317 13287 5702 1 109.50000 418.400000
5700 13287 5701 1 109.50000 418.400000
5700 13287 5702 1 109.50000 418.400000
5701 13287 5702 1 109.50000 418.400000
5214 13288 5703 1 109.50000 418.400000
5214 13288 5704 1 109.50000 418.400000
5214 13288 5705 1 109.50000 418.400000
5703 13288 5704 1 109.50000 418.400000
5703 13288 5705 1 109.50000 418.400000
5704 13288 5705 1 109.50000 418.400000
701 13289 5707 1 109.50000 418.400000
701 13289 5708 1 109.50000 418.400000
701 13289 5844 1 109.50000 418.400000
5707 13289 5708 1 109.50000 418.400000
5707 13289 5844 1 109.50000 418.400000
5708 13289 5844 1 109.50000 418.400000
3253 13290 4928 1 109.50000 418.400000
3253 13290 5709 1 109.50000 418.400000
3253 13290 5710 1 109.50000 418.400000
4928 13290 5709 1 109.50000 418.400000
4928 13290 5710 1 109.50000 418.400000
5709 13290 5710 1 109.50000 418.400000
1399 13291 1539 1 109.50000 418.400000
1399 13291 5711 1 109.50000 418.400000
1399 13291 5712 1 109.50000 418.400000
1539 13291 5711 1 109.50000 418.400000
1539 13291 5712 1 109.50000 418.400000
5711 13291 5712 1 109.50000 418.400000
1703 13292 5713 1 109.50000 418.400000
1703 13292 5714 1 109.50000 418.400000
1703 13292 11578 1 109.50000 418.400000
5713 13292 5714 1 109.50000 418.400000
5713 13292 11578 1 109.50000 418.400000
5714 13292 11578 1 109.50000 418.400000
5715 13293 5716 1 109.50000 418.400000
5715 13293 5717 1 109.50000 418.400000
5715 13293 11237 1 109.50000 418.400000
5716 13293 5717 1 109.50000 418.400000
5716 13293 11237 1 109.50000 418.400000
5717 13293 11237 1 109.50000 418.400000
5718 13294 5719 1 109.50000 418.400000
5718 13294 5720 1 109.50000 418.400000
5718 13294 5721 1 109.50000 418.400000
5719 13294 5720 1 109.50000 418.400000
5719 13294 5721 1 109.50000 418.400000
5720 13294 5721 1 109.50000 418.400000
2011 13295 5722 1 109.50000 418.400000
2011 13295 5723 1 109.50000 418.400000
2011 13295 5724 1 109.50000 418.400000
5722 13295 5723 1 109.50000 418.400000
5722 13295 5724 1 109.50000 418.400000
5723 13295 5724 1 109.50000 418.400000
5725 13296 5726 1 109.50000 418.400000
5725 13296 5727 1 109.50000 418.400000
5725 13296 11536 1 109.50000 418.400000
5726 13296 5727 1 109.50000 418.400000
5726 13296 11536 1 109.50000 418.400000
5727 13296 11536 1 109.50000 418.400000
3045 13297 5728 1 109.50000 418.400000
3045 13297 5729 1 109.50000 418.400000
3045 13297 5730 1 109.50000 418.400000
5728 13297 5729 1 109.50000 418.400000
5728 13297 5730 1 109.50000 418.400000
5729 13297 5730 1 109.50000 418.400000
269 13298 3175 1 109.50000 418.400000
269 13298 5731 1 109.50000 418.400000
269 13298 5732 1 109.50000 418.400000
3175 13298 5731 1 109.50000 418.400000
3175 13298 5732 1 109.50000 418.400000
5731 13298 5732 1 109.50000 418.400000
728 13299 2417 1 109.50000 418.400000
728 13299 5733 1 109.50000 418.400000
728 13299 5734 1 109.50000 418.400000
2417 13299 5733 1 109.50000 418.400000
2417 13299 5734 1 109.50000 418.400000
5733 13299 5734 1 109.50000 418.400000
1496 13300 4013 1 109.50000 418.400000
1496 13300 5735 1 109.50000 418.400000
1496 13300 5736 1 109.50000 418.400000
4013 13300 5735 1 109.50000 418.400000
4013 13300 5736 1 109.50000 418.400000
5735 13300 5736 1 109.50000 418.400000
5738 13301 5739 1 109.50000 418.400000
5738 13301 5740 1 109.50000 418.400000
5738 13301 5741 1 109.50000 418.400000
5739 13301 5740 1 109.50000 418.400000
5739 13301 5741 1 109.50000 418.400000
5740 13301 5741 1 109.50000 418.400000
5742 13302 5743 1 109.50000 418.400000
5742 13302 10471 1 109.50000 418.400000
5742 13302 10843 1 109.50000 418.400000
5743 13302 10471 1 109.50000 418.400000
5743 13302 10843 1 109.50000 418.400000
10471 13302 10843 1 109.50000 418.400000
98 13303 2069 1 109.50000 418.400000
98 13303 5745 1 109.50000 418.400000
98 13303 5746 1 109.50000 418.400000
2069 13303 5745 1 109.50000 418.400000
2069 13303 5746 1 109.50000 418.400000
5745 13303 5746 1 109.50000 418.400000
2114 13304 5384 1 109.50000 418.400000
2114 13304 5747 1 109.50000 418.400000
2114 13304 5748 1 109.50000 418.400000
5384 13304 5747 1 109.50000 418.400000
5384 13304 5748 1 109.50000 418.400000
5747 13304 5748 1 109.50000 418.400000
2251 13305 3619 1 109.50000 418.400000
2251 13305 5749 1 109.50000 418.400000
2251 13305 5750 1 109.50000 418.400000
3619 13305 5749 1 109.50000 418.400000
3619 13305 5750 1 109.50000 418.400000
5749 13305 5750 1 109.50000 418.400000
5105 13306 5751 1 109.50000 418.400000
5105 13306 5752 1 109.50000 418.400000
5105 13306 11384 1 109.50000 418.400000
5751 13306 5752 1 109.50000 418.400000
5751 13306 11384 1 109.50000 418.400000
5752 13306 11384 1 109.50000 418.400000
389 13307 5753 1 109.50000 418.400000
389 13307 5754 1 109.50000 418.400000
389 13307 5755 1 109.50000 418.400000
5753 13307 5754 1 109.50000 418.400000
5753 13307 5755 1 109.50000 418.400000
5754 13307 5755 1 109.50000 418.400000
3267 13308 5756 1 109.50000 418.400000
3267 13308 5757 1 109.50000 418.400000
3267 13308 5758 1 109.50000 418.400000
5756 13308 5757 1 109.50000 418.400000
5756 13308 5758 1 109.50000 418.400000
5757 13308 5758 1 109.50000 418.400000
3171 13309 5759 1 109.50000 418.400000
3171 13309 7528 1 109.50000 418.400000
3171 13309 9740 1 109.50000 418.400000
5759 13309 7528 1 109.50000 418.400000
5759 13309 9740 1 109.50000 418.400000
7528 13309 9740 1 109.50000 418.400000
5761 13310 5762 1 109.50000 418.400000
5761 13310 5763 1 109.50000 418.400000
5761 13310 10075 1 109.50000 418.400000
5762 13310 5763 1 109.50000 418.400000
5762 13310 10075 1 109.50000 418.400000
5763 13310 10075 1 109.50000 418.400000
1983 13311 3789 1 109.50000 418.400000
1983 13311 5765 1 109.50000 418.400000
1983 13311 5766 1 109.50000 418.400000
3789 13311 5765 1 109.50000 418.400000
3789 13311 5766 1 109.50000 418.400000
5765 13311 5766 1 109.50000 418.400000
5767 13312 5768 1 109.50000 418.400000
5767 13312 5769 1 109.50000 418.400000
5767 13312 5770 1 109.50000 418.400000
5768 13312 5769 1 109.50000 418.400000
5768 13312 5770 1 109.50000 418.400000
5769 13312 5770 1 109.50000 418.400000
923 13313 2932 1 109.50000 418.400000
923 13313 4429 1 109.50000 418.400000
923 13313 5771 1 109.50000 418.400000
2932 13313 4429 1 109.50000 418.400000
2932 13313 5771 1 109.50000 418.400000
4429 13313 5771 1 109.50000 418.400000
2802 13314 4638 1 109.50000 418.400000
2802 13314 5772 1 109.50000 418.400000
2802 13314 5773 1 109.50000 418.400000
4638 13314 5772 1 109.50000 418.400000
4638 13314 5773 1 109.50000 418.400000
5772 13314 5773 1 109.50000 418.400000
5774 13315 5775 1 109.50000 418.400000
5774 13315 5776 1 109.50000 418.400000
5774 13315 11219 1 109.50000 418.400000
5775 13315 5776 1 109.50000 418.400000
5775 13315 11219 1 109.50000 418.400000
5776 13315 11219 1 109.50000 418.400000
1747 13316 5777 1 109.50000 418.400000
1747 13316 5778 1 109.50000 418.400000
1747 13316 5779 1 109.50000 418.400000
5777 13316 5778 1 109.50000 418.400000
5777 13316 5779 1 109.50000 418.400000
5778 13316 5779 1 109.50000 418.400000
5677 13317 5780 1 109.50000 418.400000
5677 13317 5781 1 109.50000 418.400000
5677 13317 5782 1 109.50000 418.400000
5780 13317 5781 1 109.50000 418.400000
5780 13317 5782 1 109.50000 418.400000
5781 13317 5782 1 109.50000 418.400000
209 13318 5783 1 109.50000 418.400000
209 13318 5784 1 109.50000 418.400000
209 13318 5785 1 109.50000 418.400000
5783 13318 5784 1 109.50000 418.400000
5783 13318 5785 1 109.50000 418.400000
5784 13318 5785 1 109.50000 418.400000
3172 13319 3246 1 109.50000 418.400000
3172 13319 4829 1 109.50000 418.400000
3172 13319 5786 1 109.50000 418.400000
3246 13319 4829 1 109.50000 418.400000
3246 13319 5786 1 109.50000 418.400000
4829 13319 5786 1 109.50000 418.400000
5787 13320 5788 1 109.50000 418.400000
5787 13320 5789 1 109.50000 418.400000
5787 13320 5790 1 109.50000 418.400000
5788 13320 5789 1 109.50000 418.400000
5788 13320 5790 1 109.50000 418.400000
5789 13320 5790 1 109.50000 418.400000
4449 13321 5792 1 109.50000 418.400000
4449 13321 5793 1 109.50000 418.400000
4449 13321 7194 1 109.50000 418.400000
5792 13321 5793 1 109.50000 418.400000
5792 13321 7194 1 109.50000 418.400000
5793 13321 7194 1 109.50000 418.400000
5795 13322 5796 1 109.50000 418.400000
5795 13322 5797 1 109.50000 418.400000
5795 13322 8314 1 109.50000 418.400000
5796 13322 5797 1 109.50000 418.400000
5796 13322 8314 1 109.50000 418.400000
5797 13322 8314 1 109.50000 418.400000
5798 13323 5799 1 109.50000 418.400000
5798 13323 5800 1 109.50000 418.400000
5798 13323 5801 1 109.50000 418.400000
5799 13323 5800 1 109.50000 418.400000
5799 13323 5801 1 109.50000 418.400000
5800 13323 5801 1 109.50000 418.400000
193 13324 691 1 109.50000 418.400000
193 13324 2842 1 109.50000 418.400000
193 13324 5802 1 109.50000 418.400000
691 13324 2842 1 109.50000 418.400000
691 13324 5802 1 109.50000 418.400000
2842 13324 5802 1 109.50000 418.400000
2480 13325 5803 1 109.50000 418.400000
2480 13325 5804 1 109.50000 418.400000
2480 13325 5805 1 109.50000 418.400000
5803 13325 5804 1 109.50000 418.400000
5803 13325 5805 1 109.50000 418.400000
5804 13325 5805 1 109.50000 418.400000
5806 13326 5807 1 109.50000 418.400000
5806 13326 5808 1 109.50000 418.400000
5806 13326 5809 1 109.50000 418.400000
5807 13326 5808 1 109.50000 418.400000
5807 13326 5809 1 109.50000 418.400000
5808 13326 5809 1 109.50000 418.400000
3520 13327 3877 1 109.50000 418.400000
3520 13327 5810 1 109.50000 418.400000
3520 13327 5811 1 109.50000 418.400000
3877 13327 5810 1 109.50000 418.400000
3877 13327 5811 1 109.50000 418.400000
5810 13327 5811 1 109.50000 418.400000
3593 13328 5812 1 109.50000 418.400000
3593 13328 5813 1 109.50000 418.400000
3593 13328 5814 1 109.50000 418.400000
5812 13328 5813 1 109.50000 418.400000
5812 13328 5814 1 109.50000 418.400000
5813 13328 5814 1 109.50000 418.400000
4670 13329 5815 1 109.50000 418.400000
4670 13329 5816 1 109.50000 418.400000
4670 13329 5817 1 109.50000 418.400000
5815 13329 5816 1 109.50000 418.400000
5815 13329 5817 1 109.50000 418.400000
5816 13329 5817 1 109.50000 418.400000
1852 13330 3074 1 109.50000 418.400000
1852 13330 5818 1 109.50000 418.400000
1852 13330 5819 1 109.50000 418.400000
3074 13330 5818 1 109.50000 418.400000
3074 13330 5819 1 109.50000 418.400000
5818 13330 5819 1 109.50000 418.400000
535 13331 4291 1 109.50000 418.400000
535 13331 5599 1 109.50000 418.400000
535 13331 5821 1 109.50000 418.400000
4291 13331 5599 1 109.50000 418.400000
4291 13331 5821 1 109.50000 418.400000
5599 13331 5821 1 109.50000 418.400000
2793 13332 3802 1 109.50000 418.400000
2793 13332 5822 1 109.50000 418.400000
2793 13332 5823 1 109.50000 418.400000
3802 13332 5822 1 109.50000 418.400000
3802 13332 5823 1 109.50000 418.400000
5822 13332 5823 1 109.50000 418.400000
5825 13333 5826 1 109.50000 418.400000
5825 13333 5827 1 109.50000 418.400000
5825 13333 9839 1 109.50000 418.400000
5826 13333 5827 1 109.50000 418.400000
5826 13333 9839 1 109.50000 418.400000
5827 13333 9839 1 109.50000 418.400000
4111 13334 5830 1 109.50000 418.400000
4111 13334 11206 1 109.50000 418.400000
4111 13334 11411 1 109.50000 418.400000
5830 13334 11206 1 109.50000 418.400000
5830 13334 11411 1 109.50000 418.400000
11206 13334 11411 1 109.50000 418.400000
1910 13335 2840 1 109.50000 418.400000
1910 13335 5777 1 109.50000 418.400000
1910 13335 5831 1 109.50000 418.400000
2840 13335 5777 1 109.50000 418.400000
2840 13335 5831 1 109.50000 418.400000
5777 13335 5831 1 109.50000 418.400000
5832 13336 5833 1 109.50000 418.400000
5832 13336 5834 1 109.50000 418.400000
5832 13336 11581 1 109.50000 418.400000
5833 13336 5834 1 109.50000 418.400000
5833 13336 11581 1 109.50000 418.400000
5834 13336 11581 1 109.50000 418.400000
5835 13337 5836 1 109.50000 418.400000
5835 13337 6820 1 109.50000 418.400000
5835 13337 9421 1 109.50000 418.400000
5836 13337 6820 1 109.50000 418.400000
5836 13337 9421 1 109.50000 418.400000
6820 13337 9421 1 109.50000 418.400000
864 13338 2451 1 109.50000 418.400000
864 13338 5839 1 109.50000 418.400000
864 13338 11573 1 109.50000 418.400000
2451 13338 5839 1 109.50000 418.400000
2451 13338 11573 1 109.50000 418.400000
5839 13338 11573 1 109.50000 418.400000
4368 13339 5706 1 109.50000 418.400000
4368 13339 5708 1 109.50000 418.400000
4368 13339 5843 1 109.50000 418.400000
5706 13339 5708 1 109.50000 418.400000
5706 13339 5843 1 109.50000 418.400000
5708 13339 5843 1 109.50000 418.400000
4107 13340 4108 1 109.50000 418.400000
4107 13340 5845 1 109.50000 418.400000
4107 13340 5846 1 109.50000 418.400000
4108 13340 5845 1 109.50000 418.400000
4108 13340 5846 1 109.50000 418.400000
5845 13340 5846 1 109.50000 418.400000
5637 13341 5847 1 109.50000 418.400000
5637 13341 5848 1 109.50000 418.400000
5637 13341 5849 1 109.50000 418.400000
5847 13341 5848 1 109.50000 418.400000
5847 13341 5849 1 109.50000 418.400000
5848 13341 5849 1 109.50000 418.400000
410 13342 5850 1 109.50000 418.400000
410 13342 5851 1 109.50000 418.400000
410 13342 5852 1 109.50000 418.400000
5850 13342 5851 1 109.50000 418.400000
5850 13342 5852 1 109.50000 418.400000
5851 13342 5852 1 109.50000 418.400000
2611 13343 3586 1 109.50000 418.400000
2611 13343 5346 1 109.50000 418.400000
2611 13343 5853 1 109.50000 418.400000
3586 13343 5346 1 109.50000 418.400000
3586 13343 5853 1 109.50000 418.400000
5346 13343 5853 1 109.50000 418.400000
5854 13344 5855 1 109.50000 418.400000
5854 13344 5856 1 109.50000 418.400000
5854 13344 5857 1 109.50000 418.400000
5855 13344 5856 1 109.50000 418.400000
5855 13344 5857 1 109.50000 418.400000
5856 13344 5857 1 109.50000 418.400000
3444 13345 5062 1 109.50000 418.400000
3444 13345 5858 1 109.50000 418.400000
3444 13345 5859 1 109.50000 418.400000
5062 13345 5858 1 109.50000 418.400000
5062 13345 5859 1 109.50000 418.400000
5858 13345 5859 1 109.50000 418.400000
3628 13346 5860 1 109.50000 418.400000
3628 13346 10356 1 109.50000 418.400000
3628 13346 11564 1 109.50000 418.400000
5860 13346 10356 1 109.50000 418.400000
5860 13346 11564 1 109.50000 418.400000
10356 13346 11564 1 109.50000 418.400000
4834 13347 5862 1 109.50000 418.400000
4834 13347 5864 1 109.50000 418.400000
4834 13347 10290 1 109.50000 418.400000
5862 13347 5864 1 109.50000 418.400000
5862 13347 10290 1 109.50000 418.400000
5864 13347 10290 1 109.50000 418.400000
5865 13348 5866 1 109.50000 418.400000
5865 13348 5867 1 109.50000 418.400000
5865 13348 8664 1 109.50000 418.400000
5866 13348 5867 1 109.50000 418.400000
5866 13348 8664 1 109.50000 418.400000
5867 13348 8664 1 109.50000 418.400000
3851 13349 5283 1 109.50000 418.400000
3851 13349 5868 1 109.50000 418.400000
3851 13349 5869 1 109.50000 418.400000
5283 13349 5868 1 109.50000 418.400000
5283 13349 5869 1 109.50000 418.400000
5868 13349 5869 1 109.50000 418.400000
3005 13350 5870 1 109.50000 418.400000
3005 13350 5871 1 109.50000 418.400000
3005 13350 5872 1 109.50000 418.400000
5870 13350 5871 1 109.50000 418.400000
5870 13350 5872 1 109.50000 418.400000
5871 13350 5872 1 109.50000 418.400000
468 13351 5873 1 109.50000 418.400000
468 13351 5874 1 109.50000 418.400000
468 13351 5875 1 109.50000 418.400000
5873 13351 5874 1 109.50000 418.400000
5873 13351 5875 1 109.50000 418.400000
5874 13351 5875 1 109.50000 418.400000
5876 13352 5877 1 109.50000 418.400000
5876 13352 5878 1 109.50000 418.400000
5876 13352 5879 1 109.50000 418.400000
5877 13352 5878 1 109.50000 418.400000
5877 13352 5879 1 109.50000 418.400000
5878 13352 5879 1 109.50000 418.400000
5880 13353 5881 1 109.50000 418.400000
5880 13353 5882 1 109.50000 418.400000
5880 13353 5883 1 109.50000 418.400000
5881 13353 5882 1 109.50000 418.400000
5881 13353 5883 1 109.50000 418.400000
5882 13353 5883 1 109.50000 418.400000
3153 13354 5884 1 109.50000 418.400000
3153 13354 5885 1 109.50000 418.400000
3153 13354 5886 1 109.50000 418.400000
5884 13354 5885 1 109.50000 418.400000
5884 13354 5886 1 109.50000 418.400000
5885 13354 5886 1 109.50000 418.400000
1761 13355 5217 1 109.50000 418.400000
1761 13355 5887 1 109.50000 418.400000
1761 13355 5888 1 109.50000 418.400000
5217 13355 5887 1 109.50000 418.400000
5217 13355 5888 1 109.50000 418.400000
5887 13355 5888 1 109.50000 418.400000
4806 13356 5889 1 109.50000 418.400000
4806 13356 5890 1 109.50000 418.400000
4806 13356 5891 1 109.50000 418.400000
5889 13356 5890 1 109.50000 418.400000
5889 13356 5891 1 109.50000 418.400000
5890 13356 5891 1 109.50000 418.400000
5892 13357 5893 1 109.50000 418.400000
5892 13357 5894 1 109.50000 418.400000
5892 13357 11276 1 109.50000 418.400000
5893 13357 5894 1 109.50000 418.400000
5893 13357 11276 1 109.50000 418.400000
5894 13357 11276 1 109.50000 418.400000
1884 13358 5895 1 109.50000 418.400000
1884 13358 5896 1 109.50000 418.400000
1884 13358 5897 1 109.50000 418.400000
5895 13358 5896 1 109.50000 418.400000
5895 13358 5897 1 109.50000 418.400000
5896 13358 5897 1 109.50000 418.400000
1581 13359 5898 1 109.50000 418.400000
1581 13359 5899 1 109.50000 418.400000
1581 13359 5900 1 109.50000 418.400000
5898 13359 5899 1 109.50000 418.400000
5898 13359 5900 1 109.50000 418.400000
5899 13359 5900 1 109.50000 418.400000
3051 13360 5901 1 109.50000 418.400000
3051 13360 5902 1 109.50000 418.400000
3051 13360 5903 1 109.50000 418.400000
5901 13360 5902 1 109.50000 418.400000
5901 13360 5903 1 109.50000 418.400000
5902 13360 5903 1 109.50000 418.400000
5904 13361 5905 1 109.50000 418.400000
5904 13361 5906 1 109.50000 418.400000
5904 13361 5907 1 109.50000 418.400000
5905 13361 5906 1 109.50000 418.400000
5905 13361 5907 1 109.50000 418.400000
5906 13361 5907 1 109.50000 418.400000
3216 13362 5908 1 109.50000 418.400000
3216 13362 5909 1 109.50000 418.400000
3216 13362 5910 1 109.50000 418.400000
5908 13362 5909 1 109.50000 418.400000
5908 13362 5910 1 109.50000 418.400000
5909 13362 5910 1 109.50000 418.400000
3233 13363 5911 1 109.50000 418.400000
3233 13363 5912 1 109.50000 418.400000
3233 13363 5913 1 109.50000 418.400000
5911 13363 5912 1 109.50000 418.400000
5911 13363 5913 1 109.50000 418.400000
5912 13363 5913 1 109.50000 418.400000
1705 13364 5914 1 109.50000 418.400000
1705 13364 5915 1 109.50000 418.400000
1705 13364 5916 1 109.50000 418.400000
5914 13364 5915 1 109.50000 418.400000
5914 13364 5916 1 109.50000 418.400000
5915 13364 5916 1 109.50000 418.400000
1959 13365 3363 1 109.50000 418.400000
1959 13365 5917 1 109.50000 418.400000
1959 13365 5918 1 109.50000 418.400000
3363 13365 5917 1 109.50000 418.400000
3363 13365 5918 1 109.50000 418.400000
5917 13365 5918 1 109.50000 418.400000
4650 13366 5919 1 109.50000 418.400000
4650 13366 11337 1 109.50000 418.400000
4650 13366 11389 1 109.50000 418.400000
5919 13366 11337 1 109.50000 418.400000
5919 13366 11389 1 109.50000 418.400000
11337 13366 11389 1 109.50000 418.400000
2749 13367 5920 1 109.50000 418.400000
2749 13367 5921 1 109.50000 418.400000
2749 13367 5922 1 109.50000 418.400000
5920 13367 5921 1 109.50000 418.400000
5920 13367 5922 1 109.50000 418.400000
5921 13367 5922 1 109.50000 418.400000
762 13368 5923 1 109.50000 418.400000
762 13368 5924 1 109.50000 418.400000
762 13368 5925 1 109.50000 418.400000
5923 13368 5924 1 109.50000 418.400000
5923 13368 5925 1 109.50000 418.400000
5924 13368 5925 1 109.50000 418.400000
1862 13369 3414 1 109.50000 418.400000
1862 13369 3415 1 109.50000 418.400000
1862 13369 5926 1 109.50000 418.400000
3414 13369 3415 1 109.50000 418.400000
3414 13369 5926 1 109.50000 418.400000
3415 13369 5926 1 109.50000 418.400000
4457 13370 5469 1 109.50000 418.400000
4457 13370 5928 1 109.50000 418.400000
4457 13370 5929 1 109.50000 418.400000
5469 13370 5928 1 109.50000 418.400000
5469 13370 5929 1 109.50000 418.400000
5928 13370 5929 1 109.50000 418.400000
5930 13371 5931 1 109.50000 418.400000
5930 13371 5932 1 109.50000 418.400000
5930 13371 5933 1 109.50000 418.400000
5931 13371 5932 1 109.50000 418.400000
5931 13371 5933 1 109.50000 418.400000
5932 13371 5933 1 109.50000 418.400000
2263 13372 3255 1 109.50000 418.400000
2263 13372 5395 1 109.50000 418.400000
2263 13372 5934 1 109.50000 418.400000
3255 13372 5395 1 109.50000 418.400000
3255 13372 5934 1 109.50000 418.400000
5395 13372 5934 1 109.50000 418.400000
1189 13373 1192 1 109.50000 418.400000
1189 13373 5935 1 109.50000 418.400000
1189 13373 5936 1 109.50000 418.400000
1192 13373 5935 1 109.50000 418.400000
1192 13373 5936 1 109.50000 418.400000
5935 13373 5936 1 109.50000 418.400000
4312 13374 4492 1 109.50000 418.400000
4312 13374 5937 1 109.50000 418.400000
4312 13374 5938 1 109.50000 418.400000
4492 13374 5937 1 109.50000 418.400000
4492 13374 5938 1 109.50000 418.400000
5937 13374 5938 1 109.50000 418.400000
5939 13375 5940 1 109.50000 418.400000
5939 13375 5941 1 109.50000 418.400000
5939 13375 5942 1 109.50000 418.400000
5940 13375 5941 1 109.50000 418.400000
5940 13375 5942 1 109.50000 418.400000
5941 13375 5942 1 109.50000 418.400000
5743 13376 5945 1 109.50000 418.400000
5743 13376 9887 1 109.50000 418.400000
5743 13376 9889 1 109.50000 418.400000
5945 13376 9887 1 109.50000 418.400000
5945 13376 9889 1 109.50000 418.400000
9887 13376 9889 1 109.50000 418.400000
2385 13377 5946 1 109.50000 418.400000
2385 13377 5947 1 109.50000 418.400000
2385 13377 5948 1 109.50000 418.400000
5946 13377 5947 1 109.50000 418.400000
5946 13377 5948 1 109.50000 418.400000
5947 13377 5948 1 109.50000 418.400000
5949 13378 5950 1 109.50000 418.400000
5949 13378 5951 1 109.50000 418.400000
5949 13378 5952 1 109.50000 418.400000
5950 13378 5951 1 109.50000 418.400000
5950 13378 5952 1 109.50000 418.400000
5951 13378 5952 1 109.50000 418.400000
5953 13379 5954 1 109.50000 418.400000
5953 13379 5955 1 109.50000 418.400000
5953 13379 5956 1 109.50000 418.400000
5954 13379 5955 1 109.50000 418.400000
5954 13379 5956 1 109.50000 418.400000
5955 13379 5956 1 109.50000 418.400000
5957 13380 5958 1 109.50000 418.400000
5957 13380 5959 1 109.50000 418.400000
5957 13380 5960 1 109.50000 418.400000
5958 13380 5959 1 109.50000 418.400000
5958 13380 5960 1 109.50000 418.400000
5959 13380 5960 1 109.50000 418.400000
800 13381 4888 1 109.50000 418.400000
800 13381 5961 1 109.50000 418.400000
800 13381 5962 1 109.50000 418.400000
4888 13381 5961 1 109.50000 418.400000
4888 13381 5962 1 109.50000 418.400000
5961 13381 5962 1 109.50000 418.400000
2420 13382 5964 1 109.50000 418.400000
2420 13382 5965 1 109.50000 418.400000
2420 13382 11514 1 109.50000 418.400000
5964 13382 5965 1 109.50000 418.400000
5964 13382 11514 1 109.50000 418.400000
5965 13382 11514 1 109.50000 418.400000
1820 13383 1955 1 109.50000 418.400000
1820 13383 5966 1 109.50000 418.400000
1820 13383 5967 1 109.50000 418.400000
1955 13383 5966 1 109.50000 418.400000
1955 13383 5967 1 109.50000 418.400000
5966 13383 5967 1 109.50000 418.400000
1881 13384 2586 1 109.50000 418.400000
1881 13384 5968 1 109.50000 418.400000
1881 13384 5969 1 109.50000 418.400000
2586 13384 5968 1 109.50000 418.400000
2586 13384 5969 1 109.50000 418.400000
5968 13384 5969 1 109.50000 418.400000
5018 13385 5970 1 109.50000 418.400000
5018 13385 5971 1 109.50000 418.400000
5018 13385 5972 1 109.50000 418.400000
5970 13385 5971 1 109.50000 418.400000
5970 13385 5972 1 109.50000 418.400000
5971 13385 5972 1 109.50000 418.400000
3358 13386 5974 1 109.50000 418.400000
3358 13386 5975 1 109.50000 418.400000
3358 13386 11433 1 109.50000 418.400000
5974 13386 5975 1 109.50000 418.400000
5974 13386 11433 1 109.50000 418.400000
5975 13386 11433 1 109.50000 418.400000
1624 13387 5976 1 109.50000 418.400000
1624 13387 5977 1 109.50000 418.400000
1624 13387 7670 1 109.50000 418.400000
5976 13387 5977 1 109.50000 418.400000
5976 13387 7670 1 109.50000 418.400000
5977 13387 7670 1 109.50000 418.400000
2012 13388 3940 1 109.50000 418.400000
2012 13388 5982 1 109.50000 418.400000
2012 13388 5983 1 109.50000 418.400000
3940 13388 5982 1 109.50000 418.400000
3940 13388 5983 1 109.50000 418.400000
5982 13388 5983 1 109.50000 418.400000
5814 13389 5984 1 109.50000 418.400000
5814 13389 5985 1 109.50000 418.400000
5814 13389 5986 1 109.50000 418.400000
5984 13389 5985 1 109.50000 418.400000
5984 13389 5986 1 109.50000 418.400000
5985 13389 5986 1 109.50000 418.400000
3747 13390 4947 1 109.50000 418.400000
3747 13390 5987 1 109.50000 418.400000
3747 13390 5988 1 109.50000 418.400000
4947 13390 5987 1 109.50000 418.400000
4947 13390 5988 1 109.50000 418.400000
5987 13390 5988 1 109.50000 418.400000
3872 13391 4464 1 109.50000 418.400000
3872 13391 5989 1 109.50000 418.400000
3872 13391 5990 1 109.50000 418.400000
4464 13391 5989 1 109.50000 418.400000
4464 13391 5990 1 109.50000 418.400000
5989 13391 5990 1 109.50000 418.400000
3604 13392 5991 1 109.50000 418.400000
3604 13392 5992 1 109.50000 418.400000
3604 13392 11427 1 109.50000 418.400000
5991 13392 5992 1 109.50000 418.400000
5991 13392 11427 1 109.50000 418.400000
5992 13392 11427 1 109.50000 418.400000
5993 13393 5994 1 109.50000 418.400000
5993 13393 5995 1 109.50000 418.400000
5993 13393 5996 1 109.50000 418.400000
5994 13393 5995 1 109.50000 418.400000
5994 13393 5996 1 109.50000 418.400000
5995 13393 5996 1 109.50000 418.400000
3603 13394 5997 1 109.50000 418.400000
3603 13394 5998 1 109.50000 418.400000
3603 13394 11527 1 109.50000 418.400000
5997 13394 5998 1 109.50000 418.400000
5997 13394 11527 1 109.50000 418.400000
5998 13394 11527 1 109.50000 418.400000
555 13395 1228 1 109.50000 418.400000
555 13395 4653 1 109.50000 418.400000
555 13395 5999 1 109.50000 418.400000
1228 13395 4653 1 109.50000 418.400000
1228 13395 5999 1 109.50000 418.400000
4653 13395 5999 1 109.50000 418.400000
2207 13396 6002 1 109.50000 418.400000
2207 13396 6003 1 109.50000 418.400000
2207 13396 6004 1 109.50000 418.400000
6002 13396 6003 1 109.50000 418.400000
6002 13396 6004 1 109.50000 418.400000
6003 13396 6004 1 109.50000 418.400000
1685 13397 6005 1 109.50000 418.400000
1685 13397 6006 1 109.50000 418.400000
1685 13397 11452 1 109.50000 418.400000
6005 13397 6006 1 109.50000 418.400000
6005 13397 11452 1 109.50000 418.400000
6006 13397 11452 1 109.50000 418.400000
6007 13398 6008 1 109.50000 418.400000
6007 13398 6009 1 109.50000 418.400000
6007 13398 6010 1 109.50000 418.400000
6008 13398 6009 1 109.50000 418.400000
6008 13398 6010 1 109.50000 418.400000
6009 13398 6010 1 109.50000 418.400000
406 13399 2903 1 109.50000 418.400000
406 13399 6011 1 109.50000 418.400000
406 13399 6012 1 109.50000 418.400000
2903 13399 6011 1 109.50000 418.400000
2903 13399 6012 1 109.50000 418.400000
6011 13399 6012 1 109.50000 418.400000
222 13400 6013 1 109.50000 418.400000
222 13400 6014 1 109.50000 418.400000
222 13400 6015 1 109.50000 418.400000
6013 13400 6014 1 109.50000 418.400000
6013 13400 6015 1 109.50000 418.400000
6014 13400 6015 1 109.50000 418.400000
6016 13401 6017 1 109.50000 418.400000
6016 13401 6018 1 109.50000 418.400000
6016 13401 6019 1 109.50000 418.400000
6017 13401 6018 1 109.50000 418.400000
6017 13401 6019 1 109.50000 418.400000
6018 13401 6019 1 109.50000 418.400000
1160 13402 1162 1 109.50000 418.400000
1160 13402 1163 1 109.50000 418.400000
1160 13402 5112 1 109.50000 418.400000
1162 13402 1163 1 109.50000 418.400000
1162 13402 5112 1 109.50000 418.400000
1163 13402 5112 1 109.50000 418.400000
6022 13403 6023 1 109.50000 418.400000
6022 13403 6024 1 109.50000 418.400000
6022 13403 6025 1 109.50000 418.400000
6023 13403 6024 1 109.50000 418.400000
6023 13403 6025 1 109.50000 418.400000
6024 13403 6025 1 109.50000 418.400000
1148 13404 6026 1 109.50000 418.400000
1148 13404 6027 1 109.50000 418.400000
1148 13404 11436 1 109.50000 418.400000
6026 13404 6027 1 109.50000 418.400000
6026 13404 11436 1 109.50000 418.400000
6027 13404 11436 1 109.50000 418.400000
4590 13405 6028 1 109.50000 418.400000
4590 13405 6029 1 109.50000 418.400000
4590 13405 6030 1 109.50000 418.400000
6028 13405 6029 1 109.50000 418.400000
6028 13405 6030 1 109.50000 418.400000
6029 13405 6030 1 109.50000 418.400000
1584 13406 4663 1 109.50000 418.400000
1584 13406 6033 1 109.50000 418.400000
1584 13406 6034 1 109.50000 418.400000
4663 13406 6033 1 109.50000 418.400000
4663 13406 6034 1 109.50000 418.400000
6033 13406 6034 1 109.50000 418.400000
761 13407 6035 1 109.50000 418.400000
761 13407 6036 1 109.50000 418.400000
761 13407 6037 1 109.50000 418.400000
6035 13407 6036 1 109.50000 418.400000
6035 13407 6037 1 109.50000 418.400000
6036 13407 6037 1 109.50000 418.400000
2163 13408 2164 1 109.50000 418.400000
2163 13408 6038 1 109.50000 418.400000
2163 13408 11476 1 109.50000 418.400000
2164 13408 6038 1 109.50000 418.400000
2164 13408 11476 1 109.50000 418.400000
6038 13408 11476 1 109.50000 418.400000
6039 13409 6040 1 109.50000 418.400000
6039 13409 6041 1 109.50000 418.400000
6039 13409 6042 1 109.50000 418.400000
6040 13409 6041 1 109.50000 418.400000
6040 13409 6042 1 109.50000 418.400000
6041 13409 6042 1 109.50000 418.400000
6043 13410 6044 1 109.50000 418.400000
6043 13410 6045 1 109.50000 418.400000
6043 13410 6046 1 109.50000 418.400000
6044 13410 6045 1 109.50000 418.400000
6044 13410 6046 1 109.50000 418.400000
6045 13410 6046 1 109.50000 418.400000
2394 13411 6047 1 109.50000 418.400000
2394 13411 6048 1 109.50000 418.400000
2394 13411 6049 1 109.50000 418.400000
6047 13411 6048 1 109.50000 418.400000
6047 13411 6049 1 109.50000 418.400000
6048 13411 6049 1 109.50000 418.400000
2145 13412 4687 1 109.50000 418.400000
2145 13412 4715 1 109.50000 418.400000
2145 13412 6050 1 109.50000 418.400000
4687 13412 4715 1 109.50000 418.400000
4687 13412 6050 1 109.50000 418.400000
4715 13412 6050 1 109.50000 418.400000
287 13413 6052 1 109.50000 418.400000
287 13413 6053 1 109.50000 418.400000
287 13413 6054 1 109.50000 418.400000
6052 13413 6053 1 109.50000 418.400000
6052 13413 6054 1 109.50000 418.400000
6053 13413 6054 1 109.50000 418.400000
6055 13414 6056 1 109.50000 418.400000
6055 13414 6057 1 109.50000 418.400000
6055 13414 10055 1 109.50000 418.400000
6056 13414 6057 1 109.50000 418.400000
6056 13414 10055 1 109.50000 418.400000
6057 13414 10055 1 109.50000 418.400000
1088 13415 6058 1 109.50000 418.400000
1088 13415 6059 1 109.50000 418.400000
1088 13415 6060 1 109.50000 418.400000
6058 13415 6059 1 109.50000 418.400000
6058 13415 6060 1 109.50000 418.400000
6059 13415 6060 1 109.50000 418.400000
5030 13416 5268 1 109.50000 418.400000
5030 13416 11301 1 109.50000 418.400000
5030 13416 11492 1 109.50000 418.400000
5268 13416 11301 1 109.50000 418.400000
5268 13416 11492 1 109.50000 418.400000
11301 13416 11492 1 109.50000 418.400000
2979 13417 3790 1 109.50000 418.400000
2979 13417 4466 1 109.50000 418.400000
2979 13417 6061 1 109.50000 418.400000
3790 13417 4466 1 109.50000 418.400000
3790 13417 6061 1 109.50000 418.400000
4466 13417 6061 1 109.50000 418.400000
2141 13418 6062 1 109.50000 418.400000
2141 13418 6063 1 109.50000 418.400000
2141 13418 6064 1 109.50000 418.400000
6062 13418 6063 1 109.50000 418.400000
6062 13418 6064 1 109.50000 418.400000
6063 13418 6064 1 109.50000 418.400000
4627 13419 6065 1 109.50000 418.400000
4627 13419 6066 1 109.50000 418.400000
4627 13419 6067 1 109.50000 418.400000
6065 13419 6066 1 109.50000 418.400000
6065 13419 6067 1 109.50000 418.400000
6066 13419 6067 1 109.50000 418.400000
213 13420 214 1 109.50000 418.400000
213 13420 6068 1 109.50000 418.400000
213 13420 6069 1 109.50000 418.400000
214 13420 6068 1 109.50000 418.400000
214 13420 6069 1 109.50000 418.400000
6068 13420 6069 1 109.50000 418.400000
6070 13421 6071 1 109.50000 418.400000
6070 13421 6072 1 109.50000 418.400000
6070 13421 6073 1 109.50000 418.400000
6071 13421 6072 1 109.50000 418.400000
6071 13421 6073 1 109.50000 418.400000
6072 13421 6073 1 109.50000 418.400000
2000 13422 2631 1 109.50000 418.400000
2000 13422 6074 1 109.50000 418.400000
2000 13422 6075 1 109.50000 418.400000
2631 13422 6074 1 109.50000 418.400000
2631 13422 6075 1 109.50000 418.400000
6074 13422 6075 1 109.50000 418.400000
284 13423 6076 1 109.50000 418.400000
284 13423 6077 1 109.50000 418.400000
284 13423 6078 1 109.50000 418.400000
6076 13423 6077 1 109.50000 418.400000
6076 13423 6078 1 109.50000 418.400000
6077 13423 6078 1 109.50000 418.400000
6079 13424 6080 1 109.50000 418.400000
6079 13424 11271 1 109.50000 418.400000
6079 13424 11539 1 109.50000 418.400000
6080 13424 11271 1 109.50000 418.400000
6080 13424 11539 1 109.50000 418.400000
11271 13424 11539 1 109.50000 418.400000
5595 13425 6081 1 109.50000 418.400000
5595 13425 6082 1 109.50000 418.400000
5595 13425 6083 1 109.50000 418.400000
6081 13425 6082 1 109.50000 418.400000
6081 13425 6083 1 109.50000 418.400000
6082 13425 6083 1 109.50000 418.400000
6084 13426 6085 1 109.50000 418.400000
6084 13426 6086 1 109.50000 418.400000
6084 13426 6087 1 109.50000 418.400000
6085 13426 6086 1 109.50000 418.400000
6085 13426 6087 1 109.50000 418.400000
6086 13426 6087 1 109.50000 418.400000
6088 13427 6089 1 109.50000 418.400000
6088 13427 8294 1 109.50000 418.400000
6088 13427 11561 1 109.50000 418.400000
6089 13427 8294 1 109.50000 418.400000
6089 13427 11561 1 109.50000 418.400000
8294 13427 11561 1 109.50000 418.400000
6090 13428 6091 1 109.50000 418.400000
6090 13428 6092 1 109.50000 418.400000
6090 13428 6093 1 109.50000 418.400000
6091 13428 6092 1 109.50000 418.400000
6091 13428 6093 1 109.50000 418.400000
6092 13428 6093 1 109.50000 418.400000
1100 13429 6094 1 109.50000 418.400000
1100 13429 6095 1 109.50000 418.400000
1100 13429 6096 1 109.50000 418.400000
6094 13429 6095 1 109.50000 418.400000
6094 13429 6096 1 109.50000 418.400000
6095 13429 6096 1 109.50000 418.400000
2090 13430 3389 1 109.50000 418.400000
2090 13430 6097 1 109.50000 418.400000
2090 13430 6098 1 109.50000 418.400000
3389 13430 6097 1 109.50000 418.400000
3389 13430 6098 1 109.50000 418.400000
6097 13430 6098 1 109.50000 418.400000
4941 13431 6004 1 109.50000 418.400000
4941 13431 6102 1 109.50000 418.400000
4941 13431 6103 1 109.50000 418.400000
6004 13431 6102 1 109.50000 418.400000
6004 13431 6103 1 109.50000 418.400000
6102 13431 6103 1 109.50000 418.400000
6104 13432 6105 1 109.50000 418.400000
6104 13432 6106 1 109.50000 418.400000
6104 13432 6107 1 109.50000 418.400000
6105 13432 6106 1 109.50000 418.400000
6105 13432 6107 1 109.50000 418.400000
6106 13432 6107 1 109.50000 418.400000
4845 13433 6111 1 109.50000 418.400000
4845 13433 6113 1 109.50000 418.400000
4845 13433 10052 1 109.50000 418.400000
6111 13433 6113 1 109.50000 418.400000
6111 13433 10052 1 109.50000 418.400000
6113 13433 10052 1 109.50000 418.400000
2212 13434 3708 1 109.50000 418.400000
2212 13434 3709 1 109.50000 418.400000
2212 13434 6115 1 109.50000 418.400000
3708 13434 3709 1 109.50000 418.400000
3708 13434 6115 1 109.50000 418.400000
3709 13434 6115 1 109.50000 418.400000
4349 13435 6116 1 109.50000 418.400000
4349 13435 6117 1 109.50000 418.400000
4349 13435 11203 1 109.50000 418.400000
6116 13435 6117 1 109.50000 418.400000
6116 13435 11203 1 109.50000 418.400000
6117 13435 11203 1 109.50000 418.400000
2809 13436 4094 1 109.50000 418.400000
2809 13436 4253 1 109.50000 418.400000
2809 13436 6118 1 109.50000 418.400000
4094 13436 4253 1 109.50000 418.400000
4094 13436 6118 1 109.50000 418.400000
4253 13436 6118 1 109.50000 418.400000
307 13437 6119 1 109.50000 418.400000
307 13437 6120 1 109.50000 418.400000
307 13437 6121 1 109.50000 418.400000
6119 13437 6120 1 109.50000 418.400000
6119 13437 6121 1 109.50000 418.400000
6120 13437 6121 1 109.50000 418.400000
4795 13438 6122 1 109.50000 418.400000
4795 13438 6123 1 109.50000 418.400000
4795 13438 11184 1 109.50000 418.400000
6122 13438 6123 1 109.50000 418.400000
6122 13438 11184 1 109.50000 418.400000
6123 13438 11184 1 109.50000 418.400000
6124 13439 6125 1 109.50000 418.400000
6124 13439 6126 1 109.50000 418.400000
6124 13439 6127 1 109.50000 418.400000
6125 13439 6126 1 109.50000 418.400000
6125 13439 6127 1 109.50000 418.400000
6126 13439 6127 1 109.50000 418.400000
2358 13440 3142 1 109.50000 418.400000
2358 13440 3265 1 109.50000 418.400000
2358 13440 6128 1 109.50000 418.400000
3142 13440 3265 1 109.50000 418.400000
3142 13440 6128 1 109.50000 418.400000
3265 13440 6128 1 109.50000 418.400000
1038 13441 6129 1 109.50000 418.400000
1038 13441 6130 1 109.50000 418.400000
1038 13441 6131 1 109.50000 418.400000
6129 13441 6130 1 109.50000 418.400000
6129 13441 6131 1 109.50000 418.400000
6130 13441 6131 1 109.50000 418.400000
6132 13442 6133 1 109.50000 418.400000
6132 13442 6134 1 109.50000 418.400000
6132 13442 7283 1 109.50000 418.400000
6133 13442 6134 1 109.50000 418.400000
6133 13442 7283 1 109.50000 418.400000
6134 13442 7283 1 109.50000 418.400000
2147 13443 3328 1 109.50000 418.400000
2147 13443 6132 1 109.50000 418.400000
2147 13443 6136 1 109.50000 418.400000
3328 13443 6132 1 109.50000 418.400000
3328 13443 6136 1 109.50000 418.400000
6132 13443 6136 1 109.50000 418.400000
6137 13444 6138 1 109.50000 418.400000
6137 13444 6139 1 109.50000 418.400000
6137 13444 6140 1 109.50000 418.400000
6138 13444 6139 1 109.50000 418.400000
6138 13444 6140 1 109.50000 418.400000
6139 13444 6140 1 109.50000 418.400000
5532 13445 6141 1 109.50000 418.400000
5532 13445 6142 1 109.50000 418.400000
5532 13445 6143 1 109.50000 418.400000
6141 13445 6142 1 109.50000 418.400000
6141 13445 6143 1 109.50000 418.400000
6142 13445 6143 1 109.50000 418.400000
2049 13446 2248 1 109.50000 418.400000
2049 13446 2896 1 109.50000 418.400000
2049 13446 6144 1 109.50000 418.400000
2248 13446 2896 1 109.50000 418.400000
2248 13446 6144 1 109.50000 418.400000
2896 13446 6144 1 109.50000 418.400000
3996 13447 4443 1 109.50000 418.400000
3996 13447 6146 1 109.50000 418.400000
3996 13447 6321 1 109.50000 418.400000
4443 13447 6146 1 109.50000 418.400000
4443 13447 6321 1 109.50000 418.400000
6146 13447 6321 1 109.50000 418.400000
2620 13448 6148 1 109.50000 418.400000
2620 13448 6149 1 109.50000 418.400000
2620 13448 11283 1 109.50000 418.400000
6148 13448 6149 1 109.50000 418.400000
6148 13448 11283 1 109.50000 418.400000
6149 13448 11283 1 109.50000 418.400000
6150 13449 6151 1 109.50000 418.400000
6150 13449 6152 1 109.50000 418.400000
6150 13449 6153 1 109.50000 418.400000
6151 13449 6152 1 109.50000 418.400000
6151 13449 6153 1 109.50000 418.400000
6152 13449 6153 1 109.50000 418.400000
3973 13450 4286 1 109.50000 418.400000
3973 13450 5665 1 109.50000 418.400000
3973 13450 6154 1 109.50000 418.400000
4286 13450 5665 1 109.50000 418.400000
4286 13450 6154 1 109.50000 418.400000
5665 13450 6154 1 109.50000 418.400000
1093 13451 6155 1 109.50000 418.400000
1093 13451 6156 1 109.50000 418.400000
1093 13451 6157 1 109.50000 418.400000
6155 13451 6156 1 109.50000 418.400000
6155 13451 6157 1 109.50000 418.400000
6156 13451 6157 1 109.50000 418.400000
2983 13452 3693 1 109.50000 418.400000
2983 13452 6158 1 109.50000 418.400000
2983 13452 6159 1 109.50000 418.400000
3693 13452 6158 1 109.50000 418.400000
3693 13452 6159 1 109.50000 418.400000
6158 13452 6159 1 109.50000 418.400000
4746 13453 4801 1 109.50000 418.400000
4746 13453 4802 1 109.50000 418.400000
4746 13453 6160 1 109.50000 418.400000
4801 13453 4802 1 109.50000 418.400000
4801 13453 6160 1 109.50000 418.400000
4802 13453 6160 1 109.50000 418.400000
1369 13454 6163 1 109.50000 418.400000
1369 13454 6164 1 109.50000 418.400000
1369 13454 11434 1 109.50000 418.400000
6163 13454 6164 1 109.50000 418.400000
6163 13454 11434 1 109.50000 418.400000
6164 13454 11434 1 109.50000 418.400000
5464 13455 5466 1 109.50000 418.400000
5464 13455 6165 1 109.50000 418.400000
5464 13455 6166 1 109.50000 418.400000
5466 13455 6165 1 109.50000 418.400000
5466 13455 6166 1 109.50000 418.400000
6165 13455 6166 1 109.50000 418.400000
6168 13456 6169 1 109.50000 418.400000
6168 13456 6170 1 109.50000 418.400000
6168 13456 8848 1 109.50000 418.400000
6169 13456 6170 1 109.50000 418.400000
6169 13456 8848 1 109.50000 418.400000
6170 13456 8848 1 109.50000 418.400000
4293 13457 5672 1 109.50000 418.400000
4293 13457 6171 1 109.50000 418.400000
4293 13457 6172 1 109.50000 418.400000
5672 13457 6171 1 109.50000 418.400000
5672 13457 6172 1 109.50000 418.400000
6171 13457 6172 1 109.50000 418.400000
6038 13458 6173 1 109.50000 418.400000
6038 13458 6174 1 109.50000 418.400000
6038 13458 11158 1 109.50000 418.400000
6173 13458 6174 1 109.50000 418.400000
6173 13458 11158 1 109.50000 418.400000
6174 13458 11158 1 109.50000 418.400000
592 13459 4685 1 109.50000 418.400000
592 13459 6176 1 109.50000 418.400000
592 13459 6177 1 109.50000 418.400000
4685 13459 6176 1 109.50000 418.400000
4685 13459 6177 1 109.50000 418.400000
6176 13459 6177 1 109.50000 418.400000
437 13460 3324 1 109.50000 418.400000
437 13460 6179 1 109.50000 418.400000
437 13460 6180 1 109.50000 418.400000
3324 13460 6179 1 109.50000 418.400000
3324 13460 6180 1 109.50000 418.400000
6179 13460 6180 1 109.50000 418.400000
6181 13461 6182 1 109.50000 418.400000
6181 13461 6183 1 109.50000 418.400000
6181 13461 6184 1 109.50000 418.400000
6182 13461 6183 1 109.50000 418.400000
6182 13461 6184 1 109.50000 418.400000
6183 13461 6184 1 109.50000 418.400000
4111 13462 6185 1 109.50000 418.400000
4111 13462 6186 1 109.50000 418.400000
4111 13462 6187 1 109.50000 418.400000
6185 13462 6186 1 109.50000 418.400000
6185 13462 6187 1 109.50000 418.400000
6186 13462 6187 1 109.50000 418.400000
6188 13463 6189 1 109.50000 418.400000
6188 13463 6190 1 109.50000 418.400000
6188 13463 6191 1 109.50000 418.400000
6189 13463 6190 1 109.50000 418.400000
6189 13463 6191 1 109.50000 418.400000
6190 13463 6191 1 109.50000 418.400000
221 13464 5234 1 109.50000 418.400000
221 13464 6192 1 109.50000 418.400000
221 13464 11461 1 109.50000 418.400000
5234 13464 6192 1 109.50000 418.400000
5234 13464 11461 1 109.50000 418.400000
6192 13464 11461 1 109.50000 418.400000
6193 13465 6194 1 109.50000 418.400000
6193 13465 6195 1 109.50000 418.400000
6193 13465 6196 1 109.50000 418.400000
6194 13465 6195 1 109.50000 418.400000
6194 13465 6196 1 109.50000 418.400000
6195 13465 6196 1 109.50000 418.400000
1718 13466 6200 1 109.50000 418.400000
1718 13466 6201 1 109.50000 418.400000
1718 13466 6202 1 109.50000 418.400000
6200 13466 6201 1 109.50000 418.400000
6200 13466 6202 1 109.50000 418.400000
6201 13466 6202 1 109.50000 418.400000
4499 13467 5159 1 109.50000 418.400000
4499 13467 6203 1 109.50000 418.400000
4499 13467 6204 1 109.50000 418.400000
5159 13467 6203 1 109.50000 418.400000
5159 13467 6204 1 109.50000 418.400000
6203 13467 6204 1 109.50000 418.400000
2712 13468 6205 1 109.50000 418.400000
2712 13468 6206 1 109.50000 418.400000
2712 13468 6207 1 109.50000 418.400000
6205 13468 6206 1 109.50000 418.400000
6205 13468 6207 1 109.50000 418.400000
6206 13468 6207 1 109.50000 418.400000
1101 13469 3236 1 109.50000 418.400000
1101 13469 6208 1 109.50000 418.400000
1101 13469 6209 1 109.50000 418.400000
3236 13469 6208 1 109.50000 418.400000
3236 13469 6209 1 109.50000 418.400000
6208 13469 6209 1 109.50000 418.400000
6210 13470 6211 1 109.50000 418.400000
6210 13470 6212 1 109.50000 418.400000
6210 13470 6213 1 109.50000 418.400000
6211 13470 6212 1 109.50000 418.400000
6211 13470 6213 1 109.50000 418.400000
6212 13470 6213 1 109.50000 418.400000
939 13471 4632 1 109.50000 418.400000
939 13471 6120 1 109.50000 418.400000
939 13471 6214 1 109.50000 418.400000
4632 13471 6120 1 109.50000 418.400000
4632 13471 6214 1 109.50000 418.400000
6120 13471 6214 1 109.50000 418.400000
3672 13472 6215 1 109.50000 418.400000
3672 13472 6216 1 109.50000 418.400000
3672 13472 6217 1 109.50000 418.400000
6215 13472 6216 1 109.50000 418.400000
6215 13472 6217 1 109.50000 418.400000
6216 13472 6217 1 109.50000 418.400000
473 13473 3491 1 109.50000 418.400000
473 13473 6218 1 109.50000 418.400000
473 13473 6219 1 109.50000 418.400000
3491 13473 6218 1 109.50000 418.400000
3491 13473 6219 1 109.50000 418.400000
6218 13473 6219 1 109.50000 418.400000
392 13474 5556 1 109.50000 418.400000
392 13474 6136 1 109.50000 418.400000
392 13474 6220 1 109.50000 418.400000
5556 13474 6136 1 109.50000 418.400000
5556 13474 6220 1 109.50000 418.400000
6136 13474 6220 1 109.50000 418.400000
2054 13475 2758 1 109.50000 418.400000
2054 13475 6221 1 109.50000 418.400000
2054 13475 6222 1 109.50000 418.400000
2758 13475 6221 1 109.50000 418.400000
2758 13475 6222 1 109.50000 418.400000
6221 13475 6222 1 109.50000 418.400000
449 13476 6223 1 109.50000 418.400000
449 13476 6224 1 109.50000 418.400000
449 13476 6225 1 109.50000 418.400000
6223 13476 6224 1 109.50000 418.400000
6223 13476 6225 1 109.50000 418.400000
6224 13476 6225 1 109.50000 418.400000
1091 13477 6226 1 109.50000 418.400000
1091 13477 6227 1 109.50000 418.400000
1091 13477 6228 1 109.50000 418.400000
6226 13477 6227 1 109.50000 418.400000
6226 13477 6228 1 109.50000 418.400000
6227 13477 6228 1 109.50000 418.400000
6230 13478 6231 1 109.50000 418.400000
6230 13478 6232 1 109.50000 418.400000
6230 13478 11511 1 109.50000 418.400000
6231 13478 6232 1 109.50000 418.400000
6231 13478 11511 1 109.50000 418.400000
6232 13478 11511 1 109.50000 418.400000
1121 13479 4211 1 109.50000 418.400000
1121 13479 6013 1 109.50000 418.400000
1121 13479 6235 1 109.50000 418.400000
4211 13479 6013 1 109.50000 418.400000
4211 13479 6235 1 109.50000 418.400000
6013 13479 6235 1 109.50000 418.400000
1232 13480 6236 1 109.50000 418.400000
1232 13480 6237 1 109.50000 418.400000
1232 13480 6238 1 109.50000 418.400000
6236 13480 6237 1 109.50000 418.400000
6236 13480 6238 1 109.50000 418.400000
6237 13480 6238 1 109.50000 418.400000
6239 13481 6240 1 109.50000 418.400000
6239 13481 6241 1 109.50000 418.400000
6239 13481 6242 1 109.50000 418.400000
6240 13481 6241 1 109.50000 418.400000
6240 13481 6242 1 109.50000 418.400000
6241 13481 6242 1 109.50000 418.400000
1891 13482 4578 1 109.50000 418.400000
1891 13482 6243 1 109.50000 418.400000
1891 13482 6244 1 109.50000 418.400000
4578 13482 6243 1 109.50000 418.400000
4578 13482 6244 1 109.50000 418.400000
6243 13482 6244 1 109.50000 418.400000
2307 13483 3952 1 109.50000 418.400000
2307 13483 6245 1 109.50000 418.400000
2307 13483 11040 1 109.50000 418.400000
3952 13483 6245 1 109.50000 418.400000
3952 13483 11040 1 109.50000 418.400000
6245 13483 11040 1 109.50000 418.400000
413 13484 2897 1 109.50000 418.400000
413 13484 6246 1 109.50000 418.400000
413 13484 6247 1 109.50000 418.400000
2897 13484 6246 1 109.50000 418.400000
2897 13484 6247 1 109.50000 418.400000
6246 13484 6247 1 109.50000 418.400000
850 13485 6248 1 109.50000 418.400000
850 13485 6249 1 109.50000 418.400000
850 13485 6250 1 109.50000 418.400000
6248 13485 6249 1 109.50000 418.400000
6248 13485 6250 1 109.50000 418.400000
6249 13485 6250 1 109.50000 418.400000
3587 13486 3588 1 109.50000 418.400000
3587 13486 4775 1 109.50000 418.400000
3587 13486 6251 1 109.50000 418.400000
3588 13486 4775 1 109.50000 418.400000
3588 13486 6251 1 109.50000 418.400000
4775 13486 6251 1 109.50000 418.400000
878 13487 6252 1 109.50000 418.400000
878 13487 6253 1 109.50000 418.400000
878 13487 6254 1 109.50000 418.400000
6252 13487 6253 1 109.50000 418.400000
6252 13487 6254 1 109.50000 418.400000
6253 13487 6254 1 109.50000 418.400000
6255 13488 6257 1 109.50000 418.400000
6255 13488 6258 1 109.50000 418.400000
6255 13488 8022 1 109.50000 418.400000
6257 13488 6258 1 109.50000 418.400000
6257 13488 8022 1 109.50000 418.400000
6258 13488 8022 1 109.50000 418.400000
4441 13489 6259 1 109.50000 418.400000
4441 13489 6260 1 109.50000 418.400000
4441 13489 6261 1 109.50000 418.400000
6259 13489 6260 1 109.50000 418.400000
6259 13489 6261 1 109.50000 418.400000
6260 13489 6261 1 109.50000 418.400000
6262 13490 6263 1 109.50000 418.400000
6262 13490 6264 1 109.50000 418.400000
6262 13490 11573 1 109.50000 418.400000
6263 13490 6264 1 109.50000 418.400000
6263 13490 11573 1 109.50000 418.400000
6264 13490 11573 1 109.50000 418.400000
2327 13491 2964 1 109.50000 418.400000
2327 13491 6265 1 109.50000 418.400000
2327 13491 11201 1 109.50000 418.400000
2964 13491 6265 1 109.50000 418.400000
2964 13491 11201 1 109.50000 418.400000
6265 13491 11201 1 109.50000 418.400000
371 13492 372 1 109.50000 418.400000
371 13492 373 1 109.50000 418.400000
371 13492 6180 1 109.50000 418.400000
372 13492 373 1 109.50000 418.400000
372 13492 6180 1 109.50000 418.400000
373 13492 6180 1 109.50000 418.400000
5000 13493 6267 1 109.50000 418.400000
5000 13493 11335 1 109.50000 418.400000
5000 13493 11578 1 109.50000 418.400000
6267 13493 11335 1 109.50000 418.400000
6267 13493 11578 1 109.50000 418.400000
11335 13493 11578 1 109.50000 418.400000
6268 13494 6269 1 109.50000 418.400000
6268 13494 6270 1 109.50000 418.400000
6268 13494 6271 1 109.50000 418.400000
6269 13494 6270 1 109.50000 418.400000
6269 13494 6271 1 109.50000 418.400000
6270 13494 6271 1 109.50000 418.400000
6272 13495 6273 1 109.50000 418.400000
6272 13495 6274 1 109.50000 418.400000
6272 13495 6645 1 109.50000 418.400000
6273 13495 6274 1 109.50000 418.400000
6273 13495 6645 1 109.50000 418.400000
6274 13495 6645 1 109.50000 418.400000
4554 13496 6276 1 109.50000 418.400000
4554 13496 6277 1 109.50000 418.400000
4554 13496 11194 1 109.50000 418.400000
6276 13496 6277 1 109.50000 418.400000
6276 13496 11194 1 109.50000 418.400000
6277 13496 11194 1 109.50000 418.400000
6278 13497 6279 1 109.50000 418.400000
6278 13497 6280 1 109.50000 418.400000
6278 13497 6281 1 109.50000 418.400000
6279 13497 6280 1 109.50000 418.400000
6279 13497 6281 1 109.50000 418.400000
6280 13497 6281 1 109.50000 418.400000
1475 13498 2616 1 109.50000 418.400000
1475 13498 3373 1 109.50000 418.400000
1475 13498 6282 1 109.50000 418.400000
2616 13498 3373 1 109.50000 418.400000
2616 13498 6282 1 109.50000 418.400000
3373 13498 6282 1 109.50000 418.400000
5812 13499 6283 1 109.50000 418.400000
5812 13499 6284 1 109.50000 418.400000
5812 13499 6285 1 109.50000 418.400000
6283 13499 6284 1 109.50000 418.400000
6283 13499 6285 1 109.50000 418.400000
6284 13499 6285 1 109.50000 418.400000
1277 13500 3654 1 109.50000 418.400000
1277 13500 6286 1 109.50000 418.400000
1277 13500 6287 1 109.50000 418.400000
3654 13500 6286 1 109.50000 418.400000
3654 13500 6287 1 109.50000 418.400000
6286 13500 6287 1 109.50000 418.400000
1916 13501 5293 1 109.50000 418.400000
1916 13501 6288 1 109.50000 418.400000
1916 13501 6289 1 109.50000 418.400000
5293 13501 6288 1 109.50000 418.400000
5293 13501 6289 1 109.50000 418.400000
6288 13501 6289 1 109.50000 418.400000
1275 13502 3964 1 109.50000 418.400000
1275 13502 6290 1 109.50000 418.400000
1275 13502 6291 1 109.50000 418.400000
3964 13502 6290 1 109.50000 418.400000
3964 13502 6291 1 109.50000 418.400000
6290 13502 6291 1 109.50000 418.400000
5873 13503 6292 1 109.50000 418.400000
5873 13503 6293 1 109.50000 418.400000
5873 13503 6294 1 109.50000 418.400000
6292 13503 6293 1 109.50000 418.400000
6292 13503 6294 1 109.50000 418.400000
6293 13503 6294 1 109.50000 418.400000
3286 13504 6008 1 109.50000 418.400000
3286 13504 6295 1 109.50000 418.400000
3286 13504 6296 1 109.50000 418.400000
6008 13504 6295 1 109.50000 418.400000
6008 13504 6296 1 109.50000 418.400000
6295 13504 6296 1 109.50000 418.400000
6297 13505 6298 1 109.50000 418.400000
6297 13505 6299 1 109.50000 418.400000
6297 13505 6300 1 109.50000 418.400000
6298 13505 6299 1 109.50000 418.400000
6298 13505 6300 1 109.50000 418.400000
6299 13505 6300 1 109.50000 418.400000
1757 13506 6301 1 109.50000 418.400000
1757 13506 6302 1 109.50000 418.400000
1757 13506 6303 1 109.50000 418.400000
6301 13506 6302 1 109.50000 418.400000
6301 13506 6303 1 109.50000 418.400000
6302 13506 6303 1 109.50000 418.400000
4131 13507 4973 1 109.50000 418.400000
4131 13507 6304 1 109.50000 418.400000
4131 13507 6305 1 109.50000 418.400000
4973 13507 6304 1 109.50000 418.400000
4973 13507 6305 1 109.50000 418.400000
6304 13507 6305 1 109.50000 418.400000
3368 13508 6306 1 109.50000 418.400000
3368 13508 6307 1 109.50000 418.400000
3368 13508 6308 1 109.50000 418.400000
6306 13508 6307 1 109.50000 418.400000
6306 13508 6308 1 109.50000 418.400000
6307 13508 6308 1 109.50000 418.400000
5218 13509 6309 1 109.50000 418.400000
5218 13509 6310 1 109.50000 418.400000
5218 13509 11197 1 109.50000 418.400000
6309 13509 6310 1 109.50000 418.400000
6309 13509 11197 1 109.50000 418.400000
6310 13509 11197 1 109.50000 418.400000
1996 13510 6311 1 109.50000 418.400000
1996 13510 6312 1 109.50000 418.400000
1996 13510 6313 1 109.50000 418.400000
6311 13510 6312 1 109.50000 418.400000
6311 13510 6313 1 109.50000 418.400000
6312 13510 6313 1 109.50000 418.400000
6314 13511 6315 1 109.50000 418.400000
6314 13511 11275 1 109.50000 418.400000
6314 13511 11609 1 109.50000 418.400000
6315 13511 11275 1 109.50000 418.400000
6315 13511 11609 1 109.50000 418.400000
11275 13511 11609 1 109.50000 418.400000
4047 13512 6316 1 109.50000 418.400000
4047 13512 6317 1 109.50000 418.400000
4047 13512 6318 1 109.50000 418.400000
6316 13512 6317 1 109.50000 418.400000
6316 13512 6318 1 109.50000 418.400000
6317 13512 6318 1 109.50000 418.400000
6319 13513 6320 1 109.50000 418.400000
6319 13513 6321 1 109.50000 418.400000
6319 13513 6322 1 109.50000 418.400000
6320 13513 6321 1 109.50000 418.400000
6320 13513 6322 1 109.50000 418.400000
6321 13513 6322 1 109.50000 418.400000
5166 13514 5675 1 109.50000 418.400000
5166 13514 6323 1 109.50000 418.400000
5166 13514 6324 1 109.50000 418.400000
5675 13514 6323 1 109.50000 418.400000
5675 13514 6324 1 109.50000 418.400000
6323 13514 6324 1 109.50000 418.400000
2126 13515 6325 1 109.50000 418.400000
2126 13515 6326 1 109.50000 418.400000
2126 13515 6327 1 109.50000 418.400000
6325 13515 6326 1 109.50000 418.400000
6325 13515 6327 1 109.50000 418.400000
6326 13515 6327 1 109.50000 418.400000
2735 13516 6328 1 109.50000 418.400000
2735 13516 6329 1 109.50000 418.400000
2735 13516 6330 1 109.50000 418.400000
6328 13516 6329 1 109.50000 418.400000
6328 13516 6330 1 109.50000 418.400000
6329 13516 6330 1 109.50000 418.400000
6331 13517 6332 1 109.50000 418.400000
6331 13517 6333 1 109.50000 418.400000
6331 13517 6334 1 109.50000 418.400000
6332 13517 6333 1 109.50000 418.400000
6332 13517 6334 1 109.50000 418.400000
6333 13517 6334 1 109.50000 418.400000
2557 13518 2560 1 109.50000 418.400000
2557 13518 6335 1 109.50000 418.400000
2557 13518 11166 1 109.50000 418.400000
2560 13518 6335 1 109.50000 418.400000
2560 13518 11166 1 109.50000 418.400000
6335 13518 11166 1 109.50000 418.400000
87 13519 5533 1 109.50000 418.400000
87 13519 6336 1 109.50000 418.400000
87 13519 9085 1 109.50000 418.400000
5533 13519 6336 1 109.50000 418.400000
5533 13519 9085 1 109.50000 418.400000
6336 13519 9085 1 109.50000 418.400000
3369 13520 5534 1 109.50000 418.400000
3369 13520 6338 1 109.50000 418.400000
3369 13520 6339 1 109.50000 418.400000
5534 13520 6338 1 109.50000 418.400000
5534 13520 6339 1 109.50000 418.400000
6338 13520 6339 1 109.50000 418.400000
4223 13521 6340 1 109.50000 418.400000
4223 13521 6341 1 109.50000 418.400000
4223 13521 6342 1 109.50000 418.400000
6340 13521 6341 1 109.50000 418.400000
6340 13521 6342 1 109.50000 418.400000
6341 13521 6342 1 109.50000 418.400000
1950 13522 2017 1 109.50000 418.400000
1950 13522 6343 1 109.50000 418.400000
1950 13522 6345 1 109.50000 418.400000
2017 13522 6343 1 109.50000 418.400000
2017 13522 6345 1 109.50000 418.400000
6343 13522 6345 1 109.50000 418.400000
6346 13523 6347 1 109.50000 418.400000
6346 13523 6348 1 109.50000 418.400000
6346 13523 6349 1 109.50000 418.400000
6347 13523 6348 1 109.50000 418.400000
6347 13523 6349 1 109.50000 418.400000
6348 13523 6349 1 109.50000 418.400000
2052 13524 2719 1 109.50000 418.400000
2052 13524 6352 1 109.50000 418.400000
2052 13524 6353 1 109.50000 418.400000
2719 13524 6352 1 109.50000 418.400000
2719 13524 6353 1 109.50000 418.400000
6352 13524 6353 1 109.50000 418.400000
5113 13525 5115 1 109.50000 418.400000
5113 13525 6354 1 109.50000 418.400000
5113 13525 6355 1 109.50000 418.400000
5115 13525 6354 1 109.50000 418.400000
5115 13525 6355 1 109.50000 418.400000
6354 13525 6355 1 109.50000 418.400000
423 13526 3117 1 109.50000 418.400000
423 13526 4717 1 109.50000 418.400000
423 13526 6357 1 109.50000 418.400000
3117 13526 4717 1 109.50000 418.400000
3117 13526 6357 1 109.50000 418.400000
4717 13526 6357 1 109.50000 418.400000
3090 13527 5951 1 109.50000 418.400000
3090 13527 6358 1 109.50000 418.400000
3090 13527 6359 1 109.50000 418.400000
5951 13527 6358 1 109.50000 418.400000
5951 13527 6359 1 109.50000 418.400000
6358 13527 6359 1 109.50000 418.400000
6360 13528 6362 1 109.50000 418.400000
6360 13528 6363 1 109.50000 418.400000
6360 13528 7308 1 109.50000 418.400000
6362 13528 6363 1 109.50000 418.400000
6362 13528 7308 1 109.50000 418.400000
6363 13528 7308 1 109.50000 418.400000
6364 13529 6365 1 109.50000 418.400000
6364 13529 6366 1 109.50000 418.400000
6364 13529 6367 1 109.50000 418.400000
6365 13529 6366 1 109.50000 418.400000
6365 13529 6367 1 109.50000 418.400000
6366 13529 6367 1 109.50000 418.400000
3994 13530 6368 1 109.50000 418.400000
3994 13530 6369 1 109.50000 418.400000
3994 13530 6370 1 109.50000 418.400000
6368 13530 6369 1 109.50000 418.400000
6368 13530 6370 1 109.50000 418.400000
6369 13530 6370 1 109.50000 418.400000
2967 13531 6371 1 109.50000 418.400000
2967 13531 6372 1 109.50000 418.400000
2967 13531 6373 1 109.50000 418.400000
6371 13531 6372 1 109.50000 418.400000
6371 13531 6373 1 109.50000 418.400000
6372 13531 6373 1 109.50000 418.400000
5340 13532 6313 1 109.50000 418.400000
5340 13532 6374 1 109.50000 418.400000
5340 13532 6375 1 109.50000 418.400000
6313 13532 6374 1 109.50000 418.400000
6313 13532 6375 1 109.50000 418.400000
6374 13532 6375 1 109.50000 418.400000
515 13533 5700 1 109.50000 418.400000
515 13533 6376 1 109.50000 418.400000
515 13533 6377 1 109.50000 418.400000
5700 13533 6376 1 109.50000 418.400000
5700 13533 6377 1 109.50000 418.400000
6376 13533 6377 1 109.50000 418.400000
6378 13534 6379 1 109.50000 418.400000
6378 13534 6380 1 109.50000 418.400000
6378 13534 11294 1 109.50000 418.400000
6379 13534 6380 1 109.50000 418.400000
6379 13534 11294 1 109.50000 418.400000
6380 13534 11294 1 109.50000 418.400000
818 13535 2222 1 109.50000 418.400000
818 13535 5510 1 109.50000 418.400000
818 13535 6381 1 109.50000 418.400000
2222 13535 5510 1 109.50000 418.400000
2222 13535 6381 1 109.50000 418.400000
5510 13535 6381 1 109.50000 418.400000
5762 13536 6382 1 109.50000 418.400000
5762 13536 11405 1 109.50000 418.400000
5762 13536 11517 1 109.50000 418.400000
6382 13536 11405 1 109.50000 418.400000
6382 13536 11517 1 109.50000 418.400000
11405 13536 11517 1 109.50000 418.400000
2730 13537 6385 1 109.50000 418.400000
2730 13537 6386 1 109.50000 418.400000
2730 13537 11555 1 109.50000 418.400000
6385 13537 6386 1 109.50000 418.400000
6385 13537 11555 1 109.50000 418.400000
6386 13537 11555 1 109.50000 418.400000
6387 13538 6388 1 109.50000 418.400000
6387 13538 6389 1 109.50000 418.400000
6387 13538 6390 1 109.50000 418.400000
6388 13538 6389 1 109.50000 418.400000
6388 13538 6390 1 109.50000 418.400000
6389 13538 6390 1 109.50000 418.400000
6391 13539 6392 1 109.50000 418.400000
6391 13539 6393 1 109.50000 418.400000
6391 13539 6394 1 109.50000 418.400000
6392 13539 6393 1 109.50000 418.400000
6392 13539 6394 1 109.50000 418.400000
6393 13539 6394 1 109.50000 418.400000
6395 13540 6396 1 109.50000 418.400000
6395 13540 6397 1 109.50000 418.400000
6395 13540 11528 1 109.50000 418.400000
6396 13540 6397 1 109.50000 418.400000
6396 13540 11528 1 109.50000 418.400000
6397 13540 11528 1 109.50000 418.400000
5661 13541 6398 1 109.50000 418.400000
5661 13541 6399 1 109.50000 418.400000
5661 13541 6778 1 109.50000 418.400000
6398 13541 6399 1 109.50000 418.400000
6398 13541 6778 1 109.50000 418.400000
6399 13541 6778 1 109.50000 418.400000
6402 13542 6403 1 109.50000 418.400000
6402 13542 10022 1 109.50000 418.400000
6402 13542 10024 1 109.50000 418.400000
6403 13542 10022 1 109.50000 418.400000
6403 13542 10024 1 109.50000 418.400000
10022 13542 10024 1 109.50000 418.400000
6404 13543 6405 1 109.50000 418.400000
6404 13543 6406 1 109.50000 418.400000
6404 13543 11601 1 109.50000 418.400000
6405 13543 6406 1 109.50000 418.400000
6405 13543 11601 1 109.50000 418.400000
6406 13543 11601 1 109.50000 418.400000
3944 13544 5219 1 109.50000 418.400000
3944 13544 6407 1 109.50000 418.400000
3944 13544 6408 1 109.50000 418.400000
5219 13544 6407 1 109.50000 418.400000
5219 13544 6408 1 109.50000 418.400000
6407 13544 6408 1 109.50000 418.400000
2615 13545 4908 1 109.50000 418.400000
2615 13545 6392 1 109.50000 418.400000
2615 13545 6409 1 109.50000 418.400000
4908 13545 6392 1 109.50000 418.400000
4908 13545 6409 1 109.50000 418.400000
6392 13545 6409 1 109.50000 418.400000
1025 13546 4844 1 109.50000 418.400000
1025 13546 6410 1 109.50000 418.400000
1025 13546 6411 1 109.50000 418.400000
4844 13546 6410 1 109.50000 418.400000
4844 13546 6411 1 109.50000 418.400000
6410 13546 6411 1 109.50000 418.400000
1420 13547 1734 1 109.50000 418.400000
1420 13547 6414 1 109.50000 418.400000
1420 13547 7233 1 109.50000 418.400000
1734 13547 6414 1 109.50000 418.400000
1734 13547 7233 1 109.50000 418.400000
6414 13547 7233 1 109.50000 418.400000
686 13548 4435 1 109.50000 418.400000
686 13548 4862 1 109.50000 418.400000
686 13548 6415 1 109.50000 418.400000
4435 13548 4862 1 109.50000 418.400000
4435 13548 6415 1 109.50000 418.400000
4862 13548 6415 1 109.50000 418.400000
5027 13549 6416 1 109.50000 418.400000
5027 13549 6418 1 109.50000 418.400000
5027 13549 7865 1 109.50000 418.400000
6416 13549 6418 1 109.50000 418.400000
6416 13549 7865 1 109.50000 418.400000
6418 13549 7865 1 109.50000 418.400000
3813 13550 4730 1 109.50000 418.400000
3813 13550 6419 1 109.50000 418.400000
3813 13550 6420 1 109.50000 418.400000
4730 13550 6419 1 109.50000 418.400000
4730 13550 6420 1 109.50000 418.400000
6419 13550 6420 1 109.50000 418.400000
808 13551 3227 1 109.50000 418.400000
808 13551 6421 1 109.50000 418.400000
808 13551 6422 1 109.50000 418.400000
3227 13551 6421 1 109.50000 418.400000
3227 13551 6422 1 109.50000 418.400000
6421 13551 6422 1 109.50000 418.400000
3302 13552 4511 1 109.50000 418.400000
3302 13552 6423 1 109.50000 418.400000
3302 13552 11415 1 109.50000 418.400000
4511 13552 6423 1 109.50000 418.400000
4511 13552 11415 1 109.50000 418.400000
6423 13552 11415 1 109.50000 418.400000
6424 13553 6425 1 109.50000 418.400000
6424 13553 6426 1 109.50000 418.400000
6424 13553 6427 1 109.50000 418.400000
6425 13553 6426 1 109.50000 418.400000
6425 13553 6427 1 109.50000 418.400000
6426 13553 6427 1 109.50000 418.400000
4430 13554 4902 1 109.50000 418.400000
4430 13554 6428 1 109.50000 418.400000
4430 13554 6429 1 109.50000 418.400000
4902 13554 6428 1 109.50000 418.400000
4902 13554 6429 1 109.50000 418.400000
6428 13554 6429 1 109.50000 418.400000
163 13555 5067 1 109.50000 418.400000
163 13555 6430 1 109.50000 418.400000
163 13555 6431 1 109.50000 418.400000
5067 13555 6430 1 109.50000 418.400000
5067 13555 6431 1 109.50000 418.400000
6430 13555 6431 1 109.50000 418.400000
3239 13556 5007 1 109.50000 418.400000
3239 13556 6432 1 109.50000 418.400000
3239 13556 6433 1 109.50000 418.400000
5007 13556 6432 1 109.50000 418.400000
5007 13556 6433 1 109.50000 418.400000
6432 13556 6433 1 109.50000 418.400000
6406 13557 6434 1 109.50000 418.400000
6406 13557 6435 1 109.50000 418.400000
6406 13557 6436 1 109.50000 418.400000
6434 13557 6435 1 109.50000 418.400000
6434 13557 6436 1 109.50000 418.400000
6435 13557 6436 1 109.50000 418.400000
134 13558 5025 1 109.50000 418.400000
134 13558 6438 1 109.50000 418.400000
134 13558 6439 1 109.50000 418.400000
5025 13558 6438 1 109.50000 418.400000
5025 13558 6439 1 109.50000 418.400000
6438 13558 6439 1 109.50000 418.400000
5104 13559 6440 1 109.50000 418.400000
5104 13559 6441 1 109.50000 418.400000
5104 13559 6442 1 109.50000 418.400000
6440 13559 6441 1 109.50000 418.400000
6440 13559 6442 1 109.50000 418.400000
6441 13559 6442 1 109.50000 418.400000
6443 13560 6444 1 109.50000 418.400000
6443 13560 6445 1 109.50000 418.400000
6443 13560 6446 1 109.50000 418.400000
6444 13560 6445 1 109.50000 418.400000
6444 13560 6446 1 109.50000 418.400000
6445 13560 6446 1 109.50000 418.400000
1261 13561 6447 1 109.50000 418.400000
1261 13561 6448 1 109.50000 418.400000
1261 13561 6449 1 109.50000 418.400000
6447 13561 6448 1 109.50000 418.400000
6447 13561 6449 1 109.50000 418.400000
6448 13561 6449 1 109.50000 418.400000
5992 13562 6450 1 109.50000 418.400000
5992 13562 6451 1 109.50000 418.400000
5992 13562 6452 1 109.50000 418.400000
6450 13562 6451 1 109.50000 418.400000
6450 13562 6452 1 109.50000 418.400000
6451 13562 6452 1 109.50000 418.400000
3290 13563 6453 1 109.50000 418.400000
3290 13563 6454 1 109.50000 418.400000
3290 13563 6455 1 109.50000 418.400000
6453 13563 6454 1 109.50000 418.400000
6453 13563 6455 1 109.50000 418.400000
6454 13563 6455 1 109.50000 418.400000
6456 13564 6457 1 109.50000 418.400000
6456 13564 6458 1 109.50000 418.400000
6456 13564 6459 1 109.50000 418.400000
6457 13564 6458 1 109.50000 418.400000
6457 13564 6459 1 109.50000 418.400000
6458 13564 6459 1 109.50000 418.400000
6460 13565 6461 1 109.50000 418.400000
6460 13565 6462 1 109.50000 418.400000
6460 13565 6463 1 109.50000 418.400000
6461 13565 6462 1 109.50000 418.400000
6461 13565 6463 1 109.50000 418.400000
6462 13565 6463 1 109.50000 418.400000
5519 13566 6464 1 109.50000 418.400000
5519 13566 6465 1 109.50000 418.400000
5519 13566 6466 1 109.50000 418.400000
6464 13566 6465 1 109.50000 418.400000
6464 13566 6466 1 109.50000 418.400000
6465 13566 6466 1 109.50000 418.400000
1020 13567 2731 1 109.50000 418.400000
1020 13567 6467 1 109.50000 418.400000
1020 13567 11584 1 109.50000 418.400000
2731 13567 6467 1 109.50000 418.400000
2731 13567 11584 1 109.50000 418.400000
6467 13567 11584 1 109.50000 418.400000
1421 13568 4026 1 109.50000 418.400000
1421 13568 4027 1 109.50000 418.400000
1421 13568 6469 1 109.50000 418.400000
4026 13568 4027 1 109.50000 418.400000
4026 13568 6469 1 109.50000 418.400000
4027 13568 6469 1 109.50000 418.400000
1000 13569 4411 1 109.50000 418.400000
1000 13569 6471 1 109.50000 418.400000
1000 13569 6472 1 109.50000 418.400000
4411 13569 6471 1 109.50000 418.400000
4411 13569 6472 1 109.50000 418.400000
6471 13569 6472 1 109.50000 418.400000
2892 13570 6473 1 109.50000 418.400000
2892 13570 6474 1 109.50000 418.400000
2892 13570 6475 1 109.50000 418.400000
6473 13570 6474 1 109.50000 418.400000
6473 13570 6475 1 109.50000 418.400000
6474 13570 6475 1 109.50000 418.400000
1235 13571 6476 1 109.50000 418.400000
1235 13571 6477 1 109.50000 418.400000
1235 13571 6478 1 109.50000 418.400000
6476 13571 6477 1 109.50000 418.400000
6476 13571 6478 1 109.50000 418.400000
6477 13571 6478 1 109.50000 418.400000
1605 13572 3649 1 109.50000 418.400000
1605 13572 3799 1 109.50000 418.400000
1605 13572 6479 1 109.50000 418.400000
3649 13572 3799 1 109.50000 418.400000
3649 13572 6479 1 109.50000 418.400000
3799 13572 6479 1 109.50000 418.400000
4015 13573 6480 1 109.50000 418.400000
4015 13573 6481 1 109.50000 418.400000
4015 13573 6482 1 109.50000 418.400000
6480 13573 6481 1 109.50000 418.400000
6480 13573 6482 1 109.50000 418.400000
6481 13573 6482 1 109.50000 418.400000
3341 13574 6483 1 109.50000 418.400000
3341 13574 6484 1 109.50000 418.400000
3341 13574 6485 1 109.50000 418.400000
6483 13574 6484 1 109.50000 418.400000
6483 13574 6485 1 109.50000 418.400000
6484 13574 6485 1 109.50000 418.400000
569 13575 1655 1 109.50000 418.400000
569 13575 3453 1 109.50000 418.400000
569 13575 6489 1 109.50000 418.400000
1655 13575 3453 1 109.50000 418.400000
1655 13575 6489 1 109.50000 418.400000
3453 13575 6489 1 109.50000 418.400000
3298 13576 3300 1 109.50000 418.400000
3298 13576 6490 1 109.50000 418.400000
3298 13576 6491 1 109.50000 418.400000
3300 13576 6490 1 109.50000 418.400000
3300 13576 6491 1 109.50000 418.400000
6490 13576 6491 1 109.50000 418.400000
6493 13577 6494 1 109.50000 418.400000
6493 13577 6495 1 109.50000 418.400000
6493 13577 6496 1 109.50000 418.400000
6494 13577 6495 1 109.50000 418.400000
6494 13577 6496 1 109.50000 418.400000
6495 13577 6496 1 109.50000 418.400000
6497 13578 6498 1 109.50000 418.400000
6497 13578 6499 1 109.50000 418.400000
6497 13578 6500 1 109.50000 418.400000
6498 13578 6499 1 109.50000 418.400000
6498 13578 6500 1 109.50000 418.400000
6499 13578 6500 1 109.50000 418.400000
1716 13579 5704 1 109.50000 418.400000
1716 13579 6501 1 109.50000 418.400000
1716 13579 6502 1 109.50000 418.400000
5704 13579 6501 1 109.50000 418.400000
5704 13579 6502 1 109.50000 418.400000
6501 13579 6502 1 109.50000 418.400000
420 13580 4794 1 109.50000 418.400000
420 13580 6503 1 109.50000 418.400000
420 13580 6504 1 109.50000 418.400000
4794 13580 6503 1 109.50000 418.400000
4794 13580 6504 1 109.50000 418.400000
6503 13580 6504 1 109.50000 418.400000
216 13581 1144 1 109.50000 418.400000
216 13581 6505 1 109.50000 418.400000
216 13581 6506 1 109.50000 418.400000
1144 13581 6505 1 109.50000 418.400000
1144 13581 6506 1 109.50000 418.400000
6505 13581 6506 1 109.50000 418.400000
1097 13582 3532 1 109.50000 418.400000
1097 13582 5312 1 109.50000 418.400000
1097 13582 6507 1 109.50000 418.400000
3532 13582 5312 1 109.50000 418.400000
3532 13582 6507 1 109.50000 418.400000
5312 13582 6507 1 109.50000 418.400000
6508 13583 6509 1 109.50000 418.400000
6508 13583 6510 1 109.50000 418.400000
6508 13583 6511 1 109.50000 418.400000
6509 13583 6510 1 109.50000 418.400000
6509 13583 6511 1 109.50000 418.400000
6510 13583 6511 1 109.50000 418.400000
1872 13584 5784 1 109.50000 418.400000
1872 13584 6062 1 109.50000 418.400000
1872 13584 6512 1 109.50000 418.400000
5784 13584 6062 1 109.50000 418.400000
5784 13584 6512 1 109.50000 418.400000
6062 13584 6512 1 109.50000 418.400000
2266 13585 5983 1 109.50000 418.400000
2266 13585 6513 1 109.50000 418.400000
2266 13585 6514 1 109.50000 418.400000
5983 13585 6513 1 109.50000 418.400000
5983 13585 6514 1 109.50000 418.400000
6513 13585 6514 1 109.50000 418.400000
2686 13586 4741 1 109.50000 418.400000
2686 13586 6515 1 109.50000 418.400000
2686 13586 6516 1 109.50000 418.400000
4741 13586 6515 1 109.50000 418.400000
4741 13586 6516 1 109.50000 418.400000
6515 13586 6516 1 109.50000 418.400000
4103 13587 6517 1 109.50000 418.400000
4103 13587 6518 1 109.50000 418.400000
4103 13587 8916 1 109.50000 418.400000
6517 13587 6518 1 109.50000 418.400000
6517 13587 8916 1 109.50000 418.400000
6518 13587 8916 1 109.50000 418.400000
491 13588 5846 1 109.50000 418.400000
491 13588 11384 1 109.50000 418.400000
491 13588 11562 1 109.50000 418.400000
5846 13588 11384 1 109.50000 418.400000
5846 13588 11562 1 109.50000 418.400000
11384 13588 11562 1 109.50000 418.400000
3729 13589 6520 1 109.50000 418.400000
3729 13589 6521 1 109.50000 418.400000
3729 13589 9788 1 109.50000 418.400000
6520 13589 6521 1 109.50000 418.400000
6520 13589 9788 1 109.50000 418.400000
6521 13589 9788 1 109.50000 418.400000
1650 13590 6522 1 109.50000 418.400000
1650 13590 6523 1 109.50000 418.400000
1650 13590 6524 1 109.50000 418.400000
6522 13590 6523 1 109.50000 418.400000
6522 13590 6524 1 109.50000 418.400000
6523 13590 6524 1 109.50000 418.400000
4937 13591 6525 1 109.50000 418.400000
4937 13591 10238 1 109.50000 418.400000
4937 13591 11419 1 109.50000 418.400000
6525 13591 10238 1 109.50000 418.400000
6525 13591 11419 1 109.50000 418.400000
10238 13591 11419 1 109.50000 418.400000
4777 13592 5251 1 109.50000 418.400000
4777 13592 6526 1 109.50000 418.400000
4777 13592 11569 1 109.50000 418.400000
5251 13592 6526 1 109.50000 418.400000
5251 13592 11569 1 109.50000 418.400000
6526 13592 11569 1 109.50000 418.400000
1664 13593 6527 1 109.50000 418.400000
1664 13593 6528 1 109.50000 418.400000
1664 13593 6529 1 109.50000 418.400000
6527 13593 6528 1 109.50000 418.400000
6527 13593 6529 1 109.50000 418.400000
6528 13593 6529 1 109.50000 418.400000
505 13594 1594 1 109.50000 418.400000
505 13594 6530 1 109.50000 418.400000
505 13594 6531 1 109.50000 418.400000
1594 13594 6530 1 109.50000 418.400000
1594 13594 6531 1 109.50000 418.400000
6530 13594 6531 1 109.50000 418.400000
6532 13595 6533 1 109.50000 418.400000
6532 13595 6534 1 109.50000 418.400000
6532 13595 6535 1 109.50000 418.400000
6533 13595 6534 1 109.50000 418.400000
6533 13595 6535 1 109.50000 418.400000
6534 13595 6535 1 109.50000 418.400000
667 13596 2672 1 109.50000 418.400000
667 13596 6536 1 109.50000 418.400000
667 13596 6537 1 109.50000 418.400000
2672 13596 6536 1 109.50000 418.400000
2672 13596 6537 1 109.50000 418.400000
6536 13596 6537 1 109.50000 418.400000
600 13597 5830 1 109.50000 418.400000
600 13597 6538 1 109.50000 418.400000
600 13597 6539 1 109.50000 418.400000
5830 13597 6538 1 109.50000 418.400000
5830 13597 6539 1 109.50000 418.400000
6538 13597 6539 1 109.50000 418.400000
787 13598 2709 1 109.50000 418.400000
787 13598 3980 1 109.50000 418.400000
787 13598 5754 1 109.50000 418.400000
2709 13598 3980 1 109.50000 418.400000
2709 13598 5754 1 109.50000 418.400000
3980 13598 5754 1 109.50000 418.400000
6540 13599 6541 1 109.50000 418.400000
6540 13599 6542 1 109.50000 418.400000
6540 13599 6543 1 109.50000 418.400000
6541 13599 6542 1 109.50000 418.400000
6541 13599 6543 1 109.50000 418.400000
6542 13599 6543 1 109.50000 418.400000
6544 13600 6545 1 109.50000 418.400000
6544 13600 8277 1 109.50000 418.400000
6544 13600 8279 1 109.50000 418.400000
6545 13600 8277 1 109.50000 418.400000
6545 13600 8279 1 109.50000 418.400000
8277 13600 8279 1 109.50000 418.400000
490 13601 1063 1 109.50000 418.400000
490 13601 1064 1 109.50000 418.400000
490 13601 1065 1 109.50000 418.400000
1063 13601 1064 1 109.50000 418.400000
1063 13601 1065 1 109.50000 418.400000
1064 13601 1065 1 109.50000 418.400000
552 13602 6550 1 109.50000 418.400000
552 13602 6551 1 109.50000 418.400000
552 13602 6822 1 109.50000 418.400000
6550 13602 6551 1 109.50000 418.400000
6550 13602 6822 1 109.50000 418.400000
6551 13602 6822 1 109.50000 418.400000
5902 13603 5925 1 109.50000 418.400000
5902 13603 6553 1 109.50000 418.400000
5902 13603 6554 1 109.50000 418.400000
5925 13603 6553 1 109.50000 418.400000
5925 13603 6554 1 109.50000 418.400000
6553 13603 6554 1 109.50000 418.400000
870 13604 2515 1 109.50000 418.400000
870 13604 5948 1 109.50000 418.400000
870 13604 6555 1 109.50000 418.400000
2515 13604 5948 1 109.50000 418.400000
2515 13604 6555 1 109.50000 418.400000
5948 13604 6555 1 109.50000 418.400000
499 13605 6558 1 109.50000 418.400000
499 13605 11308 1 109.50000 418.400000
499 13605 11378 1 109.50000 418.400000
6558 13605 11308 1 109.50000 418.400000
6558 13605 11378 1 109.50000 418.400000
11308 13605 11378 1 109.50000 418.400000
6559 13606 6560 1 109.50000 418.400000
6559 13606 6561 1 109.50000 418.400000
6559 13606 6562 1 109.50000 418.400000
6560 13606 6561 1 109.50000 418.400000
6560 13606 6562 1 109.50000 418.400000
6561 13606 6562 1 109.50000 418.400000
2444 13607 6563 1 109.50000 418.400000
2444 13607 6564 1 109.50000 418.400000
2444 13607 6565 1 109.50000 418.400000
6563 13607 6564 1 109.50000 418.400000
6563 13607 6565 1 109.50000 418.400000
6564 13607 6565 1 109.50000 418.400000
6566 13608 6567 1 109.50000 418.400000
6566 13608 6568 1 109.50000 418.400000
6566 13608 11371 1 109.50000 418.400000
6567 13608 6568 1 109.50000 418.400000
6567 13608 11371 1 109.50000 418.400000
6568 13608 11371 1 109.50000 418.400000
1945 13609 6569 1 109.50000 418.400000
1945 13609 6570 1 109.50000 418.400000
1945 13609 11245 1 109.50000 418.400000
6569 13609 6570 1 109.50000 418.400000
6569 13609 11245 1 109.50000 418.400000
6570 13609 11245 1 109.50000 418.400000
238 13610 3590 1 109.50000 418.400000
238 13610 6141 1 109.50000 418.400000
238 13610 6571 1 109.50000 418.400000
3590 13610 6141 1 109.50000 418.400000
3590 13610 6571 1 109.50000 418.400000
6141 13610 6571 1 109.50000 418.400000
6572 13611 6573 1 109.50000 418.400000
6572 13611 10080 1 109.50000 418.400000
6572 13611 11512 1 109.50000 418.400000
6573 13611 10080 1 109.50000 418.400000
6573 13611 11512 1 109.50000 418.400000
10080 13611 11512 1 109.50000 418.400000
4468 13612 6575 1 109.50000 418.400000
4468 13612 6576 1 109.50000 418.400000
4468 13612 6577 1 109.50000 418.400000
6575 13612 6576 1 109.50000 418.400000
6575 13612 6577 1 109.50000 418.400000
6576 13612 6577 1 109.50000 418.400000
1433 13613 6578 1 109.50000 418.400000
1433 13613 6579 1 109.50000 418.400000
1433 13613 6580 1 109.50000 418.400000
6578 13613 6579 1 109.50000 418.400000
6578 13613 6580 1 109.50000 418.400000
6579 13613 6580 1 109.50000 418.400000
1896 13614 6581 1 109.50000 418.400000
1896 13614 11203 1 109.50000 418.400000
1896 13614 11332 1 109.50000 418.400000
6581 13614 11203 1 109.50000 418.400000
6581 13614 11332 1 109.50000 418.400000
11203 13614 11332 1 109.50000 418.400000
6582 13615 6583 1 109.50000 418.400000
6582 13615 6584 1 109.50000 418.400000
6582 13615 6585 1 109.50000 418.400000
6583 13615 6584 1 109.50000 418.400000
6583 13615 6585 1 109.50000 418.400000
6584 13615 6585 1 109.50000 418.400000
2380 13616 3156 1 109.50000 418.400000
2380 13616 4547 1 109.50000 418.400000
2380 13616 6586 1 109.50000 418.400000
3156 13616 4547 1 109.50000 418.400000
3156 13616 6586 1 109.50000 418.400000
4547 13616 6586 1 109.50000 418.400000
6589 13617 6590 1 109.50000 418.400000
6589 13617 6591 1 109.50000 418.400000
6589 13617 6616 1 109.50000 418.400000
6590 13617 6591 1 109.50000 418.400000
6590 13617 6616 1 109.50000 418.400000
6591 13617 6616 1 109.50000 418.400000
2013 13618 2962 1 109.50000 418.400000
2013 13618 6592 1 109.50000 418.400000
2013 13618 6593 1 109.50000 418.400000
2962 13618 6592 1 109.50000 418.400000
2962 13618 6593 1 109.50000 418.400000
6592 13618 6593 1 109.50000 418.400000
418 13619 6594 1 109.50000 418.400000
418 13619 6595 1 109.50000 418.400000
418 13619 6596 1 109.50000 418.400000
6594 13619 6595 1 109.50000 418.400000
6594 13619 6596 1 109.50000 418.400000
6595 13619 6596 1 109.50000 418.400000
2345 13620 6597 1 109.50000 418.400000
2345 13620 6598 1 109.50000 418.400000
2345 13620 6599 1 109.50000 418.400000
6597 13620 6598 1 109.50000 418.400000
6597 13620 6599 1 109.50000 418.400000
6598 13620 6599 1 109.50000 418.400000
6602 13621 6603 1 109.50000 418.400000
6602 13621 6604 1 109.50000 418.400000
6602 13621 6605 1 109.50000 418.400000
6603 13621 6604 1 109.50000 418.400000
6603 13621 6605 1 109.50000 418.400000
6604 13621 6605 1 109.50000 418.400000
1392 13622 5733 1 109.50000 418.400000
1392 13622 6606 1 109.50000 418.400000
1392 13622 6607 1 109.50000 418.400000
5733 13622 6606 1 109.50000 418.400000
5733 13622 6607 1 109.50000 418.400000
6606 13622 6607 1 109.50000 418.400000
6608 13623 6609 1 109.50000 418.400000
6608 13623 6610 1 109.50000 418.400000
6608 13623 6611 1 109.50000 418.400000
6609 13623 6610 1 109.50000 418.400000
6609 13623 6611 1 109.50000 418.400000
6610 13623 6611 1 109.50000 418.400000
2696 13624 6612 1 109.50000 418.400000
2696 13624 6613 1 109.50000 418.400000
2696 13624 6614 1 109.50000 418.400000
6612 13624 6613 1 109.50000 418.400000
6612 13624 6614 1 109.50000 418.400000
6613 13624 6614 1 109.50000 418.400000
965 13625 6615 1 109.50000 418.400000
965 13625 6616 1 109.50000 418.400000
965 13625 6617 1 109.50000 418.400000
6615 13625 6616 1 109.50000 418.400000
6615 13625 6617 1 109.50000 418.400000
6616 13625 6617 1 109.50000 418.400000
3061 13626 4696 1 109.50000 418.400000
3061 13626 6618 1 109.50000 418.400000
3061 13626 6619 1 109.50000 418.400000
4696 13626 6618 1 109.50000 418.400000
4696 13626 6619 1 109.50000 418.400000
6618 13626 6619 1 109.50000 418.400000
2706 13627 6620 1 109.50000 418.400000
2706 13627 6621 1 109.50000 418.400000
2706 13627 7477 1 109.50000 418.400000
6620 13627 6621 1 109.50000 418.400000
6620 13627 7477 1 109.50000 418.400000
6621 13627 7477 1 109.50000 418.400000
3787 13628 5290 1 109.50000 418.400000
3787 13628 6623 1 109.50000 418.400000
3787 13628 6624 1 109.50000 418.400000
5290 13628 6623 1 109.50000 418.400000
5290 13628 6624 1 109.50000 418.400000
6623 13628 6624 1 109.50000 418.400000
6625 13629 6626 1 109.50000 418.400000
6625 13629 6627 1 109.50000 418.400000
6625 13629 6628 1 109.50000 418.400000
6626 13629 6627 1 109.50000 418.400000
6626 13629 6628 1 109.50000 418.400000
6627 13629 6628 1 109.50000 418.400000
6250 13630 6629 1 109.50000 418.400000
6250 13630 6630 1 109.50000 418.400000
6250 13630 9981 1 109.50000 418.400000
6629 13630 6630 1 109.50000 418.400000
6629 13630 9981 1 109.50000 418.400000
6630 13630 9981 1 109.50000 418.400000
4237 13631 5401 1 109.50000 418.400000
4237 13631 6631 1 109.50000 418.400000
4237 13631 6632 1 109.50000 418.400000
5401 13631 6631 1 109.50000 418.400000
5401 13631 6632 1 109.50000 418.400000
6631 13631 6632 1 109.50000 418.400000
2372 13632 2563 1 109.50000 418.400000
2372 13632 4729 1 109.50000 418.400000
2372 13632 5464 1 109.50000 418.400000
2563 13632 4729 1 109.50000 418.400000
2563 13632 5464 1 109.50000 418.400000
4729 13632 5464 1 109.50000 418.400000
4905 13633 6633 1 109.50000 418.400000
4905 13633 6634 1 109.50000 418.400000
4905 13633 6635 1 109.50000 418.400000
6633 13633 6634 1 109.50000 418.400000
6633 13633 6635 1 109.50000 418.400000
6634 13633 6635 1 109.50000 418.400000
6127 13634 6636 1 109.50000 418.400000
6127 13634 6637 1 109.50000 418.400000
6127 13634 6638 1 109.50000 418.400000
6636 13634 6637 1 109.50000 418.400000
6636 13634 6638 1 109.50000 418.400000
6637 13634 6638 1 109.50000 418.400000
1808 13635 6640 1 109.50000 418.400000
1808 13635 6641 1 109.50000 418.400000
1808 13635 6642 1 109.50000 418.400000
6640 13635 6641 1 109.50000 418.400000
6640 13635 6642 1 109.50000 418.400000
6641 13635 6642 1 109.50000 418.400000
5132 13636 6644 1 109.50000 418.400000
5132 13636 6645 1 109.50000 418.400000
5132 13636 6646 1 109.50000 418.400000
6644 13636 6645 1 109.50000 418.400000
6644 13636 6646 1 109.50000 418.400000
6645 13636 6646 1 109.50000 418.400000
6651 13637 6652 1 109.50000 418.400000
6651 13637 6653 1 109.50000 418.400000
6651 13637 6654 1 109.50000 418.400000
6652 13637 6653 1 109.50000 418.400000
6652 13637 6654 1 109.50000 418.400000
6653 13637 6654 1 109.50000 418.400000
4393 13638 6655 1 109.50000 418.400000
4393 13638 6656 1 109.50000 418.400000
4393 13638 6657 1 109.50000 418.400000
6655 13638 6656 1 109.50000 418.400000
6655 13638 6657 1 109.50000 418.400000
6656 13638 6657 1 109.50000 418.400000
6383 13639 6658 1 109.50000 418.400000
6383 13639 11415 1 109.50000 418.400000
6383 13639 11582 1 109.50000 418.400000
6658 13639 11415 1 109.50000 418.400000
6658 13639 11582 1 109.50000 418.400000
11415 13639 11582 1 109.50000 418.400000
4656 13640 6659 1 109.50000 418.400000
4656 13640 6660 1 109.50000 418.400000
4656 13640 6661 1 109.50000 418.400000
6659 13640 6660 1 109.50000 418.400000
6659 13640 6661 1 109.50000 418.400000
6660 13640 6661 1 109.50000 418.400000
185 13641 5640 1 109.50000 418.400000
185 13641 6662 1 109.50000 418.400000
185 13641 6663 1 109.50000 418.400000
5640 13641 6662 1 109.50000 418.400000
5640 13641 6663 1 109.50000 418.400000
6662 13641 6663 1 109.50000 418.400000
4861 13642 6535 1 109.50000 418.400000
4861 13642 6664 1 109.50000 418.400000
4861 13642 6665 1 109.50000 418.400000
6535 13642 6664 1 109.50000 418.400000
6535 13642 6665 1 109.50000 418.400000
6664 13642 6665 1 109.50000 418.400000
4206 13643 4239 1 109.50000 418.400000
4206 13643 6666 1 109.50000 418.400000
4206 13643 6667 1 109.50000 418.400000
4239 13643 6666 1 109.50000 418.400000
4239 13643 6667 1 109.50000 418.400000
6666 13643 6667 1 109.50000 418.400000
1800 13644 6668 1 109.50000 418.400000
1800 13644 6669 1 109.50000 418.400000
1800 13644 6670 1 109.50000 418.400000
6668 13644 6669 1 109.50000 418.400000
6668 13644 6670 1 109.50000 418.400000
6669 13644 6670 1 109.50000 418.400000
4703 13645 6457 1 109.50000 418.400000
4703 13645 6671 1 109.50000 418.400000
4703 13645 6672 1 109.50000 418.400000
6457 13645 6671 1 109.50000 418.400000
6457 13645 6672 1 109.50000 418.400000
6671 13645 6672 1 109.50000 418.400000
5397 13646 6673 1 109.50000 418.400000
5397 13646 6674 1 109.50000 418.400000
5397 13646 6675 1 109.50000 418.400000
6673 13646 6674 1 109.50000 418.400000
6673 13646 6675 1 109.50000 418.400000
6674 13646 6675 1 109.50000 418.400000
2787 13647 6676 1 109.50000 418.400000
2787 13647 6677 1 109.50000 418.400000
2787 13647 6678 1 109.50000 418.400000
6676 13647 6677 1 109.50000 418.400000
6676 13647 6678 1 109.50000 418.400000
6677 13647 6678 1 109.50000 418.400000
6679 13648 6680 1 109.50000 418.400000
6679 13648 6681 1 109.50000 418.400000
6679 13648 6682 1 109.50000 418.400000
6680 13648 6681 1 109.50000 418.400000
6680 13648 6682 1 109.50000 418.400000
6681 13648 6682 1 109.50000 418.400000
203 13649 4267 1 109.50000 418.400000
203 13649 4374 1 109.50000 418.400000
203 13649 6683 1 109.50000 418.400000
4267 13649 4374 1 109.50000 418.400000
4267 13649 6683 1 109.50000 418.400000
4374 13649 6683 1 109.50000 418.400000
2628 13650 4564 1 109.50000 418.400000
2628 13650 6133 1 109.50000 418.400000
2628 13650 6684 1 109.50000 418.400000
4564 13650 6133 1 109.50000 418.400000
4564 13650 6684 1 109.50000 418.400000
6133 13650 6684 1 109.50000 418.400000
915 13651 4839 1 109.50000 418.400000
915 13651 6685 1 109.50000 418.400000
915 13651 6686 1 109.50000 418.400000
4839 13651 6685 1 109.50000 418.400000
4839 13651 6686 1 109.50000 418.400000
6685 13651 6686 1 109.50000 418.400000
1603 13652 2059 1 109.50000 418.400000
1603 13652 5910 1 109.50000 418.400000
1603 13652 6687 1 109.50000 418.400000
2059 13652 5910 1 109.50000 418.400000
2059 13652 6687 1 109.50000 418.400000
5910 13652 6687 1 109.50000 418.400000
1109 13653 6688 1 109.50000 418.400000
1109 13653 6689 1 109.50000 418.400000
1109 13653 6690 1 109.50000 418.400000
6688 13653 6689 1 109.50000 418.400000
6688 13653 6690 1 109.50000 418.400000
6689 13653 6690 1 109.50000 418.400000
6691 13654 6692 1 109.50000 418.400000
6691 13654 6693 1 109.50000 418.400000
6691 13654 6694 1 109.50000 418.400000
6692 13654 6693 1 109.50000 418.400000
6692 13654 6694 1 109.50000 418.400000
6693 13654 6694 1 109.50000 418.400000
6695 13655 6696 1 109.50000 418.400000
6695 13655 6697 1 109.50000 418.400000
6695 13655 6698 1 109.50000 418.400000
6696 13655 6697 1 109.50000 418.400000
6696 13655 6698 1 109.50000 418.400000
6697 13655 6698 1 109.50000 418.400000
6699 13656 6700 1 109.50000 418.400000
6699 13656 6701 1 109.50000 418.400000
6699 13656 6702 1 109.50000 418.400000
6700 13656 6701 1 109.50000 418.400000
6700 13656 6702 1 109.50000 418.400000
6701 13656 6702 1 109.50000 418.400000
3616 13657 3665 1 109.50000 418.400000
3616 13657 4837 1 109.50000 418.400000
3616 13657 6703 1 109.50000 418.400000
3665 13657 4837 1 109.50000 418.400000
3665 13657 6703 1 109.50000 418.400000
4837 13657 6703 1 109.50000 418.400000
4583 13658 4584 1 109.50000 418.400000
4583 13658 6705 1 109.50000 418.400000
4583 13658 6706 1 109.50000 418.400000
4584 13658 6705 1 109.50000 418.400000
4584 13658 6706 1 109.50000 418.400000
6705 13658 6706 1 109.50000 418.400000
5319 13659 6216 1 109.50000 418.400000
5319 13659 6707 1 109.50000 418.400000
5319 13659 6708 1 109.50000 418.400000
6216 13659 6707 1 109.50000 418.400000
6216 13659 6708 1 109.50000 418.400000
6707 13659 6708 1 109.50000 418.400000
3935 13660 3936 1 109.50000 418.400000
3935 13660 6709 1 109.50000 418.400000
3935 13660 6710 1 109.50000 418.400000
3936 13660 6709 1 109.50000 418.400000
3936 13660 6710 1 109.50000 418.400000
6709 13660 6710 1 109.50000 418.400000
1733 13661 3990 1 109.50000 418.400000
1733 13661 5245 1 109.50000 418.400000
1733 13661 6711 1 109.50000 418.400000
3990 13661 5245 1 109.50000 418.400000
3990 13661 6711 1 109.50000 418.400000
5245 13661 6711 1 109.50000 418.400000
6712 13662 6713 1 109.50000 418.400000
6712 13662 6714 1 109.50000 418.400000
6712 13662 6715 1 109.50000 418.400000
6713 13662 6714 1 109.50000 418.400000
6713 13662 6715 1 109.50000 418.400000
6714 13662 6715 1 109.50000 418.400000
576 13663 1840 1 109.50000 418.400000
576 13663 2975 1 109.50000 418.400000
576 13663 6716 1 109.50000 418.400000
1840 13663 2975 1 109.50000 418.400000
1840 13663 6716 1 109.50000 418.400000
2975 13663 6716 1 109.50000 418.400000
6717 13664 6718 1 109.50000 418.400000
6717 13664 6719 1 109.50000 418.400000
6717 13664 6720 1 109.50000 418.400000
6718 13664 6719 1 109.50000 418.400000
6718 13664 6720 1 109.50000 418.400000
6719 13664 6720 1 109.50000 418.400000
6721 13665 6722 1 109.50000 418.400000
6721 13665 6723 1 109.50000 418.400000
6721 13665 11149 1 109.50000 418.400000
6722 13665 6723 1 109.50000 418.400000
6722 13665 11149 1 109.50000 418.400000
6723 13665 11149 1 109.50000 418.400000
3900 13666 5538 1 109.50000 418.400000
3900 13666 6593 1 109.50000 418.400000
3900 13666 6724 1 109.50000 418.400000
5538 13666 6593 1 109.50000 418.400000
5538 13666 6724 1 109.50000 418.400000
6593 13666 6724 1 109.50000 418.400000
4991 13667 6726 1 109.50000 418.400000
4991 13667 11256 1 109.50000 418.400000
4991 13667 11391 1 109.50000 418.400000
6726 13667 11256 1 109.50000 418.400000
6726 13667 11391 1 109.50000 418.400000
11256 13667 11391 1 109.50000 418.400000
2381 13668 3818 1 109.50000 418.400000
2381 13668 6727 1 109.50000 418.400000
2381 13668 6728 1 109.50000 418.400000
3818 13668 6727 1 109.50000 418.400000
3818 13668 6728 1 109.50000 418.400000
6727 13668 6728 1 109.50000 418.400000
2408 13669 6729 1 109.50000 418.400000
2408 13669 6730 1 109.50000 418.400000
2408 13669 6731 1 109.50000 418.400000
6729 13669 6730 1 109.50000 418.400000
6729 13669 6731 1 109.50000 418.400000
6730 13669 6731 1 109.50000 418.400000
2643 13670 4028 1 109.50000 418.400000
2643 13670 6732 1 109.50000 418.400000
2643 13670 6733 1 109.50000 418.400000
4028 13670 6732 1 109.50000 418.400000
4028 13670 6733 1 109.50000 418.400000
6732 13670 6733 1 109.50000 418.400000
3929 13671 5694 1 109.50000 418.400000
3929 13671 5695 1 109.50000 418.400000
3929 13671 6736 1 109.50000 418.400000
5694 13671 5695 1 109.50000 418.400000
5694 13671 6736 1 109.50000 418.400000
5695 13671 6736 1 109.50000 418.400000
659 13672 6738 1 109.50000 418.400000
659 13672 6739 1 109.50000 418.400000
659 13672 6740 1 109.50000 418.400000
6738 13672 6739 1 109.50000 418.400000
6738 13672 6740 1 109.50000 418.400000
6739 13672 6740 1 109.50000 418.400000
5582 13673 6741 1 109.50000 418.400000
5582 13673 6742 1 109.50000 418.400000
5582 13673 11364 1 109.50000 418.400000
6741 13673 6742 1 109.50000 418.400000
6741 13673 11364 1 109.50000 418.400000
6742 13673 11364 1 109.50000 418.400000
5734 13674 6743 1 109.50000 418.400000
5734 13674 6744 1 109.50000 418.400000
5734 13674 6745 1 109.50000 418.400000
6743 13674 6744 1 109.50000 418.400000
6743 13674 6745 1 109.50000 418.400000
6744 13674 6745 1 109.50000 418.400000
5794 13675 6522 1 109.50000 418.400000
5794 13675 6746 1 109.50000 418.400000
5794 13675 6747 1 109.50000 418.400000
6522 13675 6746 1 109.50000 418.400000
6522 13675 6747 1 109.50000 418.400000
6746 13675 6747 1 109.50000 418.400000
6748 13676 6749 1 109.50000 418.400000
6748 13676 6750 1 109.50000 418.400000
6748 13676 6751 1 109.50000 418.400000
6749 13676 6750 1 109.50000 418.400000
6749 13676 6751 1 109.50000 418.400000
6750 13676 6751 1 109.50000 418.400000
6752 13677 6753 1 109.50000 418.400000
6752 13677 6754 1 109.50000 418.400000
6752 13677 6755 1 109.50000 418.400000
6753 13677 6754 1 109.50000 418.400000
6753 13677 6755 1 109.50000 418.400000
6754 13677 6755 1 109.50000 418.400000
815 13678 6756 1 109.50000 418.400000
815 13678 6757 1 109.50000 418.400000
815 13678 11544 1 109.50000 418.400000
6756 13678 6757 1 109.50000 418.400000
6756 13678 11544 1 109.50000 418.400000
6757 13678 11544 1 109.50000 418.400000
5390 13679 5765 1 109.50000 418.400000
5390 13679 6758 1 109.50000 418.400000
5390 13679 10518 1 109.50000 418.400000
5765 13679 6758 1 109.50000 418.400000
5765 13679 10518 1 109.50000 418.400000
6758 13679 10518 1 109.50000 418.400000
4778 13680 6759 1 109.50000 418.400000
4778 13680 6760 1 109.50000 418.400000
4778 13680 6761 1 109.50000 418.400000
6759 13680 6760 1 109.50000 418.400000
6759 13680 6761 1 109.50000 418.400000
6760 13680 6761 1 109.50000 418.400000
4128 13681 6764 1 109.50000 418.400000
4128 13681 7358 1 109.50000 418.400000
4128 13681 7359 1 109.50000 418.400000
6764 13681 7358 1 109.50000 418.400000
6764 13681 7359 1 109.50000 418.400000
7358 13681 7359 1 109.50000 418.400000
5916 13682 6766 1 109.50000 418.400000
5916 13682 6767 1 109.50000 418.400000
5916 13682 7446 1 109.50000 418.400000
6766 13682 6767 1 109.50000 418.400000
6766 13682 7446 1 109.50000 418.400000
6767 13682 7446 1 109.50000 418.400000
5986 13683 6768 1 109.50000 418.400000
5986 13683 6769 1 109.50000 418.400000
5986 13683 6770 1 109.50000 418.400000
6768 13683 6769 1 109.50000 418.400000
6768 13683 6770 1 109.50000 418.400000
6769 13683 6770 1 109.50000 418.400000
3342 13684 6771 1 109.50000 418.400000
3342 13684 6772 1 109.50000 418.400000
3342 13684 6773 1 109.50000 418.400000
6771 13684 6772 1 109.50000 418.400000
6771 13684 6773 1 109.50000 418.400000
6772 13684 6773 1 109.50000 418.400000
2553 13685 6774 1 109.50000 418.400000
2553 13685 6775 1 109.50000 418.400000
2553 13685 6776 1 109.50000 418.400000
6774 13685 6775 1 109.50000 418.400000
6774 13685 6776 1 109.50000 418.400000
6775 13685 6776 1 109.50000 418.400000
6398 13686 6400 1 109.50000 418.400000
6398 13686 6777 1 109.50000 418.400000
6398 13686 6779 1 109.50000 418.400000
6400 13686 6777 1 109.50000 418.400000
6400 13686 6779 1 109.50000 418.400000
6777 13686 6779 1 109.50000 418.400000
2134 13687 3702 1 109.50000 418.400000
2134 13687 6781 1 109.50000 418.400000
2134 13687 6782 1 109.50000 418.400000
3702 13687 6781 1 109.50000 418.400000
3702 13687 6782 1 109.50000 418.400000
6781 13687 6782 1 109.50000 418.400000
838 13688 6783 1 109.50000 418.400000
838 13688 6784 1 109.50000 418.400000
838 13688 11397 1 109.50000 418.400000
6783 13688 6784 1 109.50000 418.400000
6783 13688 11397 1 109.50000 418.400000
6784 13688 11397 1 109.50000 418.400000
2625 13689 2627 1 109.50000 418.400000
2625 13689 6786 1 109.50000 418.400000
2625 13689 7373 1 109.50000 418.400000
2627 13689 6786 1 109.50000 418.400000
2627 13689 7373 1 109.50000 418.400000
6786 13689 7373 1 109.50000 418.400000
4569 13690 6788 1 109.50000 418.400000
4569 13690 6789 1 109.50000 418.400000
4569 13690 6790 1 109.50000 418.400000
6788 13690 6789 1 109.50000 418.400000
6788 13690 6790 1 109.50000 418.400000
6789 13690 6790 1 109.50000 418.400000
2948 13691 6791 1 109.50000 418.400000
2948 13691 6792 1 109.50000 418.400000
2948 13691 6793 1 109.50000 418.400000
6791 13691 6792 1 109.50000 418.400000
6791 13691 6793 1 109.50000 418.400000
6792 13691 6793 1 109.50000 418.400000
3712 13692 3714 1 109.50000 418.400000
3712 13692 3957 1 109.50000 418.400000
3712 13692 6795 1 109.50000 418.400000
3714 13692 3957 1 109.50000 418.400000
3714 13692 6795 1 109.50000 418.400000
3957 13692 6795 1 109.50000 418.400000
1633 13693 5232 1 109.50000 418.400000
1633 13693 6796 1 109.50000 418.400000
1633 13693 6797 1 109.50000 418.400000
5232 13693 6796 1 109.50000 418.400000
5232 13693 6797 1 109.50000 418.400000
6796 13693 6797 1 109.50000 418.400000
5051 13694 6798 1 109.50000 418.400000
5051 13694 6799 1 109.50000 418.400000
5051 13694 6800 1 109.50000 418.400000
6798 13694 6799 1 109.50000 418.400000
6798 13694 6800 1 109.50000 418.400000
6799 13694 6800 1 109.50000 418.400000
3294 13695 6801 1 109.50000 418.400000
3294 13695 6802 1 109.50000 418.400000
3294 13695 6803 1 109.50000 418.400000
6801 13695 6802 1 109.50000 418.400000
6801 13695 6803 1 109.50000 418.400000
6802 13695 6803 1 109.50000 418.400000
5917 13696 6804 1 109.50000 418.400000
5917 13696 6805 1 109.50000 418.400000
5917 13696 6806 1 109.50000 418.400000
6804 13696 6805 1 109.50000 418.400000
6804 13696 6806 1 109.50000 418.400000
6805 13696 6806 1 109.50000 418.400000
1693 13697 6807 1 109.50000 418.400000
1693 13697 6808 1 109.50000 418.400000
1693 13697 6809 1 109.50000 418.400000
6807 13697 6808 1 109.50000 418.400000
6807 13697 6809 1 109.50000 418.400000
6808 13697 6809 1 109.50000 418.400000
584 13698 3572 1 109.50000 418.400000
584 13698 3884 1 109.50000 418.400000
584 13698 5351 1 109.50000 418.400000
3572 13698 3884 1 109.50000 418.400000
3572 13698 5351 1 109.50000 418.400000
3884 13698 5351 1 109.50000 418.400000
3151 13699 4152 1 109.50000 418.400000
3151 13699 6349 1 109.50000 418.400000
3151 13699 6811 1 109.50000 418.400000
4152 13699 6349 1 109.50000 418.400000
4152 13699 6811 1 109.50000 418.400000
6349 13699 6811 1 109.50000 418.400000
3487 13700 4189 1 109.50000 418.400000
3487 13700 6423 1 109.50000 418.400000
3487 13700 6812 1 109.50000 418.400000
4189 13700 6423 1 109.50000 418.400000
4189 13700 6812 1 109.50000 418.400000
6423 13700 6812 1 109.50000 418.400000
935 13701 3522 1 109.50000 418.400000
935 13701 6813 1 109.50000 418.400000
935 13701 6814 1 109.50000 418.400000
3522 13701 6813 1 109.50000 418.400000
3522 13701 6814 1 109.50000 418.400000
6813 13701 6814 1 109.50000 418.400000
3474 13702 3873 1 109.50000 418.400000
3474 13702 6815 1 109.50000 418.400000
3474 13702 6816 1 109.50000 418.400000
3873 13702 6815 1 109.50000 418.400000
3873 13702 6816 1 109.50000 418.400000
6815 13702 6816 1 109.50000 418.400000
4104 13703 6354 1 109.50000 418.400000
4104 13703 6817 1 109.50000 418.400000
4104 13703 6818 1 109.50000 418.400000
6354 13703 6817 1 109.50000 418.400000
6354 13703 6818 1 109.50000 418.400000
6817 13703 6818 1 109.50000 418.400000
6819 13704 6820 1 109.50000 418.400000
6819 13704 6821 1 109.50000 418.400000
6819 13704 6822 1 109.50000 418.400000
6820 13704 6821 1 109.50000 418.400000
6820 13704 6822 1 109.50000 418.400000
6821 13704 6822 1 109.50000 418.400000
1289 13705 1648 1 109.50000 418.400000
1289 13705 3480 1 109.50000 418.400000
1289 13705 3577 1 109.50000 418.400000
1648 13705 3480 1 109.50000 418.400000
1648 13705 3577 1 109.50000 418.400000
3480 13705 3577 1 109.50000 418.400000
5229 13706 6825 1 109.50000 418.400000
5229 13706 6826 1 109.50000 418.400000
5229 13706 6827 1 109.50000 418.400000
6825 13706 6826 1 109.50000 418.400000
6825 13706 6827 1 109.50000 418.400000
6826 13706 6827 1 109.50000 418.400000
4949 13707 6828 1 109.50000 418.400000
4949 13707 6829 1 109.50000 418.400000
4949 13707 6830 1 109.50000 418.400000
6828 13707 6829 1 109.50000 418.400000
6828 13707 6830 1 109.50000 418.400000
6829 13707 6830 1 109.50000 418.400000
478 13708 3146 1 109.50000 418.400000
478 13708 6831 1 109.50000 418.400000
478 13708 6832 1 109.50000 418.400000
3146 13708 6831 1 109.50000 418.400000
3146 13708 6832 1 109.50000 418.400000
6831 13708 6832 1 109.50000 418.400000
5824 13709 6502 1 109.50000 418.400000
5824 13709 6833 1 109.50000 418.400000
5824 13709 6834 1 109.50000 418.400000
6502 13709 6833 1 109.50000 418.400000
6502 13709 6834 1 109.50000 418.400000
6833 13709 6834 1 109.50000 418.400000
6214 13710 6835 1 109.50000 418.400000
6214 13710 6837 1 109.50000 418.400000
6214 13710 7878 1 109.50000 418.400000
6835 13710 6837 1 109.50000 418.400000
6835 13710 7878 1 109.50000 418.400000
6837 13710 7878 1 109.50000 418.400000
716 13711 2640 1 109.50000 418.400000
716 13711 6838 1 109.50000 418.400000
716 13711 6839 1 109.50000 418.400000
2640 13711 6838 1 109.50000 418.400000
2640 13711 6839 1 109.50000 418.400000
6838 13711 6839 1 109.50000 418.400000
2171 13712 2984 1 109.50000 418.400000
2171 13712 3859 1 109.50000 418.400000
2171 13712 6840 1 109.50000 418.400000
2984 13712 3859 1 109.50000 418.400000
2984 13712 6840 1 109.50000 418.400000
3859 13712 6840 1 109.50000 418.400000
993 13713 6802 1 109.50000 418.400000
993 13713 6841 1 109.50000 418.400000
993 13713 6842 1 109.50000 418.400000
6802 13713 6841 1 109.50000 418.400000
6802 13713 6842 1 109.50000 418.400000
6841 13713 6842 1 109.50000 418.400000
4297 13714 5407 1 109.50000 418.400000
4297 13714 6843 1 109.50000 418.400000
4297 13714 6844 1 109.50000 418.400000
5407 13714 6843 1 109.50000 418.400000
5407 13714 6844 1 109.50000 418.400000
6843 13714 6844 1 109.50000 418.400000
6845 13715 6846 1 109.50000 418.400000
6845 13715 6847 1 109.50000 418.400000
6845 13715 6848 1 109.50000 418.400000
6846 13715 6847 1 109.50000 418.400000
6846 13715 6848 1 109.50000 418.400000
6847 13715 6848 1 109.50000 418.400000
3871 13716 6849 1 109.50000 418.400000
3871 13716 6850 1 109.50000 418.400000
3871 13716 6851 1 109.50000 418.400000
6849 13716 6850 1 109.50000 418.400000
6849 13716 6851 1 109.50000 418.400000
6850 13716 6851 1 109.50000 418.400000
1981 13717 3762 1 109.50000 418.400000
1981 13717 6852 1 109.50000 418.400000
1981 13717 6853 1 109.50000 418.400000
3762 13717 6852 1 109.50000 418.400000
3762 13717 6853 1 109.50000 418.400000
6852 13717 6853 1 109.50000 418.400000
3379 13718 4995 1 109.50000 418.400000
3379 13718 6854 1 109.50000 418.400000
3379 13718 6855 1 109.50000 418.400000
4995 13718 6854 1 109.50000 418.400000
4995 13718 6855 1 109.50000 418.400000
6854 13718 6855 1 109.50000 418.400000
6856 13719 6857 1 109.50000 418.400000
6856 13719 6858 1 109.50000 418.400000
6856 13719 6859 1 109.50000 418.400000
6857 13719 6858 1 109.50000 418.400000
6857 13719 6859 1 109.50000 418.400000
6858 13719 6859 1 109.50000 418.400000
3289 13720 3937 1 109.50000 418.400000
3289 13720 6860 1 109.50000 418.400000
3289 13720 6862 1 109.50000 418.400000
3937 13720 6860 1 109.50000 418.400000
3937 13720 6862 1 109.50000 418.400000
6860 13720 6862 1 109.50000 418.400000
2575 13721 2600 1 109.50000 418.400000
2575 13721 6188 1 109.50000 418.400000
2575 13721 6863 1 109.50000 418.400000
2600 13721 6188 1 109.50000 418.400000
2600 13721 6863 1 109.50000 418.400000
6188 13721 6863 1 109.50000 418.400000
4228 13722 6864 1 109.50000 418.400000
4228 13722 6865 1 109.50000 418.400000
4228 13722 6866 1 109.50000 418.400000
6864 13722 6865 1 109.50000 418.400000
6864 13722 6866 1 109.50000 418.400000
6865 13722 6866 1 109.50000 418.400000
711 13723 6868 1 109.50000 418.400000
711 13723 6869 1 109.50000 418.400000
711 13723 8735 1 109.50000 418.400000
6868 13723 6869 1 109.50000 418.400000
6868 13723 8735 1 109.50000 418.400000
6869 13723 8735 1 109.50000 418.400000
4859 13724 5202 1 109.50000 418.400000
4859 13724 6870 1 109.50000 418.400000
4859 13724 6871 1 109.50000 418.400000
5202 13724 6870 1 109.50000 418.400000
5202 13724 6871 1 109.50000 418.400000
6870 13724 6871 1 109.50000 418.400000
5408 13725 6872 1 109.50000 418.400000
5408 13725 6873 1 109.50000 418.400000
5408 13725 6874 1 109.50000 418.400000
6872 13725 6873 1 109.50000 418.400000
6872 13725 6874 1 109.50000 418.400000
6873 13725 6874 1 109.50000 418.400000
1888 13726 6875 1 109.50000 418.400000
1888 13726 6876 1 109.50000 418.400000
1888 13726 6877 1 109.50000 418.400000
6875 13726 6876 1 109.50000 418.400000
6875 13726 6877 1 109.50000 418.400000
6876 13726 6877 1 109.50000 418.400000
3199 13727 3273 1 109.50000 418.400000
3199 13727 6878 1 109.50000 418.400000
3199 13727 6879 1 109.50000 418.400000
3273 13727 6878 1 109.50000 418.400000
3273 13727 6879 1 109.50000 418.400000
6878 13727 6879 1 109.50000 418.400000
6020 13728 6880 1 109.50000 418.400000
6020 13728 6881 1 109.50000 418.400000
6020 13728 6882 1 109.50000 418.400000
6880 13728 6881 1 109.50000 418.400000
6880 13728 6882 1 109.50000 418.400000
6881 13728 6882 1 109.50000 418.400000
2781 13729 6544 1 109.50000 418.400000
2781 13729 6883 1 109.50000 418.400000
2781 13729 6884 1 109.50000 418.400000
6544 13729 6883 1 109.50000 418.400000
6544 13729 6884 1 109.50000 418.400000
6883 13729 6884 1 109.50000 418.400000
462 13730 3890 1 109.50000 418.400000
462 13730 6885 1 109.50000 418.400000
462 13730 6886 1 109.50000 418.400000
3890 13730 6885 1 109.50000 418.400000
3890 13730 6886 1 109.50000 418.400000
6885 13730 6886 1 109.50000 418.400000
1391 13731 3797 1 109.50000 418.400000
1391 13731 3867 1 109.50000 418.400000
1391 13731 6887 1 109.50000 418.400000
3797 13731 3867 1 109.50000 418.400000
3797 13731 6887 1 109.50000 418.400000
3867 13731 6887 1 109.50000 418.400000
1315 13732 1473 1 109.50000 418.400000
1315 13732 4526 1 109.50000 418.400000
1315 13732 6888 1 109.50000 418.400000
1473 13732 4526 1 109.50000 418.400000
1473 13732 6888 1 109.50000 418.400000
4526 13732 6888 1 109.50000 418.400000
3371 13733 6889 1 109.50000 418.400000
3371 13733 6890 1 109.50000 418.400000
3371 13733 6961 1 109.50000 418.400000
6889 13733 6890 1 109.50000 418.400000
6889 13733 6961 1 109.50000 418.400000
6890 13733 6961 1 109.50000 418.400000
2554 13734 5964 1 109.50000 418.400000
2554 13734 6891 1 109.50000 418.400000
2554 13734 6892 1 109.50000 418.400000
5964 13734 6891 1 109.50000 418.400000
5964 13734 6892 1 109.50000 418.400000
6891 13734 6892 1 109.50000 418.400000
3012 13735 3719 1 109.50000 418.400000
3012 13735 6893 1 109.50000 418.400000
3012 13735 6894 1 109.50000 418.400000
3719 13735 6893 1 109.50000 418.400000
3719 13735 6894 1 109.50000 418.400000
6893 13735 6894 1 109.50000 418.400000
6895 13736 6896 1 109.50000 418.400000
6895 13736 6898 1 109.50000 418.400000
6895 13736 10480 1 109.50000 418.400000
6896 13736 6898 1 109.50000 418.400000
6896 13736 10480 1 109.50000 418.400000
6898 13736 10480 1 109.50000 418.400000
5922 13737 6902 1 109.50000 418.400000
5922 13737 6903 1 109.50000 418.400000
5922 13737 6904 1 109.50000 418.400000
6902 13737 6903 1 109.50000 418.400000
6902 13737 6904 1 109.50000 418.400000
6903 13737 6904 1 109.50000 418.400000
3181 13738 4359 1 109.50000 418.400000
3181 13738 5431 1 109.50000 418.400000
3181 13738 6905 1 109.50000 418.400000
4359 13738 5431 1 109.50000 418.400000
4359 13738 6905 1 109.50000 418.400000
5431 13738 6905 1 109.50000 418.400000
6906 13739 6907 1 109.50000 418.400000
6906 13739 6908 1 109.50000 418.400000
6906 13739 6909 1 109.50000 418.400000
6907 13739 6908 1 109.50000 418.400000
6907 13739 6909 1 109.50000 418.400000
6908 13739 6909 1 109.50000 418.400000
3330 13740 5739 1 109.50000 418.400000
3330 13740 6697 1 109.50000 418.400000
3330 13740 6910 1 109.50000 418.400000
5739 13740 6697 1 109.50000 418.400000
5739 13740 6910 1 109.50000 418.400000
6697 13740 6910 1 109.50000 418.400000
4895 13741 6368 1 109.50000 418.400000
4895 13741 6911 1 109.50000 418.400000
4895 13741 6912 1 109.50000 418.400000
6368 13741 6911 1 109.50000 418.400000
6368 13741 6912 1 109.50000 418.400000
6911 13741 6912 1 109.50000 418.400000
2029 13742 6913 1 109.50000 418.400000
2029 13742 6914 1 109.50000 418.400000
2029 13742 6915 1 109.50000 418.400000
6913 13742 6914 1 109.50000 418.400000
6913 13742 6915 1 109.50000 418.400000
6914 13742 6915 1 109.50000 418.400000
2015 13743 6916 1 109.50000 418.400000
2015 13743 6917 1 109.50000 418.400000
2015 13743 11270 1 109.50000 418.400000
6916 13743 6917 1 109.50000 418.400000
6916 13743 11270 1 109.50000 418.400000
6917 13743 11270 1 109.50000 418.400000
6476 13744 6918 1 109.50000 418.400000
6476 13744 6919 1 109.50000 418.400000
6476 13744 6920 1 109.50000 418.400000
6918 13744 6919 1 109.50000 418.400000
6918 13744 6920 1 109.50000 418.400000
6919 13744 6920 1 109.50000 418.400000
2046 13745 6921 1 109.50000 418.400000
2046 13745 11166 1 109.50000 418.400000
2046 13745 11185 1 109.50000 418.400000
6921 13745 11166 1 109.50000 418.400000
6921 13745 11185 1 109.50000 418.400000
11166 13745 11185 1 109.50000 418.400000
6202 13746 6922 1 109.50000 418.400000
6202 13746 6923 1 109.50000 418.400000
6202 13746 7506 1 109.50000 418.400000
6922 13746 6923 1 109.50000 418.400000
6922 13746 7506 1 109.50000 418.400000
6923 13746 7506 1 109.50000 418.400000
391 13747 2238 1 109.50000 418.400000
391 13747 3325 1 109.50000 418.400000
391 13747 6925 1 109.50000 418.400000
2238 13747 3325 1 109.50000 418.400000
2238 13747 6925 1 109.50000 418.400000
3325 13747 6925 1 109.50000 418.400000
1717 13748 6926 1 109.50000 418.400000
1717 13748 11313 1 109.50000 418.400000
1717 13748 11494 1 109.50000 418.400000
6926 13748 11313 1 109.50000 418.400000
6926 13748 11494 1 109.50000 418.400000
11313 13748 11494 1 109.50000 418.400000
4609 13749 6927 1 109.50000 418.400000
4609 13749 6928 1 109.50000 418.400000
4609 13749 6929 1 109.50000 418.400000
6927 13749 6928 1 109.50000 418.400000
6927 13749 6929 1 109.50000 418.400000
6928 13749 6929 1 109.50000 418.400000
1163 13750 2229 1 109.50000 418.400000
1163 13750 2661 1 109.50000 418.400000
1163 13750 6930 1 109.50000 418.400000
2229 13750 2661 1 109.50000 418.400000
2229 13750 6930 1 109.50000 418.400000
2661 13750 6930 1 109.50000 418.400000
2278 13751 6831 1 109.50000 418.400000
2278 13751 6933 1 109.50000 418.400000
2278 13751 6934 1 109.50000 418.400000
6831 13751 6933 1 109.50000 418.400000
6831 13751 6934 1 109.50000 418.400000
6933 13751 6934 1 109.50000 418.400000
5716 13752 6935 1 109.50000 418.400000
5716 13752 6936 1 109.50000 418.400000
5716 13752 6937 1 109.50000 418.400000
6935 13752 6936 1 109.50000 418.400000
6935 13752 6937 1 109.50000 418.400000
6936 13752 6937 1 109.50000 418.400000
6655 13753 6938 1 109.50000 418.400000
6655 13753 6939 1 109.50000 418.400000
6655 13753 6940 1 109.50000 418.400000
6938 13753 6939 1 109.50000 418.400000
6938 13753 6940 1 109.50000 418.400000
6939 13753 6940 1 109.50000 418.400000
2645 13754 6941 1 109.50000 418.400000
2645 13754 6942 1 109.50000 418.400000
2645 13754 6943 1 109.50000 418.400000
6941 13754 6942 1 109.50000 418.400000
6941 13754 6943 1 109.50000 418.400000
6942 13754 6943 1 109.50000 418.400000
5433 13755 5878 1 109.50000 418.400000
5433 13755 6944 1 109.50000 418.400000
5433 13755 6945 1 109.50000 418.400000
5878 13755 6944 1 109.50000 418.400000
5878 13755 6945 1 109.50000 418.400000
6944 13755 6945 1 109.50000 418.400000
3852 13756 5201 1 109.50000 418.400000
3852 13756 6946 1 109.50000 418.400000
3852 13756 6947 1 109.50000 418.400000
5201 13756 6946 1 109.50000 418.400000
5201 13756 6947 1 109.50000 418.400000
6946 13756 6947 1 109.50000 418.400000
1962 13757 6950 1 109.50000 418.400000
1962 13757 10032 1 109.50000 418.400000
1962 13757 11351 1 109.50000 418.400000
6950 13757 10032 1 109.50000 418.400000
6950 13757 11351 1 109.50000 418.400000
10032 13757 11351 1 109.50000 418.400000
6951 13758 6952 1 109.50000 418.400000
6951 13758 6953 1 109.50000 418.400000
6951 13758 6954 1 109.50000 418.400000
6952 13758 6953 1 109.50000 418.400000
6952 13758 6954 1 109.50000 418.400000
6953 13758 6954 1 109.50000 418.400000
624 13759 6955 1 109.50000 418.400000
624 13759 6956 1 109.50000 418.400000
624 13759 6957 1 109.50000 418.400000
6955 13759 6956 1 109.50000 418.400000
6955 13759 6957 1 109.50000 418.400000
6956 13759 6957 1 109.50000 418.400000
2226 13760 4100 1 109.50000 418.400000
2226 13760 4101 1 109.50000 418.400000
2226 13760 6958 1 109.50000 418.400000
4100 13760 4101 1 109.50000 418.400000
4100 13760 6958 1 109.50000 418.400000
4101 13760 6958 1 109.50000 418.400000
2314 13761 2362 1 109.50000 418.400000
2314 13761 2369 1 109.50000 418.400000
2314 13761 6960 1 109.50000 418.400000
2362 13761 2369 1 109.50000 418.400000
2362 13761 6960 1 109.50000 418.400000
2369 13761 6960 1 109.50000 418.400000
4433 13762 5666 1 109.50000 418.400000
4433 13762 6961 1 109.50000 418.400000
4433 13762 11218 1 109.50000 418.400000
5666 13762 6961 1 109.50000 418.400000
5666 13762 11218 1 109.50000 418.400000
6961 13762 11218 1 109.50000 418.400000
2637 13763 6962 1 109.50000 418.400000
2637 13763 6963 1 109.50000 418.400000
2637 13763 7739 1 109.50000 418.400000
6962 13763 6963 1 109.50000 418.400000
6962 13763 7739 1 109.50000 418.400000
6963 13763 7739 1 109.50000 418.400000
4912 13764 6966 1 109.50000 418.400000
4912 13764 6967 1 109.50000 418.400000
4912 13764 8893 1 109.50000 418.400000
6966 13764 6967 1 109.50000 418.400000
6966 13764 8893 1 109.50000 418.400000
6967 13764 8893 1 109.50000 418.400000
1829 13765 4922 1 109.50000 418.400000
1829 13765 5163 1 109.50000 418.400000
1829 13765 6968 1 109.50000 418.400000
4922 13765 5163 1 109.50000 418.400000
4922 13765 6968 1 109.50000 418.400000
5163 13765 6968 1 109.50000 418.400000
2510 13766 3728 1 109.50000 418.400000
2510 13766 3729 1 109.50000 418.400000
2510 13766 6970 1 109.50000 418.400000
3728 13766 3729 1 109.50000 418.400000
3728 13766 6970 1 109.50000 418.400000
3729 13766 6970 1 109.50000 418.400000
1723 13767 6972 1 109.50000 418.400000
1723 13767 6973 1 109.50000 418.400000
1723 13767 6974 1 109.50000 418.400000
6972 13767 6973 1 109.50000 418.400000
6972 13767 6974 1 109.50000 418.400000
6973 13767 6974 1 109.50000 418.400000
6096 13768 6975 1 109.50000 418.400000
6096 13768 6976 1 109.50000 418.400000
6096 13768 6977 1 109.50000 418.400000
6975 13768 6976 1 109.50000 418.400000
6975 13768 6977 1 109.50000 418.400000
6976 13768 6977 1 109.50000 418.400000
2240 13769 6978 1 109.50000 418.400000
2240 13769 11358 1 109.50000 418.400000
2240 13769 11508 1 109.50000 418.400000
6978 13769 11358 1 109.50000 418.400000
6978 13769 11508 1 109.50000 418.400000
11358 13769 11508 1 109.50000 418.400000
5802 13770 6979 1 109.50000 418.400000
5802 13770 6980 1 109.50000 418.400000
5802 13770 6981 1 109.50000 418.400000
6979 13770 6980 1 109.50000 418.400000
6979 13770 6981 1 109.50000 418.400000
6980 13770 6981 1 109.50000 418.400000
3492 13771 3493 1 109.50000 418.400000
3492 13771 7714 1 109.50000 418.400000
3492 13771 11183 1 109.50000 418.400000
3493 13771 7714 1 109.50000 418.400000
3493 13771 11183 1 109.50000 418.400000
7714 13771 11183 1 109.50000 418.400000
5422 13772 6527 1 109.50000 418.400000
5422 13772 6982 1 109.50000 418.400000
5422 13772 6983 1 109.50000 418.400000
6527 13772 6982 1 109.50000 418.400000
6527 13772 6983 1 109.50000 418.400000
6982 13772 6983 1 109.50000 418.400000
2728 13773 6984 1 109.50000 418.400000
2728 13773 6985 1 109.50000 418.400000
2728 13773 6986 1 109.50000 418.400000
6984 13773 6985 1 109.50000 418.400000
6984 13773 6986 1 109.50000 418.400000
6985 13773 6986 1 109.50000 418.400000
2470 13774 6987 1 109.50000 418.400000
2470 13774 6988 1 109.50000 418.400000
2470 13774 10625 1 109.50000 418.400000
6987 13774 6988 1 109.50000 418.400000
6987 13774 10625 1 109.50000 418.400000
6988 13774 10625 1 109.50000 418.400000
5485 13775 6676 1 109.50000 418.400000
5485 13775 6989 1 109.50000 418.400000
5485 13775 6990 1 109.50000 418.400000
6676 13775 6989 1 109.50000 418.400000
6676 13775 6990 1 109.50000 418.400000
6989 13775 6990 1 109.50000 418.400000
1085 13776 2907 1 109.50000 418.400000
1085 13776 6991 1 109.50000 418.400000
1085 13776 6992 1 109.50000 418.400000
2907 13776 6991 1 109.50000 418.400000
2907 13776 6992 1 109.50000 418.400000
6991 13776 6992 1 109.50000 418.400000
573 13777 2760 1 109.50000 418.400000
573 13777 6993 1 109.50000 418.400000
573 13777 6994 1 109.50000 418.400000
2760 13777 6993 1 109.50000 418.400000
2760 13777 6994 1 109.50000 418.400000
6993 13777 6994 1 109.50000 418.400000
4036 13778 4254 1 109.50000 418.400000
4036 13778 6995 1 109.50000 418.400000
4036 13778 6996 1 109.50000 418.400000
4254 13778 6995 1 109.50000 418.400000
4254 13778 6996 1 109.50000 418.400000
6995 13778 6996 1 109.50000 418.400000
1688 13779 2617 1 109.50000 418.400000
1688 13779 6691 1 109.50000 418.400000
1688 13779 6997 1 109.50000 418.400000
2617 13779 6691 1 109.50000 418.400000
2617 13779 6997 1 109.50000 418.400000
6691 13779 6997 1 109.50000 418.400000
228 13780 3445 1 109.50000 418.400000
228 13780 6998 1 109.50000 418.400000
228 13780 6999 1 109.50000 418.400000
3445 13780 6998 1 109.50000 418.400000
3445 13780 6999 1 109.50000 418.400000
6998 13780 6999 1 109.50000 418.400000
172 13781 2673 1 109.50000 418.400000
172 13781 5088 1 109.50000 418.400000
172 13781 7000 1 109.50000 418.400000
2673 13781 5088 1 109.50000 418.400000
2673 13781 7000 1 109.50000 418.400000
5088 13781 7000 1 109.50000 418.400000
2043 13782 4814 1 109.50000 418.400000
2043 13782 7001 1 109.50000 418.400000
2043 13782 11471 1 109.50000 418.400000
4814 13782 7001 1 109.50000 418.400000
4814 13782 11471 1 109.50000 418.400000
7001 13782 11471 1 109.50000 418.400000
510 13783 3268 1 109.50000 418.400000
510 13783 6257 1 109.50000 418.400000
510 13783 7002 1 109.50000 418.400000
3268 13783 6257 1 109.50000 418.400000
3268 13783 7002 1 109.50000 418.400000
6257 13783 7002 1 109.50000 418.400000
2660 13784 7003 1 109.50000 418.400000
2660 13784 7004 1 109.50000 418.400000
2660 13784 7005 1 109.50000 418.400000
7003 13784 7004 1 109.50000 418.400000
7003 13784 7005 1 109.50000 418.400000
7004 13784 7005 1 109.50000 418.400000
4630 13785 5386 1 109.50000 418.400000
4630 13785 6732 1 109.50000 418.400000
4630 13785 7006 1 109.50000 418.400000
5386 13785 6732 1 109.50000 418.400000
5386 13785 7006 1 109.50000 418.400000
6732 13785 7006 1 109.50000 418.400000
5710 13786 7007 1 109.50000 418.400000
5710 13786 7008 1 109.50000 418.400000
5710 13786 7009 1 109.50000 418.400000
7007 13786 7008 1 109.50000 418.400000
7007 13786 7009 1 109.50000 418.400000
7008 13786 7009 1 109.50000 418.400000
1822 13787 7010 1 109.50000 418.400000
1822 13787 7011 1 109.50000 418.400000
1822 13787 7012 1 109.50000 418.400000
7010 13787 7011 1 109.50000 418.400000
7010 13787 7012 1 109.50000 418.400000
7011 13787 7012 1 109.50000 418.400000
7013 13788 7014 1 109.50000 418.400000
7013 13788 7015 1 109.50000 418.400000
7013 13788 7016 1 109.50000 418.400000
7014 13788 7015 1 109.50000 418.400000
7014 13788 7016 1 109.50000 418.400000
7015 13788 7016 1 109.50000 418.400000
2319 13789 4412 1 109.50000 418.400000
2319 13789 7017 1 109.50000 418.400000
2319 13789 7018 1 109.50000 418.400000
4412 13789 7017 1 109.50000 418.400000
4412 13789 7018 1 109.50000 418.400000
7017 13789 7018 1 109.50000 418.400000
5975 13790 7019 1 109.50000 418.400000
5975 13790 7020 1 109.50000 418.400000
5975 13790 11468 1 109.50000 418.400000
7019 13790 7020 1 109.50000 418.400000
7019 13790 11468 1 109.50000 418.400000
7020 13790 11468 1 109.50000 418.400000
164 13791 7021 1 109.50000 418.400000
164 13791 7022 1 109.50000 418.400000
164 13791 7023 1 109.50000 418.400000
7021 13791 7022 1 109.50000 418.400000
7021 13791 7023 1 109.50000 418.400000
7022 13791 7023 1 109.50000 418.400000
7024 13792 7025 1 109.50000 418.400000
7024 13792 7026 1 109.50000 418.400000
7024 13792 7027 1 109.50000 418.400000
7025 13792 7026 1 109.50000 418.400000
7025 13792 7027 1 109.50000 418.400000
7026 13792 7027 1 109.50000 418.400000
7028 13793 7029 1 109.50000 418.400000
7028 13793 7030 1 109.50000 418.400000
7028 13793 7031 1 109.50000 418.400000
7029 13793 7030 1 109.50000 418.400000
7029 13793 7031 1 109.50000 418.400000
7030 13793 7031 1 109.50000 418.400000
707 13794 7032 1 109.50000 418.400000
707 13794 7033 1 109.50000 418.400000
707 13794 7034 1 109.50000 418.400000
7032 13794 7033 1 109.50000 418.400000
7032 13794 7034 1 109.50000 418.400000
7033 13794 7034 1 109.50000 418.400000
1111 13795 7035 1 109.50000 418.400000
1111 13795 7036 1 109.50000 418.400000
1111 13795 7037 1 109.50000 418.400000
7035 13795 7036 1 109.50000 418.400000
7035 13795 7037 1 109.50000 418.400000
7036 13795 7037 1 109.50000 418.400000
1495 13796 4981 1 109.50000 418.400000
1495 13796 11210 1 109.50000 418.400000
1495 13796 11509 1 109.50000 418.400000
4981 13796 11210 1 109.50000 418.400000
4981 13796 11509 1 109.50000 418.400000
11210 13796 11509 1 109.50000 418.400000
7038 13797 7039 1 109.50000 418.400000
7038 13797 7040 1 109.50000 418.400000
7038 13797 7041 1 109.50000 418.400000
7039 13797 7040 1 109.50000 418.400000
7039 13797 7041 1 109.50000 418.400000
7040 13797 7041 1 109.50000 418.400000
4093 13798 5973 1 109.50000 418.400000
4093 13798 7042 1 109.50000 418.400000
4093 13798 7043 1 109.50000 418.400000
5973 13798 7042 1 109.50000 418.400000
5973 13798 7043 1 109.50000 418.400000
7042 13798 7043 1 109.50000 418.400000
2647 13799 7044 1 109.50000 418.400000
2647 13799 7045 1 109.50000 418.400000
2647 13799 7046 1 109.50000 418.400000
7044 13799 7045 1 109.50000 418.400000
7044 13799 7046 1 109.50000 418.400000
7045 13799 7046 1 109.50000 418.400000
7047 13800 7048 1 109.50000 418.400000
7047 13800 7049 1 109.50000 418.400000
7047 13800 7050 1 109.50000 418.400000
7048 13800 7049 1 109.50000 418.400000
7048 13800 7050 1 109.50000 418.400000
7049 13800 7050 1 109.50000 418.400000
279 13801 2122 1 109.50000 418.400000
279 13801 2680 1 109.50000 418.400000
279 13801 7051 1 109.50000 418.400000
2122 13801 2680 1 109.50000 418.400000
2122 13801 7051 1 109.50000 418.400000
2680 13801 7051 1 109.50000 418.400000
5093 13802 5322 1 109.50000 418.400000
5093 13802 7052 1 109.50000 418.400000
5093 13802 11442 1 109.50000 418.400000
5322 13802 7052 1 109.50000 418.400000
5322 13802 11442 1 109.50000 418.400000
7052 13802 11442 1 109.50000 418.400000
3647 13803 5530 1 109.50000 418.400000
3647 13803 7053 1 109.50000 418.400000
3647 13803 7054 1 109.50000 418.400000
5530 13803 7053 1 109.50000 418.400000
5530 13803 7054 1 109.50000 418.400000
7053 13803 7054 1 109.50000 418.400000
1657 13804 1923 1 109.50000 418.400000
1657 13804 2105 1 109.50000 418.400000
1657 13804 7055 1 109.50000 418.400000
1923 13804 2105 1 109.50000 418.400000
1923 13804 7055 1 109.50000 418.400000
2105 13804 7055 1 109.50000 418.400000
157 13805 6678 1 109.50000 418.400000
157 13805 7056 1 109.50000 418.400000
157 13805 7057 1 109.50000 418.400000
6678 13805 7056 1 109.50000 418.400000
6678 13805 7057 1 109.50000 418.400000
7056 13805 7057 1 109.50000 418.400000
4498 13806 7058 1 109.50000 418.400000
4498 13806 7059 1 109.50000 418.400000
4498 13806 7060 1 109.50000 418.400000
7058 13806 7059 1 109.50000 418.400000
7058 13806 7060 1 109.50000 418.400000
7059 13806 7060 1 109.50000 418.400000
7061 13807 7062 1 109.50000 418.400000
7061 13807 7064 1 109.50000 418.400000
7061 13807 9061 1 109.50000 418.400000
7062 13807 7064 1 109.50000 418.400000
7062 13807 9061 1 109.50000 418.400000
7064 13807 9061 1 109.50000 418.400000
7065 13808 7066 1 109.50000 418.400000
7065 13808 11316 1 109.50000 418.400000
7065 13808 11367 1 109.50000 418.400000
7066 13808 11316 1 109.50000 418.400000
7066 13808 11367 1 109.50000 418.400000
11316 13808 11367 1 109.50000 418.400000
7067 13809 7068 1 109.50000 418.400000
7067 13809 7069 1 109.50000 418.400000
7067 13809 7070 1 109.50000 418.400000
7068 13809 7069 1 109.50000 418.400000
7068 13809 7070 1 109.50000 418.400000
7069 13809 7070 1 109.50000 418.400000
5443 13810 7071 1 109.50000 418.400000
5443 13810 7072 1 109.50000 418.400000
5443 13810 7073 1 109.50000 418.400000
7071 13810 7072 1 109.50000 418.400000
7071 13810 7073 1 109.50000 418.400000
7072 13810 7073 1 109.50000 418.400000
2551 13811 7074 1 109.50000 418.400000
2551 13811 7075 1 109.50000 418.400000
2551 13811 7076 1 109.50000 418.400000
7074 13811 7075 1 109.50000 418.400000
7074 13811 7076 1 109.50000 418.400000
7075 13811 7076 1 109.50000 418.400000
2260 13812 6065 1 109.50000 418.400000
2260 13812 7077 1 109.50000 418.400000
2260 13812 7078 1 109.50000 418.400000
6065 13812 7077 1 109.50000 418.400000
6065 13812 7078 1 109.50000 418.400000
7077 13812 7078 1 109.50000 418.400000
7079 13813 7080 1 109.50000 418.400000
7079 13813 7081 1 109.50000 418.400000
7079 13813 9335 1 109.50000 418.400000
7080 13813 7081 1 109.50000 418.400000
7080 13813 9335 1 109.50000 418.400000
7081 13813 9335 1 109.50000 418.400000
959 13814 3400 1 109.50000 418.400000
959 13814 7083 1 109.50000 418.400000
959 13814 7084 1 109.50000 418.400000
3400 13814 7083 1 109.50000 418.400000
3400 13814 7084 1 109.50000 418.400000
7083 13814 7084 1 109.50000 418.400000
4366 13815 6395 1 109.50000 418.400000
4366 13815 7085 1 109.50000 418.400000
4366 13815 7086 1 109.50000 418.400000
6395 13815 7085 1 109.50000 418.400000
6395 13815 7086 1 109.50000 418.400000
7085 13815 7086 1 109.50000 418.400000
5589 13816 7087 1 109.50000 418.400000
5589 13816 7088 1 109.50000 418.400000
5589 13816 7089 1 109.50000 418.400000
7087 13816 7088 1 109.50000 418.400000
7087 13816 7089 1 109.50000 418.400000
7088 13816 7089 1 109.50000 418.400000
7090 13817 7092 1 109.50000 418.400000
7090 13817 7093 1 109.50000 418.400000
7090 13817 9130 1 109.50000 418.400000
7092 13817 7093 1 109.50000 418.400000
7092 13817 9130 1 109.50000 418.400000
7093 13817 9130 1 109.50000 418.400000
243 13818 3387 1 109.50000 418.400000
243 13818 6097 1 109.50000 418.400000
243 13818 7094 1 109.50000 418.400000
3387 13818 6097 1 109.50000 418.400000
3387 13818 7094 1 109.50000 418.400000
6097 13818 7094 1 109.50000 418.400000
2149 13819 7095 1 109.50000 418.400000
2149 13819 7096 1 109.50000 418.400000
2149 13819 7097 1 109.50000 418.400000
7095 13819 7096 1 109.50000 418.400000
7095 13819 7097 1 109.50000 418.400000
7096 13819 7097 1 109.50000 418.400000
5136 13820 6810 1 109.50000 418.400000
5136 13820 7099 1 109.50000 418.400000
5136 13820 7100 1 109.50000 418.400000
6810 13820 7099 1 109.50000 418.400000
6810 13820 7100 1 109.50000 418.400000
7099 13820 7100 1 109.50000 418.400000
433 13821 4878 1 109.50000 418.400000
433 13821 7101 1 109.50000 418.400000
433 13821 7102 1 109.50000 418.400000
4878 13821 7101 1 109.50000 418.400000
4878 13821 7102 1 109.50000 418.400000
7101 13821 7102 1 109.50000 418.400000
2870 13822 4096 1 109.50000 418.400000
2870 13822 7103 1 109.50000 418.400000
2870 13822 7104 1 109.50000 418.400000
4096 13822 7103 1 109.50000 418.400000
4096 13822 7104 1 109.50000 418.400000
7103 13822 7104 1 109.50000 418.400000
2348 13823 7105 1 109.50000 418.400000
2348 13823 7106 1 109.50000 418.400000
2348 13823 7107 1 109.50000 418.400000
7105 13823 7106 1 109.50000 418.400000
7105 13823 7107 1 109.50000 418.400000
7106 13823 7107 1 109.50000 418.400000
7108 13824 7109 1 109.50000 418.400000
7108 13824 7110 1 109.50000 418.400000
7108 13824 7111 1 109.50000 418.400000
7109 13824 7110 1 109.50000 418.400000
7109 13824 7111 1 109.50000 418.400000
7110 13824 7111 1 109.50000 418.400000
7112 13825 7113 1 109.50000 418.400000
7112 13825 7114 1 109.50000 418.400000
7112 13825 11314 1 109.50000 418.400000
7113 13825 7114 1 109.50000 418.400000
7113 13825 11314 1 109.50000 418.400000
7114 13825 11314 1 109.50000 418.400000
5876 13826 7115 1 109.50000 418.400000
5876 13826 7116 1 109.50000 418.400000
5876 13826 7117 1 109.50000 418.400000
7115 13826 7116 1 109.50000 418.400000
7115 13826 7117 1 109.50000 418.400000
7116 13826 7117 1 109.50000 418.400000
3244 13827 7118 1 109.50000 418.400000
3244 13827 7119 1 109.50000 418.400000
3244 13827 7120 1 109.50000 418.400000
7118 13827 7119 1 109.50000 418.400000
7118 13827 7120 1 109.50000 418.400000
7119 13827 7120 1 109.50000 418.400000
5859 13828 7121 1 109.50000 418.400000
5859 13828 7122 1 109.50000 418.400000
5859 13828 7123 1 109.50000 418.400000
7121 13828 7122 1 109.50000 418.400000
7121 13828 7123 1 109.50000 418.400000
7122 13828 7123 1 109.50000 418.400000
5073 13829 5892 1 109.50000 418.400000
5073 13829 7124 1 109.50000 418.400000
5073 13829 7125 1 109.50000 418.400000
5892 13829 7124 1 109.50000 418.400000
5892 13829 7125 1 109.50000 418.400000
7124 13829 7125 1 109.50000 418.400000
7127 13830 7128 1 109.50000 418.400000
7127 13830 7129 1 109.50000 418.400000
7127 13830 7130 1 109.50000 418.400000
7128 13830 7129 1 109.50000 418.400000
7128 13830 7130 1 109.50000 418.400000
7129 13830 7130 1 109.50000 418.400000
1063 13831 2410 1 109.50000 418.400000
1063 13831 3578 1 109.50000 418.400000
1063 13831 7131 1 109.50000 418.400000
2410 13831 3578 1 109.50000 418.400000
2410 13831 7131 1 109.50000 418.400000
3578 13831 7131 1 109.50000 418.400000
557 13832 3503 1 109.50000 418.400000
557 13832 7133 1 109.50000 418.400000
557 13832 7134 1 109.50000 418.400000
3503 13832 7133 1 109.50000 418.400000
3503 13832 7134 1 109.50000 418.400000
7133 13832 7134 1 109.50000 418.400000
883 13833 7135 1 109.50000 418.400000
883 13833 7136 1 109.50000 418.400000
883 13833 7137 1 109.50000 418.400000
7135 13833 7136 1 109.50000 418.400000
7135 13833 7137 1 109.50000 418.400000
7136 13833 7137 1 109.50000 418.400000
3292 13834 7138 1 109.50000 418.400000
3292 13834 7139 1 109.50000 418.400000
3292 13834 7140 1 109.50000 418.400000
7138 13834 7139 1 109.50000 418.400000
7138 13834 7140 1 109.50000 418.400000
7139 13834 7140 1 109.50000 418.400000
5039 13835 7141 1 109.50000 418.400000
5039 13835 7142 1 109.50000 418.400000
5039 13835 11232 1 109.50000 418.400000
7141 13835 7142 1 109.50000 418.400000
7141 13835 11232 1 109.50000 418.400000
7142 13835 11232 1 109.50000 418.400000
5375 13836 5376 1 109.50000 418.400000
5375 13836 7143 1 109.50000 418.400000
5375 13836 7145 1 109.50000 418.400000
5376 13836 7143 1 109.50000 418.400000
5376 13836 7145 1 109.50000 418.400000
7143 13836 7145 1 109.50000 418.400000
5298 13837 7146 1 109.50000 418.400000
5298 13837 7147 1 109.50000 418.400000
5298 13837 7148 1 109.50000 418.400000
7146 13837 7147 1 109.50000 418.400000
7146 13837 7148 1 109.50000 418.400000
7147 13837 7148 1 109.50000 418.400000
3892 13838 7149 1 109.50000 418.400000
3892 13838 7150 1 109.50000 418.400000
3892 13838 7151 1 109.50000 418.400000
7149 13838 7150 1 109.50000 418.400000
7149 13838 7151 1 109.50000 418.400000
7150 13838 7151 1 109.50000 418.400000
2859 13839 3111 1 109.50000 418.400000
2859 13839 6204 1 109.50000 418.400000
2859 13839 7152 1 109.50000 418.400000
3111 13839 6204 1 109.50000 418.400000
3111 13839 7152 1 109.50000 418.400000
6204 13839 7152 1 109.50000 418.400000
4870 13840 7153 1 109.50000 418.400000
4870 13840 7154 1 109.50000 418.400000
4870 13840 11569 1 109.50000 418.400000
7153 13840 7154 1 109.50000 418.400000
7153 13840 11569 1 109.50000 418.400000
7154 13840 11569 1 109.50000 418.400000
3907 13841 7155 1 109.50000 418.400000
3907 13841 7156 1 109.50000 418.400000
3907 13841 7157 1 109.50000 418.400000
7155 13841 7156 1 109.50000 418.400000
7155 13841 7157 1 109.50000 418.400000
7156 13841 7157 1 109.50000 418.400000
7158 13842 7159 1 109.50000 418.400000
7158 13842 7160 1 109.50000 418.400000
7158 13842 7161 1 109.50000 418.400000
7159 13842 7160 1 109.50000 418.400000
7159 13842 7161 1 109.50000 418.400000
7160 13842 7161 1 109.50000 418.400000
6749 13843 7031 1 109.50000 418.400000
6749 13843 7162 1 109.50000 418.400000
6749 13843 7163 1 109.50000 418.400000
7031 13843 7162 1 109.50000 418.400000
7031 13843 7163 1 109.50000 418.400000
7162 13843 7163 1 109.50000 418.400000
2326 13844 7164 1 109.50000 418.400000
2326 13844 7165 1 109.50000 418.400000
2326 13844 7166 1 109.50000 418.400000
7164 13844 7165 1 109.50000 418.400000
7164 13844 7166 1 109.50000 418.400000
7165 13844 7166 1 109.50000 418.400000
1811 13845 3447 1 109.50000 418.400000
1811 13845 4621 1 109.50000 418.400000
1811 13845 7167 1 109.50000 418.400000
3447 13845 4621 1 109.50000 418.400000
3447 13845 7167 1 109.50000 418.400000
4621 13845 7167 1 109.50000 418.400000
7168 13846 7169 1 109.50000 418.400000
7168 13846 7170 1 109.50000 418.400000
7168 13846 11248 1 109.50000 418.400000
7169 13846 7170 1 109.50000 418.400000
7169 13846 11248 1 109.50000 418.400000
7170 13846 11248 1 109.50000 418.400000
2115 13847 7172 1 109.50000 418.400000
2115 13847 7173 1 109.50000 418.400000
2115 13847 7174 1 109.50000 418.400000
7172 13847 7173 1 109.50000 418.400000
7172 13847 7174 1 109.50000 418.400000
7173 13847 7174 1 109.50000 418.400000
2051 13848 7175 1 109.50000 418.400000
2051 13848 7176 1 109.50000 418.400000
2051 13848 7177 1 109.50000 418.400000
7175 13848 7176 1 109.50000 418.400000
7175 13848 7177 1 109.50000 418.400000
7176 13848 7177 1 109.50000 418.400000
1145 13849 4721 1 109.50000 418.400000
1145 13849 7178 1 109.50000 418.400000
1145 13849 7179 1 109.50000 418.400000
4721 13849 7178 1 109.50000 418.400000
4721 13849 7179 1 109.50000 418.400000
7178 13849 7179 1 109.50000 418.400000
1455 13850 7180 1 109.50000 418.400000
1455 13850 11382 1 109.50000 418.400000
1455 13850 11532 1 109.50000 418.400000
7180 13850 11382 1 109.50000 418.400000
7180 13850 11532 1 109.50000 418.400000
11382 13850 11532 1 109.50000 418.400000
439 13851 4514 1 109.50000 418.400000
439 13851 7181 1 109.50000 418.400000
439 13851 7182 1 109.50000 418.400000
4514 13851 7181 1 109.50000 418.400000
4514 13851 7182 1 109.50000 418.400000
7181 13851 7182 1 109.50000 418.400000
5634 13852 6086 1 109.50000 418.400000
5634 13852 6510 1 109.50000 418.400000
5634 13852 7183 1 109.50000 418.400000
6086 13852 6510 1 109.50000 418.400000
6086 13852 7183 1 109.50000 418.400000
6510 13852 7183 1 109.50000 418.400000
4016 13853 6265 1 109.50000 418.400000
4016 13853 7184 1 109.50000 418.400000
4016 13853 7185 1 109.50000 418.400000
6265 13853 7184 1 109.50000 418.400000
6265 13853 7185 1 109.50000 418.400000
7184 13853 7185 1 109.50000 418.400000
7186 13854 7187 1 109.50000 418.400000
7186 13854 7188 1 109.50000 418.400000
7186 13854 7189 1 109.50000 418.400000
7187 13854 7188 1 109.50000 418.400000
7187 13854 7189 1 109.50000 418.400000
7188 13854 7189 1 109.50000 418.400000
7190 13855 7191 1 109.50000 418.400000
7190 13855 7192 1 109.50000 418.400000
7190 13855 7193 1 109.50000 418.400000
7191 13855 7192 1 109.50000 418.400000
7191 13855 7193 1 109.50000 418.400000
7192 13855 7193 1 109.50000 418.400000
5961 13856 7194 1 109.50000 418.400000
5961 13856 7195 1 109.50000 418.400000
5961 13856 11141 1 109.50000 418.400000
7194 13856 7195 1 109.50000 418.400000
7194 13856 11141 1 109.50000 418.400000
7195 13856 11141 1 109.50000 418.400000
38 13857 3291 1 109.50000 418.400000
38 13857 7196 1 109.50000 418.400000
38 13857 7197 1 109.50000 418.400000
3291 13857 7196 1 109.50000 418.400000
3291 13857 7197 1 109.50000 418.400000
7196 13857 7197 1 109.50000 418.400000
4982 13858 5246 1 109.50000 418.400000
4982 13858 7199 1 109.50000 418.400000
4982 13858 7200 1 109.50000 418.400000
5246 13858 7199 1 109.50000 418.400000
5246 13858 7200 1 109.50000 418.400000
7199 13858 7200 1 109.50000 418.400000
3139 13859 3203 1 109.50000 418.400000
3139 13859 7201 1 109.50000 418.400000
3139 13859 7202 1 109.50000 418.400000
3203 13859 7201 1 109.50000 418.400000
3203 13859 7202 1 109.50000 418.400000
7201 13859 7202 1 109.50000 418.400000
6444 13860 7203 1 109.50000 418.400000
6444 13860 7204 1 109.50000 418.400000
6444 13860 7469 1 109.50000 418.400000
7203 13860 7204 1 109.50000 418.400000
7203 13860 7469 1 109.50000 418.400000
7204 13860 7469 1 109.50000 418.400000
5885 13861 6346 1 109.50000 418.400000
5885 13861 7205 1 109.50000 418.400000
5885 13861 7206 1 109.50000 418.400000
6346 13861 7205 1 109.50000 418.400000
6346 13861 7206 1 109.50000 418.400000
7205 13861 7206 1 109.50000 418.400000
135 13862 3177 1 109.50000 418.400000
135 13862 7207 1 109.50000 418.400000
135 13862 7208 1 109.50000 418.400000
3177 13862 7207 1 109.50000 418.400000
3177 13862 7208 1 109.50000 418.400000
7207 13862 7208 1 109.50000 418.400000
698 13863 4637 1 109.50000 418.400000
698 13863 5355 1 109.50000 418.400000
698 13863 7209 1 109.50000 418.400000
4637 13863 5355 1 109.50000 418.400000
4637 13863 7209 1 109.50000 418.400000
5355 13863 7209 1 109.50000 418.400000
508 13864 3948 1 109.50000 418.400000
508 13864 5676 1 109.50000 418.400000
508 13864 6128 1 109.50000 418.400000
3948 13864 5676 1 109.50000 418.400000
3948 13864 6128 1 109.50000 418.400000
5676 13864 6128 1 109.50000 418.400000
7123 13865 7210 1 109.50000 418.400000
7123 13865 7211 1 109.50000 418.400000
7123 13865 7212 1 109.50000 418.400000
7210 13865 7211 1 109.50000 418.400000
7210 13865 7212 1 109.50000 418.400000
7211 13865 7212 1 109.50000 418.400000
4986 13866 5004 1 109.50000 418.400000
4986 13866 5889 1 109.50000 418.400000
4986 13866 7213 1 109.50000 418.400000
5004 13866 5889 1 109.50000 418.400000
5004 13866 7213 1 109.50000 418.400000
5889 13866 7213 1 109.50000 418.400000
4819 13867 7214 1 109.50000 418.400000
4819 13867 7215 1 109.50000 418.400000
4819 13867 8122 1 109.50000 418.400000
7214 13867 7215 1 109.50000 418.400000
7214 13867 8122 1 109.50000 418.400000
7215 13867 8122 1 109.50000 418.400000
4455 13868 5146 1 109.50000 418.400000
4455 13868 7217 1 109.50000 418.400000
4455 13868 11159 1 109.50000 418.400000
5146 13868 7217 1 109.50000 418.400000
5146 13868 11159 1 109.50000 418.400000
7217 13868 11159 1 109.50000 418.400000
7218 13869 7219 1 109.50000 418.400000
7218 13869 7220 1 109.50000 418.400000
7218 13869 7221 1 109.50000 418.400000
7219 13869 7220 1 109.50000 418.400000
7219 13869 7221 1 109.50000 418.400000
7220 13869 7221 1 109.50000 418.400000
2885 13870 4353 1 109.50000 418.400000
2885 13870 7225 1 109.50000 418.400000
2885 13870 7226 1 109.50000 418.400000
4353 13870 7225 1 109.50000 418.400000
4353 13870 7226 1 109.50000 418.400000
7225 13870 7226 1 109.50000 418.400000
3077 13871 4156 1 109.50000 418.400000
3077 13871 6419 1 109.50000 418.400000
3077 13871 7227 1 109.50000 418.400000
4156 13871 6419 1 109.50000 418.400000
4156 13871 7227 1 109.50000 418.400000
6419 13871 7227 1 109.50000 418.400000
7228 13872 7229 1 109.50000 418.400000
7228 13872 7230 1 109.50000 418.400000
7228 13872 7231 1 109.50000 418.400000
7229 13872 7230 1 109.50000 418.400000
7229 13872 7231 1 109.50000 418.400000
7230 13872 7231 1 109.50000 418.400000
4146 13873 7232 1 109.50000 418.400000
4146 13873 7233 1 109.50000 418.400000
4146 13873 7234 1 109.50000 418.400000
7232 13873 7233 1 109.50000 418.400000
7232 13873 7234 1 109.50000 418.400000
7233 13873 7234 1 109.50000 418.400000
296 13874 297 1 109.50000 418.400000
296 13874 7235 1 109.50000 418.400000
296 13874 7236 1 109.50000 418.400000
297 13874 7235 1 109.50000 418.400000
297 13874 7236 1 109.50000 418.400000
7235 13874 7236 1 109.50000 418.400000
1919 13875 6747 1 109.50000 418.400000
1919 13875 7238 1 109.50000 418.400000
1919 13875 7239 1 109.50000 418.400000
6747 13875 7238 1 109.50000 418.400000
6747 13875 7239 1 109.50000 418.400000
7238 13875 7239 1 109.50000 418.400000
94 13876 7241 1 109.50000 418.400000
94 13876 7242 1 109.50000 418.400000
94 13876 10704 1 109.50000 418.400000
7241 13876 7242 1 109.50000 418.400000
7241 13876 10704 1 109.50000 418.400000
7242 13876 10704 1 109.50000 418.400000
1241 13877 6534 1 109.50000 418.400000
1241 13877 7243 1 109.50000 418.400000
1241 13877 7244 1 109.50000 418.400000
6534 13877 7243 1 109.50000 418.400000
6534 13877 7244 1 109.50000 418.400000
7243 13877 7244 1 109.50000 418.400000
3786 13878 5207 1 109.50000 418.400000
3786 13878 7245 1 109.50000 418.400000
3786 13878 7246 1 109.50000 418.400000
5207 13878 7245 1 109.50000 418.400000
5207 13878 7246 1 109.50000 418.400000
7245 13878 7246 1 109.50000 418.400000
7247 13879 7248 1 109.50000 418.400000
7247 13879 7249 1 109.50000 418.400000
7247 13879 7250 1 109.50000 418.400000
7248 13879 7249 1 109.50000 418.400000
7248 13879 7250 1 109.50000 418.400000
7249 13879 7250 1 109.50000 418.400000
4054 13880 6098 1 109.50000 418.400000
4054 13880 6518 1 109.50000 418.400000
4054 13880 7251 1 109.50000 418.400000
6098 13880 6518 1 109.50000 418.400000
6098 13880 7251 1 109.50000 418.400000
6518 13880 7251 1 109.50000 418.400000
954 13881 3295 1 109.50000 418.400000
954 13881 7193 1 109.50000 418.400000
954 13881 7253 1 109.50000 418.400000
3295 13881 7193 1 109.50000 418.400000
3295 13881 7253 1 109.50000 418.400000
7193 13881 7253 1 109.50000 418.400000
1210 13882 2284 1 109.50000 418.400000
1210 13882 7254 1 109.50000 418.400000
1210 13882 8084 1 109.50000 418.400000
2284 13882 7254 1 109.50000 418.400000
2284 13882 8084 1 109.50000 418.400000
7254 13882 8084 1 109.50000 418.400000
3084 13883 3086 1 109.50000 418.400000
3084 13883 7255 1 109.50000 418.400000
3084 13883 7256 1 109.50000 418.400000
3086 13883 7255 1 109.50000 418.400000
3086 13883 7256 1 109.50000 418.400000
7255 13883 7256 1 109.50000 418.400000
1941 13884 5608 1 109.50000 418.400000
1941 13884 7258 1 109.50000 418.400000
1941 13884 7259 1 109.50000 418.400000
5608 13884 7258 1 109.50000 418.400000
5608 13884 7259 1 109.50000 418.400000
7258 13884 7259 1 109.50000 418.400000
5904 13885 5938 1 109.50000 418.400000
5904 13885 7260 1 109.50000 418.400000
5904 13885 7261 1 109.50000 418.400000
5938 13885 7260 1 109.50000 418.400000
5938 13885 7261 1 109.50000 418.400000
7260 13885 7261 1 109.50000 418.400000
7262 13886 7263 1 109.50000 418.400000
7262 13886 7264 1 109.50000 418.400000
7262 13886 11426 1 109.50000 418.400000
7263 13886 7264 1 109.50000 418.400000
7263 13886 11426 1 109.50000 418.400000
7264 13886 11426 1 109.50000 418.400000
111 13887 451 1 109.50000 418.400000
111 13887 7265 1 109.50000 418.400000
111 13887 7266 1 109.50000 418.400000
451 13887 7265 1 109.50000 418.400000
451 13887 7266 1 109.50000 418.400000
7265 13887 7266 1 109.50000 418.400000
1541 13888 3366 1 109.50000 418.400000
1541 13888 3367 1 109.50000 418.400000
1541 13888 7267 1 109.50000 418.400000
3366 13888 3367 1 109.50000 418.400000
3366 13888 7267 1 109.50000 418.400000
3367 13888 7267 1 109.50000 418.400000
868 13889 3372 1 109.50000 418.400000
868 13889 7268 1 109.50000 418.400000
868 13889 11273 1 109.50000 418.400000
3372 13889 7268 1 109.50000 418.400000
3372 13889 11273 1 109.50000 418.400000
7268 13889 11273 1 109.50000 418.400000
2681 13890 2901 1 109.50000 418.400000
2681 13890 5778 1 109.50000 418.400000
2681 13890 5959 1 109.50000 418.400000
2901 13890 5778 1 109.50000 418.400000
2901 13890 5959 1 109.50000 418.400000
5778 13890 5959 1 109.50000 418.400000
6203 13891 6660 1 109.50000 418.400000
6203 13891 7270 1 109.50000 418.400000
6203 13891 10401 1 109.50000 418.400000
6660 13891 7270 1 109.50000 418.400000
6660 13891 10401 1 109.50000 418.400000
7270 13891 10401 1 109.50000 418.400000
7271 13892 7272 1 109.50000 418.400000
7271 13892 7273 1 109.50000 418.400000
7271 13892 7274 1 109.50000 418.400000
7272 13892 7273 1 109.50000 418.400000
7272 13892 7274 1 109.50000 418.400000
7273 13892 7274 1 109.50000 418.400000
823 13893 4227 1 109.50000 418.400000
823 13893 7275 1 109.50000 418.400000
823 13893 7276 1 109.50000 418.400000
4227 13893 7275 1 109.50000 418.400000
4227 13893 7276 1 109.50000 418.400000
7275 13893 7276 1 109.50000 418.400000
7278 13894 7279 1 109.50000 418.400000
7278 13894 7280 1 109.50000 418.400000
7278 13894 9033 1 109.50000 418.400000
7279 13894 7280 1 109.50000 418.400000
7279 13894 9033 1 109.50000 418.400000
7280 13894 9033 1 109.50000 418.400000
2146 13895 5475 1 109.50000 418.400000
2146 13895 6135 1 109.50000 418.400000
2146 13895 7281 1 109.50000 418.400000
5475 13895 6135 1 109.50000 418.400000
5475 13895 7281 1 109.50000 418.400000
6135 13895 7281 1 109.50000 418.400000
7268 13896 7284 1 109.50000 418.400000
7268 13896 7285 1 109.50000 418.400000
7268 13896 7286 1 109.50000 418.400000
7284 13896 7285 1 109.50000 418.400000
7284 13896 7286 1 109.50000 418.400000
7285 13896 7286 1 109.50000 418.400000
2285 13897 5579 1 109.50000 418.400000
2285 13897 7223 1 109.50000 418.400000
2285 13897 7287 1 109.50000 418.400000
5579 13897 7223 1 109.50000 418.400000
5579 13897 7287 1 109.50000 418.400000
7223 13897 7287 1 109.50000 418.400000
7289 13898 7290 1 109.50000 418.400000
7289 13898 10193 1 109.50000 418.400000
7289 13898 10839 1 109.50000 418.400000
7290 13898 10193 1 109.50000 418.400000
7290 13898 10839 1 109.50000 418.400000
10193 13898 10839 1 109.50000 418.400000
15 13899 7292 1 109.50000 418.400000
15 13899 7293 1 109.50000 418.400000
15 13899 7294 1 109.50000 418.400000
7292 13899 7293 1 109.50000 418.400000
7292 13899 7294 1 109.50000 418.400000
7293 13899 7294 1 109.50000 418.400000
3471 13900 7295 1 109.50000 418.400000
3471 13900 7296 1 109.50000 418.400000
3471 13900 7297 1 109.50000 418.400000
7295 13900 7296 1 109.50000 418.400000
7295 13900 7297 1 109.50000 418.400000
7296 13900 7297 1 109.50000 418.400000
5056 13901 5978 1 109.50000 418.400000
5056 13901 5980 1 109.50000 418.400000
5056 13901 5981 1 109.50000 418.400000
5978 13901 5980 1 109.50000 418.400000
5978 13901 5981 1 109.50000 418.400000
5980 13901 5981 1 109.50000 418.400000
2847 13902 7298 1 109.50000 418.400000
2847 13902 7299 1 109.50000 418.400000
2847 13902 7300 1 109.50000 418.400000
7298 13902 7299 1 109.50000 418.400000
7298 13902 7300 1 109.50000 418.400000
7299 13902 7300 1 109.50000 418.400000
5736 13903 7301 1 109.50000 418.400000
5736 13903 7302 1 109.50000 418.400000
5736 13903 11255 1 109.50000 418.400000
7301 13903 7302 1 109.50000 418.400000
7301 13903 11255 1 109.50000 418.400000
7302 13903 11255 1 109.50000 418.400000
6237 13904 7303 1 109.50000 418.400000
6237 13904 7304 1 109.50000 418.400000
6237 13904 7305 1 109.50000 418.400000
7303 13904 7304 1 109.50000 418.400000
7303 13904 7305 1 109.50000 418.400000
7304 13904 7305 1 109.50000 418.400000
4644 13905 7306 1 109.50000 418.400000
4644 13905 7307 1 109.50000 418.400000
4644 13905 7308 1 109.50000 418.400000
7306 13905 7307 1 109.50000 418.400000
7306 13905 7308 1 109.50000 418.400000
7307 13905 7308 1 109.50000 418.400000
7309 13906 7310 1 109.50000 418.400000
7309 13906 7311 1 109.50000 418.400000
7309 13906 7312 1 109.50000 418.400000
7310 13906 7311 1 109.50000 418.400000
7310 13906 7312 1 109.50000 418.400000
7311 13906 7312 1 109.50000 418.400000
1490 13907 7151 1 109.50000 418.400000
1490 13907 7313 1 109.50000 418.400000
1490 13907 7314 1 109.50000 418.400000
7151 13907 7313 1 109.50000 418.400000
7151 13907 7314 1 109.50000 418.400000
7313 13907 7314 1 109.50000 418.400000
5389 13908 7315 1 109.50000 418.400000
5389 13908 7316 1 109.50000 418.400000
5389 13908 9938 1 109.50000 418.400000
7315 13908 7316 1 109.50000 418.400000
7315 13908 9938 1 109.50000 418.400000
7316 13908 9938 1 109.50000 418.400000
5927 13909 5952 1 109.50000 418.400000
5927 13909 7129 1 109.50000 418.400000
5927 13909 7231 1 109.50000 418.400000
5952 13909 7129 1 109.50000 418.400000
5952 13909 7231 1 109.50000 418.400000
7129 13909 7231 1 109.50000 418.400000
752 13910 2567 1 109.50000 418.400000
752 13910 7317 1 109.50000 418.400000
752 13910 7318 1 109.50000 418.400000
2567 13910 7317 1 109.50000 418.400000
2567 13910 7318 1 109.50000 418.400000
7317 13910 7318 1 109.50000 418.400000
1349 13911 1350 1 109.50000 418.400000
1349 13911 1351 1 109.50000 418.400000
1349 13911 9817 1 109.50000 418.400000
1350 13911 1351 1 109.50000 418.400000
1350 13911 9817 1 109.50000 418.400000
1351 13911 9817 1 109.50000 418.400000
2067 13912 5248 1 109.50000 418.400000
2067 13912 7321 1 109.50000 418.400000
2067 13912 7322 1 109.50000 418.400000
5248 13912 7321 1 109.50000 418.400000
5248 13912 7322 1 109.50000 418.400000
7321 13912 7322 1 109.50000 418.400000
1974 13913 2464 1 109.50000 418.400000
1974 13913 7323 1 109.50000 418.400000
1974 13913 7324 1 109.50000 418.400000
2464 13913 7323 1 109.50000 418.400000
2464 13913 7324 1 109.50000 418.400000
7323 13913 7324 1 109.50000 418.400000
3228 13914 3281 1 109.50000 418.400000
3228 13914 4306 1 109.50000 418.400000
3228 13914 4987 1 109.50000 418.400000
3281 13914 4306 1 109.50000 418.400000
3281 13914 4987 1 109.50000 418.400000
4306 13914 4987 1 109.50000 418.400000
6506 13915 7327 1 109.50000 418.400000
6506 13915 7328 1 109.50000 418.400000
6506 13915 7781 1 109.50000 418.400000
7327 13915 7328 1 109.50000 418.400000
7327 13915 7781 1 109.50000 418.400000
7328 13915 7781 1 109.50000 418.400000
3327 13916 6176 1 109.50000 418.400000
3327 13916 7283 1 109.50000 418.400000
3327 13916 7329 1 109.50000 418.400000
6176 13916 7283 1 109.50000 418.400000
6176 13916 7329 1 109.50000 418.400000
7283 13916 7329 1 109.50000 418.400000
86 13917 4920 1 109.50000 418.400000
86 13917 5187 1 109.50000 418.400000
86 13917 7330 1 109.50000 418.400000
4920 13917 5187 1 109.50000 418.400000
4920 13917 7330 1 109.50000 418.400000
5187 13917 7330 1 109.50000 418.400000
6906 13918 7331 1 109.50000 418.400000
6906 13918 7332 1 109.50000 418.400000
6906 13918 7333 1 109.50000 418.400000
7331 13918 7332 1 109.50000 418.400000
7331 13918 7333 1 109.50000 418.400000
7332 13918 7333 1 109.50000 418.400000
7334 13919 7335 1 109.50000 418.400000
7334 13919 7336 1 109.50000 418.400000
7334 13919 7337 1 109.50000 418.400000
7335 13919 7336 1 109.50000 418.400000
7335 13919 7337 1 109.50000 418.400000
7336 13919 7337 1 109.50000 418.400000
3200 13920 7338 1 109.50000 418.400000
3200 13920 7339 1 109.50000 418.400000
3200 13920 7340 1 109.50000 418.400000
7338 13920 7339 1 109.50000 418.400000
7338 13920 7340 1 109.50000 418.400000
7339 13920 7340 1 109.50000 418.400000
6163 13921 7342 1 109.50000 418.400000
6163 13921 7343 1 109.50000 418.400000
6163 13921 7344 1 109.50000 418.400000
7342 13921 7343 1 109.50000 418.400000
7342 13921 7344 1 109.50000 418.400000
7343 13921 7344 1 109.50000 418.400000
2254 13922 7345 1 109.50000 418.400000
2254 13922 7346 1 109.50000 418.400000
2254 13922 7347 1 109.50000 418.400000
7345 13922 7346 1 109.50000 418.400000
7345 13922 7347 1 109.50000 418.400000
7346 13922 7347 1 109.50000 418.400000
7284 13923 7348 1 109.50000 418.400000
7284 13923 7349 1 109.50000 418.400000
7284 13923 7350 1 109.50000 418.400000
7348 13923 7349 1 109.50000 418.400000
7348 13923 7350 1 109.50000 418.400000
7349 13923 7350 1 109.50000 418.400000
4098 13924 7351 1 109.50000 418.400000
4098 13924 7352 1 109.50000 418.400000
4098 13924 7353 1 109.50000 418.400000
7351 13924 7352 1 109.50000 418.400000
7351 13924 7353 1 109.50000 418.400000
7352 13924 7353 1 109.50000 418.400000
1110 13925 2651 1 109.50000 418.400000
1110 13925 2690 1 109.50000 418.400000
1110 13925 11510 1 109.50000 418.400000
2651 13925 2690 1 109.50000 418.400000
2651 13925 11510 1 109.50000 418.400000
2690 13925 11510 1 109.50000 418.400000
2736 13926 7354 1 109.50000 418.400000
2736 13926 7355 1 109.50000 418.400000
2736 13926 7356 1 109.50000 418.400000
7354 13926 7355 1 109.50000 418.400000
7354 13926 7356 1 109.50000 418.400000
7355 13926 7356 1 109.50000 418.400000
1938 13927 6762 1 109.50000 418.400000
1938 13927 7357 1 109.50000 418.400000
1938 13927 7359 1 109.50000 418.400000
6762 13927 7357 1 109.50000 418.400000
6762 13927 7359 1 109.50000 418.400000
7357 13927 7359 1 109.50000 418.400000
2654 13928 7360 1 109.50000 418.400000
2654 13928 7361 1 109.50000 418.400000
2654 13928 7362 1 109.50000 418.400000
7360 13928 7361 1 109.50000 418.400000
7360 13928 7362 1 109.50000 418.400000
7361 13928 7362 1 109.50000 418.400000
5940 13929 7363 1 109.50000 418.400000
5940 13929 7364 1 109.50000 418.400000
5940 13929 7365 1 109.50000 418.400000
7363 13929 7364 1 109.50000 418.400000
7363 13929 7365 1 109.50000 418.400000
7364 13929 7365 1 109.50000 418.400000
2366 13930 2704 1 109.50000 418.400000
2366 13930 6754 1 109.50000 418.400000
2366 13930 7366 1 109.50000 418.400000
2704 13930 6754 1 109.50000 418.400000
2704 13930 7366 1 109.50000 418.400000
6754 13930 7366 1 109.50000 418.400000
159 13931 3972 1 109.50000 418.400000
159 13931 4882 1 109.50000 418.400000
159 13931 7367 1 109.50000 418.400000
3972 13931 4882 1 109.50000 418.400000
3972 13931 7367 1 109.50000 418.400000
4882 13931 7367 1 109.50000 418.400000
744 13932 3519 1 109.50000 418.400000
744 13932 7369 1 109.50000 418.400000
744 13932 11478 1 109.50000 418.400000
3519 13932 7369 1 109.50000 418.400000
3519 13932 11478 1 109.50000 418.400000
7369 13932 11478 1 109.50000 418.400000
1150 13933 1151 1 109.50000 418.400000
1150 13933 7370 1 109.50000 418.400000
1150 13933 7372 1 109.50000 418.400000
1151 13933 7370 1 109.50000 418.400000
1151 13933 7372 1 109.50000 418.400000
7370 13933 7372 1 109.50000 418.400000
1199 13934 1201 1 109.50000 418.400000
1199 13934 7374 1 109.50000 418.400000
1199 13934 9508 1 109.50000 418.400000
1201 13934 7374 1 109.50000 418.400000
1201 13934 9508 1 109.50000 418.400000
7374 13934 9508 1 109.50000 418.400000
3504 13935 6148 1 109.50000 418.400000
3504 13935 11408 1 109.50000 418.400000
3504 13935 11445 1 109.50000 418.400000
6148 13935 11408 1 109.50000 418.400000
6148 13935 11445 1 109.50000 418.400000
11408 13935 11445 1 109.50000 418.400000
1641 13936 5273 1 109.50000 418.400000
1641 13936 5972 1 109.50000 418.400000
1641 13936 7247 1 109.50000 418.400000
5273 13936 5972 1 109.50000 418.400000
5273 13936 7247 1 109.50000 418.400000
5972 13936 7247 1 109.50000 418.400000
7377 13937 7378 1 109.50000 418.400000
7377 13937 7379 1 109.50000 418.400000
7377 13937 7380 1 109.50000 418.400000
7378 13937 7379 1 109.50000 418.400000
7378 13937 7380 1 109.50000 418.400000
7379 13937 7380 1 109.50000 418.400000
1579 13938 4321 1 109.50000 418.400000
1579 13938 7381 1 109.50000 418.400000
1579 13938 7382 1 109.50000 418.400000
4321 13938 7381 1 109.50000 418.400000
4321 13938 7382 1 109.50000 418.400000
7381 13938 7382 1 109.50000 418.400000
3131 13939 4985 1 109.50000 418.400000
3131 13939 6445 1 109.50000 418.400000
3131 13939 7383 1 109.50000 418.400000
4985 13939 6445 1 109.50000 418.400000
4985 13939 7383 1 109.50000 418.400000
6445 13939 7383 1 109.50000 418.400000
5586 13940 5912 1 109.50000 418.400000
5586 13940 6105 1 109.50000 418.400000
5586 13940 7091 1 109.50000 418.400000
5912 13940 6105 1 109.50000 418.400000
5912 13940 7091 1 109.50000 418.400000
6105 13940 7091 1 109.50000 418.400000
7384 13941 7385 1 109.50000 418.400000
7384 13941 7386 1 109.50000 418.400000
7384 13941 7387 1 109.50000 418.400000
7385 13941 7386 1 109.50000 418.400000
7385 13941 7387 1 109.50000 418.400000
7386 13941 7387 1 109.50000 418.400000
541 13942 3182 1 109.50000 418.400000
541 13942 7388 1 109.50000 418.400000
541 13942 7389 1 109.50000 418.400000
3182 13942 7388 1 109.50000 418.400000
3182 13942 7389 1 109.50000 418.400000
7388 13942 7389 1 109.50000 418.400000
6791 13943 7022 1 109.50000 418.400000
6791 13943 7390 1 109.50000 418.400000
6791 13943 7391 1 109.50000 418.400000
7022 13943 7390 1 109.50000 418.400000
7022 13943 7391 1 109.50000 418.400000
7390 13943 7391 1 109.50000 418.400000
773 13944 4579 1 109.50000 418.400000
773 13944 7392 1 109.50000 418.400000
773 13944 7393 1 109.50000 418.400000
4579 13944 7392 1 109.50000 418.400000
4579 13944 7393 1 109.50000 418.400000
7392 13944 7393 1 109.50000 418.400000
5994 13945 7394 1 109.50000 418.400000
5994 13945 7395 1 109.50000 418.400000
5994 13945 7396 1 109.50000 418.400000
7394 13945 7395 1 109.50000 418.400000
7394 13945 7396 1 109.50000 418.400000
7395 13945 7396 1 109.50000 418.400000
86 13946 88 1 109.50000 418.400000
86 13946 7397 1 109.50000 418.400000
86 13946 7398 1 109.50000 418.400000
88 13946 7397 1 109.50000 418.400000
88 13946 7398 1 109.50000 418.400000
7397 13946 7398 1 109.50000 418.400000
7401 13947 7402 1 109.50000 418.400000
7401 13947 7403 1 109.50000 418.400000
7401 13947 7404 1 109.50000 418.400000
7402 13947 7403 1 109.50000 418.400000
7402 13947 7404 1 109.50000 418.400000
7403 13947 7404 1 109.50000 418.400000
3720 13948 7405 1 109.50000 418.400000
3720 13948 7406 1 109.50000 418.400000
3720 13948 7407 1 109.50000 418.400000
7405 13948 7406 1 109.50000 418.400000
7405 13948 7407 1 109.50000 418.400000
7406 13948 7407 1 109.50000 418.400000
3954 13949 3956 1 109.50000 418.400000
3954 13949 7408 1 109.50000 418.400000
3954 13949 10864 1 109.50000 418.400000
3956 13949 7408 1 109.50000 418.400000
3956 13949 10864 1 109.50000 418.400000
7408 13949 10864 1 109.50000 418.400000
5465 13950 7411 1 109.50000 418.400000
5465 13950 7412 1 109.50000 418.400000
5465 13950 7413 1 109.50000 418.400000
7411 13950 7412 1 109.50000 418.400000
7411 13950 7413 1 109.50000 418.400000
7412 13950 7413 1 109.50000 418.400000
2701 13951 3230 1 109.50000 418.400000
2701 13951 3262 1 109.50000 418.400000
2701 13951 7414 1 109.50000 418.400000
3230 13951 3262 1 109.50000 418.400000
3230 13951 7414 1 109.50000 418.400000
3262 13951 7414 1 109.50000 418.400000
4181 13952 5817 1 109.50000 418.400000
4181 13952 7415 1 109.50000 418.400000
4181 13952 7416 1 109.50000 418.400000
5817 13952 7415 1 109.50000 418.400000
5817 13952 7416 1 109.50000 418.400000
7415 13952 7416 1 109.50000 418.400000
2714 13953 4679 1 109.50000 418.400000
2714 13953 7253 1 109.50000 418.400000
2714 13953 7417 1 109.50000 418.400000
4679 13953 7253 1 109.50000 418.400000
4679 13953 7417 1 109.50000 418.400000
7253 13953 7417 1 109.50000 418.400000
726 13954 7418 1 109.50000 418.400000
726 13954 7419 1 109.50000 418.400000
726 13954 7420 1 109.50000 418.400000
7418 13954 7419 1 109.50000 418.400000
7418 13954 7420 1 109.50000 418.400000
7419 13954 7420 1 109.50000 418.400000
5345 13955 6069 1 109.50000 418.400000
5345 13955 7421 1 109.50000 418.400000
5345 13955 7422 1 109.50000 418.400000
6069 13955 7421 1 109.50000 418.400000
6069 13955 7422 1 109.50000 418.400000
7421 13955 7422 1 109.50000 418.400000
3288 13956 6035 1 109.50000 418.400000
3288 13956 6553 1 109.50000 418.400000
3288 13956 7423 1 109.50000 418.400000
6035 13956 6553 1 109.50000 418.400000
6035 13956 7423 1 109.50000 418.400000
6553 13956 7423 1 109.50000 418.400000
7409 13957 7424 1 109.50000 418.400000
7409 13957 7425 1 109.50000 418.400000
7409 13957 7426 1 109.50000 418.400000
7424 13957 7425 1 109.50000 418.400000
7424 13957 7426 1 109.50000 418.400000
7425 13957 7426 1 109.50000 418.400000
6639 13958 7427 1 109.50000 418.400000
6639 13958 7428 1 109.50000 418.400000
6639 13958 7429 1 109.50000 418.400000
7427 13958 7428 1 109.50000 418.400000
7427 13958 7429 1 109.50000 418.400000
7428 13958 7429 1 109.50000 418.400000
7093 13959 7249 1 109.50000 418.400000
7093 13959 7430 1 109.50000 418.400000
7093 13959 7432 1 109.50000 418.400000
7249 13959 7430 1 109.50000 418.400000
7249 13959 7432 1 109.50000 418.400000
7430 13959 7432 1 109.50000 418.400000
1077 13960 4417 1 109.50000 418.400000
1077 13960 5296 1 109.50000 418.400000
1077 13960 7433 1 109.50000 418.400000
4417 13960 5296 1 109.50000 418.400000
4417 13960 7433 1 109.50000 418.400000
5296 13960 7433 1 109.50000 418.400000
4259 13961 7434 1 109.50000 418.400000
4259 13961 7435 1 109.50000 418.400000
4259 13961 7436 1 109.50000 418.400000
7434 13961 7435 1 109.50000 418.400000
7434 13961 7436 1 109.50000 418.400000
7435 13961 7436 1 109.50000 418.400000
1166 13962 7437 1 109.50000 418.400000
1166 13962 7438 1 109.50000 418.400000
1166 13962 7439 1 109.50000 418.400000
7437 13962 7438 1 109.50000 418.400000
7437 13962 7439 1 109.50000 418.400000
7438 13962 7439 1 109.50000 418.400000
4880 13963 7310 1 109.50000 418.400000
4880 13963 7440 1 109.50000 418.400000
4880 13963 7441 1 109.50000 418.400000
7310 13963 7440 1 109.50000 418.400000
7310 13963 7441 1 109.50000 418.400000
7440 13963 7441 1 109.50000 418.400000
4383 13964 6138 1 109.50000 418.400000
4383 13964 7181 1 109.50000 418.400000
4383 13964 7442 1 109.50000 418.400000
6138 13964 7181 1 109.50000 418.400000
6138 13964 7442 1 109.50000 418.400000
7181 13964 7442 1 109.50000 418.400000
4460 13965 7443 1 109.50000 418.400000
4460 13965 7444 1 109.50000 418.400000
4460 13965 7445 1 109.50000 418.400000
7443 13965 7444 1 109.50000 418.400000
7443 13965 7445 1 109.50000 418.400000
7444 13965 7445 1 109.50000 418.400000
4307 13966 6407 1 109.50000 418.400000
4307 13966 6765 1 109.50000 418.400000
4307 13966 6916 1 109.50000 418.400000
6407 13966 6765 1 109.50000 418.400000
6407 13966 6916 1 109.50000 418.400000
6765 13966 6916 1 109.50000 418.400000
4807 13967 6656 1 109.50000 418.400000
4807 13967 7447 1 109.50000 418.400000
4807 13967 7448 1 109.50000 418.400000
6656 13967 7447 1 109.50000 418.400000
6656 13967 7448 1 109.50000 418.400000
7447 13967 7448 1 109.50000 418.400000
4675 13968 6912 1 109.50000 418.400000
4675 13968 7449 1 109.50000 418.400000
4675 13968 7450 1 109.50000 418.400000
6912 13968 7449 1 109.50000 418.400000
6912 13968 7450 1 109.50000 418.400000
7449 13968 7450 1 109.50000 418.400000
6161 13969 6162 1 109.50000 418.400000
6161 13969 7452 1 109.50000 418.400000
6161 13969 7453 1 109.50000 418.400000
6162 13969 7452 1 109.50000 418.400000
6162 13969 7453 1 109.50000 418.400000
7452 13969 7453 1 109.50000 418.400000
6706 13970 7454 1 109.50000 418.400000
6706 13970 7455 1 109.50000 418.400000
6706 13970 7456 1 109.50000 418.400000
7454 13970 7455 1 109.50000 418.400000
7454 13970 7456 1 109.50000 418.400000
7455 13970 7456 1 109.50000 418.400000
13 13971 2589 1 109.50000 418.400000
13 13971 7457 1 109.50000 418.400000
13 13971 7458 1 109.50000 418.400000
2589 13971 7457 1 109.50000 418.400000
2589 13971 7458 1 109.50000 418.400000
7457 13971 7458 1 109.50000 418.400000
5055 13972 7459 1 109.50000 418.400000
5055 13972 7460 1 109.50000 418.400000
5055 13972 7461 1 109.50000 418.400000
7459 13972 7460 1 109.50000 418.400000
7459 13972 7461 1 109.50000 418.400000
7460 13972 7461 1 109.50000 418.400000
746 13973 1795 1 109.50000 418.400000
746 13973 7462 1 109.50000 418.400000
746 13973 7463 1 109.50000 418.400000
1795 13973 7462 1 109.50000 418.400000
1795 13973 7463 1 109.50000 418.400000
7462 13973 7463 1 109.50000 418.400000
2547 13974 7464 1 109.50000 418.400000
2547 13974 7465 1 109.50000 418.400000
2547 13974 7466 1 109.50000 418.400000
7464 13974 7465 1 109.50000 418.400000
7464 13974 7466 1 109.50000 418.400000
7465 13974 7466 1 109.50000 418.400000
6687 13975 6925 1 109.50000 418.400000
6687 13975 7467 1 109.50000 418.400000
6687 13975 7468 1 109.50000 418.400000
6925 13975 7467 1 109.50000 418.400000
6925 13975 7468 1 109.50000 418.400000
7467 13975 7468 1 109.50000 418.400000
4091 13976 5277 1 109.50000 418.400000
4091 13976 6410 1 109.50000 418.400000
4091 13976 7469 1 109.50000 418.400000
5277 13976 6410 1 109.50000 418.400000
5277 13976 7469 1 109.50000 418.400000
6410 13976 7469 1 109.50000 418.400000
2562 13977 4229 1 109.50000 418.400000
2562 13977 5403 1 109.50000 418.400000
2562 13977 7471 1 109.50000 418.400000
4229 13977 5403 1 109.50000 418.400000
4229 13977 7471 1 109.50000 418.400000
5403 13977 7471 1 109.50000 418.400000
1476 13978 4692 1 109.50000 418.400000
1476 13978 7472 1 109.50000 418.400000
1476 13978 11446 1 109.50000 418.400000
4692 13978 7472 1 109.50000 418.400000
4692 13978 11446 1 109.50000 418.400000
7472 13978 11446 1 109.50000 418.400000
2821 13979 7084 1 109.50000 418.400000
2821 13979 7271 1 109.50000 418.400000
2821 13979 7473 1 109.50000 418.400000
7084 13979 7271 1 109.50000 418.400000
7084 13979 7473 1 109.50000 418.400000
7271 13979 7473 1 109.50000 418.400000
7474 13980 7475 1 109.50000 418.400000
7474 13980 7476 1 109.50000 418.400000
7474 13980 7477 1 109.50000 418.400000
7475 13980 7476 1 109.50000 418.400000
7475 13980 7477 1 109.50000 418.400000
7476 13980 7477 1 109.50000 418.400000
5753 13981 6327 1 109.50000 418.400000
5753 13981 6431 1 109.50000 418.400000
5753 13981 7478 1 109.50000 418.400000
6327 13981 6431 1 109.50000 418.400000
6327 13981 7478 1 109.50000 418.400000
6431 13981 7478 1 109.50000 418.400000
407 13982 3707 1 109.50000 418.400000
407 13982 7479 1 109.50000 418.400000
407 13982 7480 1 109.50000 418.400000
3707 13982 7479 1 109.50000 418.400000
3707 13982 7480 1 109.50000 418.400000
7479 13982 7480 1 109.50000 418.400000
4336 13983 7481 1 109.50000 418.400000
4336 13983 7482 1 109.50000 418.400000
4336 13983 7483 1 109.50000 418.400000
7481 13983 7482 1 109.50000 418.400000
7481 13983 7483 1 109.50000 418.400000
7482 13983 7483 1 109.50000 418.400000
4959 13984 5571 1 109.50000 418.400000
4959 13984 6191 1 109.50000 418.400000
4959 13984 7484 1 109.50000 418.400000
5571 13984 6191 1 109.50000 418.400000
5571 13984 7484 1 109.50000 418.400000
6191 13984 7484 1 109.50000 418.400000
5288 13985 7485 1 109.50000 418.400000
5288 13985 7486 1 109.50000 418.400000
5288 13985 11557 1 109.50000 418.400000
7485 13985 7486 1 109.50000 418.400000
7485 13985 11557 1 109.50000 418.400000
7486 13985 11557 1 109.50000 418.400000
3340 13986 7487 1 109.50000 418.400000
3340 13986 7488 1 109.50000 418.400000
3340 13986 7489 1 109.50000 418.400000
7487 13986 7488 1 109.50000 418.400000
7487 13986 7489 1 109.50000 418.400000
7488 13986 7489 1 109.50000 418.400000
651 13987 7490 1 109.50000 418.400000
651 13987 7491 1 109.50000 418.400000
651 13987 7492 1 109.50000 418.400000
7490 13987 7491 1 109.50000 418.400000
7490 13987 7492 1 109.50000 418.400000
7491 13987 7492 1 109.50000 418.400000
2541 13988 4791 1 109.50000 418.400000
2541 13988 7493 1 109.50000 418.400000
2541 13988 7494 1 109.50000 418.400000
4791 13988 7493 1 109.50000 418.400000
4791 13988 7494 1 109.50000 418.400000
7493 13988 7494 1 109.50000 418.400000
6447 13989 7143 1 109.50000 418.400000
6447 13989 7495 1 109.50000 418.400000
6447 13989 7496 1 109.50000 418.400000
7143 13989 7495 1 109.50000 418.400000
7143 13989 7496 1 109.50000 418.400000
7495 13989 7496 1 109.50000 418.400000
2746 13990 4785 1 109.50000 418.400000
2746 13990 7497 1 109.50000 418.400000
2746 13990 11566 1 109.50000 418.400000
4785 13990 7497 1 109.50000 418.400000
4785 13990 11566 1 109.50000 418.400000
7497 13990 11566 1 109.50000 418.400000
7498 13991 7499 1 109.50000 418.400000
7498 13991 7500 1 109.50000 418.400000
7498 13991 7501 1 109.50000 418.400000
7499 13991 7500 1 109.50000 418.400000
7499 13991 7501 1 109.50000 418.400000
7500 13991 7501 1 109.50000 418.400000
891 13992 7502 1 109.50000 418.400000
891 13992 7503 1 109.50000 418.400000
891 13992 7504 1 109.50000 418.400000
7502 13992 7503 1 109.50000 418.400000
7502 13992 7504 1 109.50000 418.400000
7503 13992 7504 1 109.50000 418.400000
582 13993 5033 1 109.50000 418.400000
582 13993 7505 1 109.50000 418.400000
582 13993 7506 1 109.50000 418.400000
5033 13993 7505 1 109.50000 418.400000
5033 13993 7506 1 109.50000 418.400000
7505 13993 7506 1 109.50000 418.400000
3106 13994 5095 1 109.50000 418.400000
3106 13994 5501 1 109.50000 418.400000
3106 13994 11592 1 109.50000 418.400000
5095 13994 5501 1 109.50000 418.400000
5095 13994 11592 1 109.50000 418.400000
5501 13994 11592 1 109.50000 418.400000
3566 13995 4178 1 109.50000 418.400000
3566 13995 7508 1 109.50000 418.400000
3566 13995 7509 1 109.50000 418.400000
4178 13995 7508 1 109.50000 418.400000
4178 13995 7509 1 109.50000 418.400000
7508 13995 7509 1 109.50000 418.400000
611 13996 6450 1 109.50000 418.400000
611 13996 7511 1 109.50000 418.400000
611 13996 7512 1 109.50000 418.400000
6450 13996 7511 1 109.50000 418.400000
6450 13996 7512 1 109.50000 418.400000
7511 13996 7512 1 109.50000 418.400000
250 13997 253 1 109.50000 418.400000
250 13997 7515 1 109.50000 418.400000
250 13997 8014 1 109.50000 418.400000
253 13997 7515 1 109.50000 418.400000
253 13997 8014 1 109.50000 418.400000
7515 13997 8014 1 109.50000 418.400000
2255 13998 7436 1 109.50000 418.400000
2255 13998 7516 1 109.50000 418.400000
2255 13998 7517 1 109.50000 418.400000
7436 13998 7516 1 109.50000 418.400000
7436 13998 7517 1 109.50000 418.400000
7516 13998 7517 1 109.50000 418.400000
3270 13999 6433 1 109.50000 418.400000
3270 13999 7518 1 109.50000 418.400000
3270 13999 7519 1 109.50000 418.400000
6433 13999 7518 1 109.50000 418.400000
6433 13999 7519 1 109.50000 418.400000
7518 13999 7519 1 109.50000 418.400000
1395 14000 7520 1 109.50000 418.400000
1395 14000 7521 1 109.50000 418.400000
1395 14000 10248 1 109.50000 418.400000
7520 14000 7521 1 109.50000 418.400000
7520 14000 10248 1 109.50000 418.400000
7521 14000 10248 1 109.50000 418.400000
5638 14001 7523 1 109.50000 418.400000
5638 14001 7524 1 109.50000 418.400000
5638 14001 7525 1 109.50000 418.400000
7523 14001 7524 1 109.50000 418.400000
7523 14001 7525 1 109.50000 418.400000
7524 14001 7525 1 109.50000 418.400000
5875 14002 6971 1 109.50000 418.400000
5875 14002 7526 1 109.50000 418.400000
5875 14002 7527 1 109.50000 418.400000
6971 14002 7526 1 109.50000 418.400000
6971 14002 7527 1 109.50000 418.400000
7526 14002 7527 1 109.50000 418.400000
3395 14003 7530 1 109.50000 418.400000
3395 14003 7531 1 109.50000 418.400000
3395 14003 7532 1 109.50000 418.400000
7530 14003 7531 1 109.50000 418.400000
7530 14003 7532 1 109.50000 418.400000
7531 14003 7532 1 109.50000 418.400000
2501 14004 4382 1 109.50000 418.400000
2501 14004 7533 1 109.50000 418.400000
2501 14004 7534 1 109.50000 418.400000
4382 14004 7533 1 109.50000 418.400000
4382 14004 7534 1 109.50000 418.400000
7533 14004 7534 1 109.50000 418.400000
509 14005 3755 1 109.50000 418.400000
509 14005 5782 1 109.50000 418.400000
509 14005 7535 1 109.50000 418.400000
3755 14005 5782 1 109.50000 418.400000
3755 14005 7535 1 109.50000 418.400000
5782 14005 7535 1 109.50000 418.400000
4482 14006 6977 1 109.50000 418.400000
4482 14006 7536 1 109.50000 418.400000
4482 14006 7537 1 109.50000 418.400000
6977 14006 7536 1 109.50000 418.400000
6977 14006 7537 1 109.50000 418.400000
7536 14006 7537 1 109.50000 418.400000
2580 14007 4724 1 109.50000 418.400000
2580 14007 6989 1 109.50000 418.400000
2580 14007 7538 1 109.50000 418.400000
4724 14007 6989 1 109.50000 418.400000
4724 14007 7538 1 109.50000 418.400000
6989 14007 7538 1 109.50000 418.400000
1266 14008 7497 1 109.50000 418.400000
1266 14008 7539 1 109.50000 418.400000
1266 14008 7540 1 109.50000 418.400000
7497 14008 7539 1 109.50000 418.400000
7497 14008 7540 1 109.50000 418.400000
7539 14008 7540 1 109.50000 418.400000
6965 14009 7541 1 109.50000 418.400000
6965 14009 7542 1 109.50000 418.400000
6965 14009 7543 1 109.50000 418.400000
7541 14009 7542 1 109.50000 418.400000
7541 14009 7543 1 109.50000 418.400000
7542 14009 7543 1 109.50000 418.400000
4488 14010 5114 1 109.50000 418.400000
4488 14010 6041 1 109.50000 418.400000
4488 14010 7544 1 109.50000 418.400000
5114 14010 6041 1 109.50000 418.400000
5114 14010 7544 1 109.50000 418.400000
6041 14010 7544 1 109.50000 418.400000
1585 14011 1636 1 109.50000 418.400000
1585 14011 7545 1 109.50000 418.400000
1585 14011 7546 1 109.50000 418.400000
1636 14011 7545 1 109.50000 418.400000
1636 14011 7546 1 109.50000 418.400000
7545 14011 7546 1 109.50000 418.400000
2467 14012 3774 1 109.50000 418.400000
2467 14012 5031 1 109.50000 418.400000
2467 14012 6952 1 109.50000 418.400000
3774 14012 5031 1 109.50000 418.400000
3774 14012 6952 1 109.50000 418.400000
5031 14012 6952 1 109.50000 418.400000
1239 14013 5907 1 109.50000 418.400000
1239 14013 6844 1 109.50000 418.400000
1239 14013 7547 1 109.50000 418.400000
5907 14013 6844 1 109.50000 418.400000
5907 14013 7547 1 109.50000 418.400000
6844 14013 7547 1 109.50000 418.400000
3495 14014 7548 1 109.50000 418.400000
3495 14014 7549 1 109.50000 418.400000
3495 14014 7550 1 109.50000 418.400000
7548 14014 7549 1 109.50000 418.400000
7548 14014 7550 1 109.50000 418.400000
7549 14014 7550 1 109.50000 418.400000
1702 14015 5775 1 109.50000 418.400000
1702 14015 7551 1 109.50000 418.400000
1702 14015 7552 1 109.50000 418.400000
5775 14015 7551 1 109.50000 418.400000
5775 14015 7552 1 109.50000 418.400000
7551 14015 7552 1 109.50000 418.400000
380 14016 3849 1 109.50000 418.400000
380 14016 7553 1 109.50000 418.400000
380 14016 7554 1 109.50000 418.400000
3849 14016 7553 1 109.50000 418.400000
3849 14016 7554 1 109.50000 418.400000
7553 14016 7554 1 109.50000 418.400000
132 14017 3087 1 109.50000 418.400000
132 14017 3247 1 109.50000 418.400000
132 14017 7555 1 109.50000 418.400000
3087 14017 3247 1 109.50000 418.400000
3087 14017 7555 1 109.50000 418.400000
3247 14017 7555 1 109.50000 418.400000
7483 14018 7556 1 109.50000 418.400000
7483 14018 7557 1 109.50000 418.400000
7483 14018 7558 1 109.50000 418.400000
7556 14018 7557 1 109.50000 418.400000
7556 14018 7558 1 109.50000 418.400000
7557 14018 7558 1 109.50000 418.400000
7560 14019 7561 1 109.50000 418.400000
7560 14019 7562 1 109.50000 418.400000
7560 14019 7563 1 109.50000 418.400000
7561 14019 7562 1 109.50000 418.400000
7561 14019 7563 1 109.50000 418.400000
7562 14019 7563 1 109.50000 418.400000
2759 14020 4407 1 109.50000 418.400000
2759 14020 7564 1 109.50000 418.400000
2759 14020 7565 1 109.50000 418.400000
4407 14020 7564 1 109.50000 418.400000
4407 14020 7565 1 109.50000 418.400000
7564 14020 7565 1 109.50000 418.400000
4915 14021 6716 1 109.50000 418.400000
4915 14021 7403 1 109.50000 418.400000
4915 14021 7566 1 109.50000 418.400000
6716 14021 7403 1 109.50000 418.400000
6716 14021 7566 1 109.50000 418.400000
7403 14021 7566 1 109.50000 418.400000
7128 14022 7567 1 109.50000 418.400000
7128 14022 7569 1 109.50000 418.400000
7128 14022 8469 1 109.50000 418.400000
7567 14022 7569 1 109.50000 418.400000
7567 14022 8469 1 109.50000 418.400000
7569 14022 8469 1 109.50000 418.400000
1341 14023 4199 1 109.50000 418.400000
1341 14023 7571 1 109.50000 418.400000
1341 14023 7572 1 109.50000 418.400000
4199 14023 7571 1 109.50000 418.400000
4199 14023 7572 1 109.50000 418.400000
7571 14023 7572 1 109.50000 418.400000
3803 14024 7573 1 109.50000 418.400000
3803 14024 7574 1 109.50000 418.400000
3803 14024 7575 1 109.50000 418.400000
7573 14024 7574 1 109.50000 418.400000
7573 14024 7575 1 109.50000 418.400000
7574 14024 7575 1 109.50000 418.400000
2018 14025 3322 1 109.50000 418.400000
2018 14025 4153 1 109.50000 418.400000
2018 14025 5236 1 109.50000 418.400000
3322 14025 4153 1 109.50000 418.400000
3322 14025 5236 1 109.50000 418.400000
4153 14025 5236 1 109.50000 418.400000
872 14026 3839 1 109.50000 418.400000
872 14026 6761 1 109.50000 418.400000
872 14026 6999 1 109.50000 418.400000
3839 14026 6761 1 109.50000 418.400000
3839 14026 6999 1 109.50000 418.400000
6761 14026 6999 1 109.50000 418.400000
1672 14027 4225 1 109.50000 418.400000
1672 14027 7576 1 109.50000 418.400000
1672 14027 7577 1 109.50000 418.400000
4225 14027 7576 1 109.50000 418.400000
4225 14027 7577 1 109.50000 418.400000
7576 14027 7577 1 109.50000 418.400000
805 14028 1374 1 109.50000 418.400000
805 14028 5787 1 109.50000 418.400000
805 14028 7578 1 109.50000 418.400000
1374 14028 5787 1 109.50000 418.400000
1374 14028 7578 1 109.50000 418.400000
5787 14028 7578 1 109.50000 418.400000
5646 14029 7579 1 109.50000 418.400000
5646 14029 7580 1 109.50000 418.400000
5646 14029 7581 1 109.50000 418.400000
7579 14029 7580 1 109.50000 418.400000
7579 14029 7581 1 109.50000 418.400000
7580 14029 7581 1 109.50000 418.400000
1404 14030 5350 1 109.50000 418.400000
1404 14030 7135 1 109.50000 418.400000
1404 14030 7582 1 109.50000 418.400000
5350 14030 7135 1 109.50000 418.400000
5350 14030 7582 1 109.50000 418.400000
7135 14030 7582 1 109.50000 418.400000
2089 14031 3391 1 109.50000 418.400000
2089 14031 6668 1 109.50000 418.400000
2089 14031 7583 1 109.50000 418.400000
3391 14031 6668 1 109.50000 418.400000
3391 14031 7583 1 109.50000 418.400000
6668 14031 7583 1 109.50000 418.400000
2368 14032 5086 1 109.50000 418.400000
2368 14032 7584 1 109.50000 418.400000
2368 14032 7585 1 109.50000 418.400000
5086 14032 7584 1 109.50000 418.400000
5086 14032 7585 1 109.50000 418.400000
7584 14032 7585 1 109.50000 418.400000
1422 14033 7189 1 109.50000 418.400000
1422 14033 7586 1 109.50000 418.400000
1422 14033 7587 1 109.50000 418.400000
7189 14033 7586 1 109.50000 418.400000
7189 14033 7587 1 109.50000 418.400000
7586 14033 7587 1 109.50000 418.400000
7351 14034 7588 1 109.50000 418.400000
7351 14034 7589 1 109.50000 418.400000
7351 14034 7590 1 109.50000 418.400000
7588 14034 7589 1 109.50000 418.400000
7588 14034 7590 1 109.50000 418.400000
7589 14034 7590 1 109.50000 418.400000
4752 14035 7591 1 109.50000 418.400000
4752 14035 7592 1 109.50000 418.400000
4752 14035 7593 1 109.50000 418.400000
7591 14035 7592 1 109.50000 418.400000
7591 14035 7593 1 109.50000 418.400000
7592 14035 7593 1 109.50000 418.400000
5621 14036 7594 1 109.50000 418.400000
5621 14036 7595 1 109.50000 418.400000
5621 14036 7596 1 109.50000 418.400000
7594 14036 7595 1 109.50000 418.400000
7594 14036 7596 1 109.50000 418.400000
7595 14036 7596 1 109.50000 418.400000
952 14037 2136 1 109.50000 418.400000
952 14037 7597 1 109.50000 418.400000
952 14037 7598 1 109.50000 418.400000
2136 14037 7597 1 109.50000 418.400000
2136 14037 7598 1 109.50000 418.400000
7597 14037 7598 1 109.50000 418.400000
6033 14038 6651 1 109.50000 418.400000
6033 14038 7599 1 109.50000 418.400000
6033 14038 7600 1 109.50000 418.400000
6651 14038 7599 1 109.50000 418.400000
6651 14038 7600 1 109.50000 418.400000
7599 14038 7600 1 109.50000 418.400000
189 14039 5291 1 109.50000 418.400000
189 14039 7601 1 109.50000 418.400000
189 14039 7602 1 109.50000 418.400000
5291 14039 7601 1 109.50000 418.400000
5291 14039 7602 1 109.50000 418.400000
7601 14039 7602 1 109.50000 418.400000
6164 14040 7604 1 109.50000 418.400000
6164 14040 7605 1 109.50000 418.400000
6164 14040 7606 1 109.50000 418.400000
7604 14040 7605 1 109.50000 418.400000
7604 14040 7606 1 109.50000 418.400000
7605 14040 7606 1 109.50000 418.400000
2862 14041 3173 1 109.50000 418.400000
2862 14041 4751 1 109.50000 418.400000
2862 14041 7607 1 109.50000 418.400000
3173 14041 4751 1 109.50000 418.400000
3173 14041 7607 1 109.50000 418.400000
4751 14041 7607 1 109.50000 418.400000
2739 14042 2933 1 109.50000 418.400000
2739 14042 7608 1 109.50000 418.400000
2739 14042 7609 1 109.50000 418.400000
2933 14042 7608 1 109.50000 418.400000
2933 14042 7609 1 109.50000 418.400000
7608 14042 7609 1 109.50000 418.400000
4005 14043 5367 1 109.50000 418.400000
4005 14043 7601 1 109.50000 418.400000
4005 14043 7610 1 109.50000 418.400000
5367 14043 7601 1 109.50000 418.400000
5367 14043 7610 1 109.50000 418.400000
7601 14043 7610 1 109.50000 418.400000
2875 14044 3329 1 109.50000 418.400000
2875 14044 3804 1 109.50000 418.400000
2875 14044 7611 1 109.50000 418.400000
3329 14044 3804 1 109.50000 418.400000
3329 14044 7611 1 109.50000 418.400000
3804 14044 7611 1 109.50000 418.400000
6486 14045 7363 1 109.50000 418.400000
6486 14045 11400 1 109.50000 418.400000
6486 14045 11520 1 109.50000 418.400000
7363 14045 11400 1 109.50000 418.400000
7363 14045 11520 1 109.50000 418.400000
11400 14045 11520 1 109.50000 418.400000
7613 14046 7614 1 109.50000 418.400000
7613 14046 10414 1 109.50000 418.400000
7613 14046 10513 1 109.50000 418.400000
7614 14046 10414 1 109.50000 418.400000
7614 14046 10513 1 109.50000 418.400000
10414 14046 10513 1 109.50000 418.400000
2093 14047 7615 1 109.50000 418.400000
2093 14047 7616 1 109.50000 418.400000
2093 14047 7617 1 109.50000 418.400000
7615 14047 7616 1 109.50000 418.400000
7615 14047 7617 1 109.50000 418.400000
7616 14047 7617 1 109.50000 418.400000
2726 14048 3699 1 109.50000 418.400000
2726 14048 6755 1 109.50000 418.400000
2726 14048 6943 1 109.50000 418.400000
3699 14048 6755 1 109.50000 418.400000
3699 14048 6943 1 109.50000 418.400000
6755 14048 6943 1 109.50000 418.400000
1401 14049 7618 1 109.50000 418.400000
1401 14049 7619 1 109.50000 418.400000
1401 14049 7620 1 109.50000 418.400000
7618 14049 7619 1 109.50000 418.400000
7618 14049 7620 1 109.50000 418.400000
7619 14049 7620 1 109.50000 418.400000
3446 14050 7621 1 109.50000 418.400000
3446 14050 7622 1 109.50000 418.400000
3446 14050 7623 1 109.50000 418.400000
7621 14050 7622 1 109.50000 418.400000
7621 14050 7623 1 109.50000 418.400000
7622 14050 7623 1 109.50000 418.400000
7209 14051 7627 1 109.50000 418.400000
7209 14051 7628 1 109.50000 418.400000
7209 14051 11432 1 109.50000 418.400000
7627 14051 7628 1 109.50000 418.400000
7627 14051 11432 1 109.50000 418.400000
7628 14051 11432 1 109.50000 418.400000
159 14052 7629 1 109.50000 418.400000
159 14052 7630 1 109.50000 418.400000
159 14052 7631 1 109.50000 418.400000
7629 14052 7630 1 109.50000 418.400000
7629 14052 7631 1 109.50000 418.400000
7630 14052 7631 1 109.50000 418.400000
7632 14053 7633 1 109.50000 418.400000
7632 14053 7634 1 109.50000 418.400000
7632 14053 7635 1 109.50000 418.400000
7633 14053 7634 1 109.50000 418.400000
7633 14053 7635 1 109.50000 418.400000
7634 14053 7635 1 109.50000 418.400000
3035 14054 7636 1 109.50000 418.400000
3035 14054 11154 1 109.50000 418.400000
3035 14054 11558 1 109.50000 418.400000
7636 14054 11154 1 109.50000 418.400000
7636 14054 11558 1 109.50000 418.400000
11154 14054 11558 1 109.50000 418.400000
5644 14055 7637 1 109.50000 418.400000
5644 14055 7638 1 109.50000 418.400000
5644 14055 7639 1 109.50000 418.400000
7637 14055 7638 1 109.50000 418.400000
7637 14055 7639 1 109.50000 418.400000
7638 14055 7639 1 109.50000 418.400000
6338 14056 7398 1 109.50000 418.400000
6338 14056 7640 1 109.50000 418.400000
6338 14056 7641 1 109.50000 418.400000
7398 14056 7640 1 109.50000 418.400000
7398 14056 7641 1 109.50000 418.400000
7640 14056 7641 1 109.50000 418.400000
5656 14057 5679 1 109.50000 418.400000
5656 14057 7642 1 109.50000 418.400000
5656 14057 7643 1 109.50000 418.400000
5679 14057 7642 1 109.50000 418.400000
5679 14057 7643 1 109.50000 418.400000
7642 14057 7643 1 109.50000 418.400000
6194 14058 7645 1 109.50000 418.400000
6194 14058 7646 1 109.50000 418.400000
6194 14058 10872 1 109.50000 418.400000
7645 14058 7646 1 109.50000 418.400000
7645 14058 10872 1 109.50000 418.400000
7646 14058 10872 1 109.50000 418.400000
1499 14059 3858 1 109.50000 418.400000
1499 14059 7647 1 109.50000 418.400000
1499 14059 7648 1 109.50000 418.400000
3858 14059 7647 1 109.50000 418.400000
3858 14059 7648 1 109.50000 418.400000
7647 14059 7648 1 109.50000 418.400000
1368 14060 4762 1 109.50000 418.400000
1368 14060 7649 1 109.50000 418.400000
1368 14060 7650 1 109.50000 418.400000
4762 14060 7649 1 109.50000 418.400000
4762 14060 7650 1 109.50000 418.400000
7649 14060 7650 1 109.50000 418.400000
5242 14061 7651 1 109.50000 418.400000
5242 14061 7652 1 109.50000 418.400000
5242 14061 7653 1 109.50000 418.400000
7651 14061 7652 1 109.50000 418.400000
7651 14061 7653 1 109.50000 418.400000
7652 14061 7653 1 109.50000 418.400000
353 14062 2357 1 109.50000 418.400000
353 14062 2976 1 109.50000 418.400000
353 14062 7654 1 109.50000 418.400000
2357 14062 2976 1 109.50000 418.400000
2357 14062 7654 1 109.50000 418.400000
2976 14062 7654 1 109.50000 418.400000
141 14063 693 1 109.50000 418.400000
141 14063 5601 1 109.50000 418.400000
141 14063 7656 1 109.50000 418.400000
693 14063 5601 1 109.50000 418.400000
693 14063 7656 1 109.50000 418.400000
5601 14063 7656 1 109.50000 418.400000
167 14064 4231 1 109.50000 418.400000
167 14064 4658 1 109.50000 418.400000
167 14064 7657 1 109.50000 418.400000
4231 14064 4658 1 109.50000 418.400000
4231 14064 7657 1 109.50000 418.400000
4658 14064 7657 1 109.50000 418.400000
3311 14065 3533 1 109.50000 418.400000
3311 14065 7659 1 109.50000 418.400000
3311 14065 7660 1 109.50000 418.400000
3533 14065 7659 1 109.50000 418.400000
3533 14065 7660 1 109.50000 418.400000
7659 14065 7660 1 109.50000 418.400000
5261 14066 7664 1 109.50000 418.400000
5261 14066 11244 1 109.50000 418.400000
5261 14066 11600 1 109.50000 418.400000
7664 14066 11244 1 109.50000 418.400000
7664 14066 11600 1 109.50000 418.400000
11244 14066 11600 1 109.50000 418.400000
2662 14067 5047 1 109.50000 418.400000
2662 14067 5115 1 109.50000 418.400000
2662 14067 7212 1 109.50000 418.400000
5047 14067 5115 1 109.50000 418.400000
5047 14067 7212 1 109.50000 418.400000
5115 14067 7212 1 109.50000 418.400000
1812 14068 4012 1 109.50000 418.400000
1812 14068 5247 1 109.50000 418.400000
1812 14068 7667 1 109.50000 418.400000
4012 14068 5247 1 109.50000 418.400000
4012 14068 7667 1 109.50000 418.400000
5247 14068 7667 1 109.50000 418.400000
495 14069 497 1 109.50000 418.400000
495 14069 6622 1 109.50000 418.400000
495 14069 7668 1 109.50000 418.400000
497 14069 6622 1 109.50000 418.400000
497 14069 7668 1 109.50000 418.400000
6622 14069 7668 1 109.50000 418.400000
5962 14070 5976 1 109.50000 418.400000
5962 14070 7671 1 109.50000 418.400000
5962 14070 9979 1 109.50000 418.400000
5976 14070 7671 1 109.50000 418.400000
5976 14070 9979 1 109.50000 418.400000
7671 14070 9979 1 109.50000 418.400000
3766 14071 4059 1 109.50000 418.400000
3766 14071 5711 1 109.50000 418.400000
3766 14071 7673 1 109.50000 418.400000
4059 14071 5711 1 109.50000 418.400000
4059 14071 7673 1 109.50000 418.400000
5711 14071 7673 1 109.50000 418.400000
5028 14072 5029 1 109.50000 418.400000
5028 14072 6323 1 109.50000 418.400000
5028 14072 7674 1 109.50000 418.400000
5029 14072 6323 1 109.50000 418.400000
5029 14072 7674 1 109.50000 418.400000
6323 14072 7674 1 109.50000 418.400000
684 14073 7675 1 109.50000 418.400000
684 14073 7676 1 109.50000 418.400000
684 14073 7677 1 109.50000 418.400000
7675 14073 7676 1 109.50000 418.400000
7675 14073 7677 1 109.50000 418.400000
7676 14073 7677 1 109.50000 418.400000
697 14074 7678 1 109.50000 418.400000
697 14074 7679 1 109.50000 418.400000
697 14074 7680 1 109.50000 418.400000
7678 14074 7679 1 109.50000 418.400000
7678 14074 7680 1 109.50000 418.400000
7679 14074 7680 1 109.50000 418.400000
725 14075 5429 1 109.50000 418.400000
725 14075 7681 1 109.50000 418.400000
725 14075 7682 1 109.50000 418.400000
5429 14075 7681 1 109.50000 418.400000
5429 14075 7682 1 109.50000 418.400000
7681 14075 7682 1 109.50000 418.400000
1550 14076 7683 1 109.50000 418.400000
1550 14076 7684 1 109.50000 418.400000
1550 14076 7685 1 109.50000 418.400000
7683 14076 7684 1 109.50000 418.400000
7683 14076 7685 1 109.50000 418.400000
7684 14076 7685 1 109.50000 418.400000
3634 14077 5303 1 109.50000 418.400000
3634 14077 5798 1 109.50000 418.400000
3634 14077 6580 1 109.50000 418.400000
5303 14077 5798 1 109.50000 418.400000
5303 14077 6580 1 109.50000 418.400000
5798 14077 6580 1 109.50000 418.400000
6379 14078 7686 1 109.50000 418.400000
6379 14078 11309 1 109.50000 418.400000
6379 14078 11601 1 109.50000 418.400000
7686 14078 11309 1 109.50000 418.400000
7686 14078 11601 1 109.50000 418.400000
11309 14078 11601 1 109.50000 418.400000
2858 14079 2861 1 109.50000 418.400000
2858 14079 7689 1 109.50000 418.400000
2858 14079 7690 1 109.50000 418.400000
2861 14079 7689 1 109.50000 418.400000
2861 14079 7690 1 109.50000 418.400000
7689 14079 7690 1 109.50000 418.400000
6215 14080 6696 1 109.50000 418.400000
6215 14080 7691 1 109.50000 418.400000
6215 14080 7692 1 109.50000 418.400000
6696 14080 7691 1 109.50000 418.400000
6696 14080 7692 1 109.50000 418.400000
7691 14080 7692 1 109.50000 418.400000
7694 14081 7695 1 109.50000 418.400000
7694 14081 7696 1 109.50000 418.400000
7694 14081 8801 1 109.50000 418.400000
7695 14081 7696 1 109.50000 418.400000
7695 14081 8801 1 109.50000 418.400000
7696 14081 8801 1 109.50000 418.400000
2966 14082 4196 1 109.50000 418.400000
2966 14082 7697 1 109.50000 418.400000
2966 14082 7698 1 109.50000 418.400000
4196 14082 7697 1 109.50000 418.400000
4196 14082 7698 1 109.50000 418.400000
7697 14082 7698 1 109.50000 418.400000
3261 14083 3618 1 109.50000 418.400000
3261 14083 7700 1 109.50000 418.400000
3261 14083 7701 1 109.50000 418.400000
3618 14083 7700 1 109.50000 418.400000
3618 14083 7701 1 109.50000 418.400000
7700 14083 7701 1 109.50000 418.400000
5199 14084 7479 1 109.50000 418.400000
5199 14084 7702 1 109.50000 418.400000
5199 14084 7703 1 109.50000 418.400000
7479 14084 7702 1 109.50000 418.400000
7479 14084 7703 1 109.50000 418.400000
7702 14084 7703 1 109.50000 418.400000
3097 14085 7054 1 109.50000 418.400000
3097 14085 7704 1 109.50000 418.400000
3097 14085 7705 1 109.50000 418.400000
7054 14085 7704 1 109.50000 418.400000
7054 14085 7705 1 109.50000 418.400000
7704 14085 7705 1 109.50000 418.400000
5575 14086 7491 1 109.50000 418.400000
5575 14086 7706 1 109.50000 418.400000
5575 14086 7707 1 109.50000 418.400000
7491 14086 7706 1 109.50000 418.400000
7491 14086 7707 1 109.50000 418.400000
7706 14086 7707 1 109.50000 418.400000
6443 14087 7708 1 109.50000 418.400000
6443 14087 7709 1 109.50000 418.400000
6443 14087 7710 1 109.50000 418.400000
7708 14087 7709 1 109.50000 418.400000
7708 14087 7710 1 109.50000 418.400000
7709 14087 7710 1 109.50000 418.400000
7711 14088 7712 1 109.50000 418.400000
7711 14088 9111 1 109.50000 418.400000
7711 14088 11475 1 109.50000 418.400000
7712 14088 9111 1 109.50000 418.400000
7712 14088 11475 1 109.50000 418.400000
9111 14088 11475 1 109.50000 418.400000
2772 14089 2773 1 109.50000 418.400000
2772 14089 7713 1 109.50000 418.400000
2772 14089 7714 1 109.50000 418.400000
2773 14089 7713 1 109.50000 418.400000
2773 14089 7714 1 109.50000 418.400000
7713 14089 7714 1 109.50000 418.400000
3008 14090 7715 1 109.50000 418.400000
3008 14090 7716 1 109.50000 418.400000
3008 14090 7717 1 109.50000 418.400000
7715 14090 7716 1 109.50000 418.400000
7715 14090 7717 1 109.50000 418.400000
7716 14090 7717 1 109.50000 418.400000
5712 14091 7718 1 109.50000 418.400000
5712 14091 7719 1 109.50000 418.400000
5712 14091 7720 1 109.50000 418.400000
7718 14091 7719 1 109.50000 418.400000
7718 14091 7720 1 109.50000 418.400000
7719 14091 7720 1 109.50000 418.400000
1836 14092 3065 1 109.50000 418.400000
1836 14092 7256 1 109.50000 418.400000
1836 14092 7721 1 109.50000 418.400000
3065 14092 7256 1 109.50000 418.400000
3065 14092 7721 1 109.50000 418.400000
7256 14092 7721 1 109.50000 418.400000
7722 14093 7723 1 109.50000 418.400000
7722 14093 7724 1 109.50000 418.400000
7722 14093 7725 1 109.50000 418.400000
7723 14093 7724 1 109.50000 418.400000
7723 14093 7725 1 109.50000 418.400000
7724 14093 7725 1 109.50000 418.400000
4362 14094 7726 1 109.50000 418.400000
4362 14094 7727 1 109.50000 418.400000
4362 14094 7728 1 109.50000 418.400000
7726 14094 7727 1 109.50000 418.400000
7726 14094 7728 1 109.50000 418.400000
7727 14094 7728 1 109.50000 418.400000
6028 14095 6051 1 109.50000 418.400000
6028 14095 7729 1 109.50000 418.400000
6028 14095 7730 1 109.50000 418.400000
6051 14095 7729 1 109.50000 418.400000
6051 14095 7730 1 109.50000 418.400000
7729 14095 7730 1 109.50000 418.400000
1437 14096 4166 1 109.50000 418.400000
1437 14096 6888 1 109.50000 418.400000
1437 14096 7731 1 109.50000 418.400000
4166 14096 6888 1 109.50000 418.400000
4166 14096 7731 1 109.50000 418.400000
6888 14096 7731 1 109.50000 418.400000
7732 14097 7733 1 109.50000 418.400000
7732 14097 7734 1 109.50000 418.400000
7732 14097 11142 1 109.50000 418.400000
7733 14097 7734 1 109.50000 418.400000
7733 14097 11142 1 109.50000 418.400000
7734 14097 11142 1 109.50000 418.400000
931 14098 7735 1 109.50000 418.400000
931 14098 7736 1 109.50000 418.400000
931 14098 7737 1 109.50000 418.400000
7735 14098 7736 1 109.50000 418.400000
7735 14098 7737 1 109.50000 418.400000
7736 14098 7737 1 109.50000 418.400000
6963 14099 6964 1 109.50000 418.400000
6963 14099 7738 1 109.50000 418.400000
6963 14099 7740 1 109.50000 418.400000
6964 14099 7738 1 109.50000 418.400000
6964 14099 7740 1 109.50000 418.400000
7738 14099 7740 1 109.50000 418.400000
7741 14100 7742 1 109.50000 418.400000
7741 14100 7743 1 109.50000 418.400000
7741 14100 7744 1 109.50000 418.400000
7742 14100 7743 1 109.50000 418.400000
7742 14100 7744 1 109.50000 418.400000
7743 14100 7744 1 109.50000 418.400000
1546 14101 1628 1 109.50000 418.400000
1546 14101 5328 1 109.50000 418.400000
1546 14101 7745 1 109.50000 418.400000
1628 14101 5328 1 109.50000 418.400000
1628 14101 7745 1 109.50000 418.400000
5328 14101 7745 1 109.50000 418.400000
7746 14102 7747 1 109.50000 418.400000
7746 14102 7748 1 109.50000 418.400000
7746 14102 7749 1 109.50000 418.400000
7747 14102 7748 1 109.50000 418.400000
7747 14102 7749 1 109.50000 418.400000
7748 14102 7749 1 109.50000 418.400000
131 14103 4197 1 109.50000 418.400000
131 14103 4376 1 109.50000 418.400000
131 14103 5918 1 109.50000 418.400000
4197 14103 4376 1 109.50000 418.400000
4197 14103 5918 1 109.50000 418.400000
4376 14103 5918 1 109.50000 418.400000
3403 14104 6023 1 109.50000 418.400000
3403 14104 7750 1 109.50000 418.400000
3403 14104 7751 1 109.50000 418.400000
6023 14104 7750 1 109.50000 418.400000
6023 14104 7751 1 109.50000 418.400000
7750 14104 7751 1 109.50000 418.400000
1952 14105 7752 1 109.50000 418.400000
1952 14105 7753 1 109.50000 418.400000
1952 14105 7754 1 109.50000 418.400000
7752 14105 7753 1 109.50000 418.400000
7752 14105 7754 1 109.50000 418.400000
7753 14105 7754 1 109.50000 418.400000
3698 14106 7755 1 109.50000 418.400000
3698 14106 7756 1 109.50000 418.400000
3698 14106 7757 1 109.50000 418.400000
7755 14106 7756 1 109.50000 418.400000
7755 14106 7757 1 109.50000 418.400000
7756 14106 7757 1 109.50000 418.400000
1507 14107 4319 1 109.50000 418.400000
1507 14107 4320 1 109.50000 418.400000
1507 14107 7758 1 109.50000 418.400000
4319 14107 4320 1 109.50000 418.400000
4319 14107 7758 1 109.50000 418.400000
4320 14107 7758 1 109.50000 418.400000
5010 14108 5011 1 109.50000 418.400000
5010 14108 6789 1 109.50000 418.400000
5010 14108 7760 1 109.50000 418.400000
5011 14108 6789 1 109.50000 418.400000
5011 14108 7760 1 109.50000 418.400000
6789 14108 7760 1 109.50000 418.400000
657 14109 1619 1 109.50000 418.400000
657 14109 1620 1 109.50000 418.400000
657 14109 4846 1 109.50000 418.400000
1619 14109 1620 1 109.50000 418.400000
1619 14109 4846 1 109.50000 418.400000
1620 14109 4846 1 109.50000 418.400000
4933 14110 7762 1 109.50000 418.400000
4933 14110 7764 1 109.50000 418.400000
4933 14110 8150 1 109.50000 418.400000
7762 14110 7764 1 109.50000 418.400000
7762 14110 8150 1 109.50000 418.400000
7764 14110 8150 1 109.50000 418.400000
1609 14111 1612 1 109.50000 418.400000
1609 14111 7766 1 109.50000 418.400000
1609 14111 7767 1 109.50000 418.400000
1612 14111 7766 1 109.50000 418.400000
1612 14111 7767 1 109.50000 418.400000
7766 14111 7767 1 109.50000 418.400000
1570 14112 3969 1 109.50000 418.400000
1570 14112 7367 1 109.50000 418.400000
1570 14112 7768 1 109.50000 418.400000
3969 14112 7367 1 109.50000 418.400000
3969 14112 7768 1 109.50000 418.400000
7367 14112 7768 1 109.50000 418.400000
6364 14113 7769 1 109.50000 418.400000
6364 14113 7770 1 109.50000 418.400000
6364 14113 11325 1 109.50000 418.400000
7769 14113 7770 1 109.50000 418.400000
7769 14113 11325 1 109.50000 418.400000
7770 14113 11325 1 109.50000 418.400000
4592 14114 7771 1 109.50000 418.400000
4592 14114 7772 1 109.50000 418.400000
4592 14114 7773 1 109.50000 418.400000
7771 14114 7772 1 109.50000 418.400000
7771 14114 7773 1 109.50000 418.400000
7772 14114 7773 1 109.50000 418.400000
1066 14115 6957 1 109.50000 418.400000
1066 14115 7775 1 109.50000 418.400000
1066 14115 7776 1 109.50000 418.400000
6957 14115 7775 1 109.50000 418.400000
6957 14115 7776 1 109.50000 418.400000
7775 14115 7776 1 109.50000 418.400000
3953 14116 4260 1 109.50000 418.400000
3953 14116 5193 1 109.50000 418.400000
3953 14116 7777 1 109.50000 418.400000
4260 14116 5193 1 109.50000 418.400000
4260 14116 7777 1 109.50000 418.400000
5193 14116 7777 1 109.50000 418.400000
2267 14117 6592 1 109.50000 418.400000
2267 14117 7778 1 109.50000 418.400000
2267 14117 7779 1 109.50000 418.400000
6592 14117 7778 1 109.50000 418.400000
6592 14117 7779 1 109.50000 418.400000
7778 14117 7779 1 109.50000 418.400000
7326 14118 7328 1 109.50000 418.400000
7326 14118 7780 1 109.50000 418.400000
7326 14118 7782 1 109.50000 418.400000
7328 14118 7780 1 109.50000 418.400000
7328 14118 7782 1 109.50000 418.400000
7780 14118 7782 1 109.50000 418.400000
7763 14119 7783 1 109.50000 418.400000
7763 14119 7785 1 109.50000 418.400000
7763 14119 11321 1 109.50000 418.400000
7783 14119 7785 1 109.50000 418.400000
7783 14119 11321 1 109.50000 418.400000
7785 14119 11321 1 109.50000 418.400000
2243 14120 7169 1 109.50000 418.400000
2243 14120 7786 1 109.50000 418.400000
2243 14120 7787 1 109.50000 418.400000
7169 14120 7786 1 109.50000 418.400000
7169 14120 7787 1 109.50000 418.400000
7786 14120 7787 1 109.50000 418.400000
7492 14121 7788 1 109.50000 418.400000
7492 14121 7789 1 109.50000 418.400000
7492 14121 7790 1 109.50000 418.400000
7788 14121 7789 1 109.50000 418.400000
7788 14121 7790 1 109.50000 418.400000
7789 14121 7790 1 109.50000 418.400000
5518 14122 6024 1 109.50000 418.400000
5518 14122 6652 1 109.50000 418.400000
5518 14122 7791 1 109.50000 418.400000
6024 14122 6652 1 109.50000 418.400000
6024 14122 7791 1 109.50000 418.400000
6652 14122 7791 1 109.50000 418.400000
4797 14123 6583 1 109.50000 418.400000
4797 14123 7453 1 109.50000 418.400000
4797 14123 7792 1 109.50000 418.400000
6583 14123 7453 1 109.50000 418.400000
6583 14123 7792 1 109.50000 418.400000
7453 14123 7792 1 109.50000 418.400000
6986 14124 7793 1 109.50000 418.400000
6986 14124 7794 1 109.50000 418.400000
6986 14124 7795 1 109.50000 418.400000
7793 14124 7794 1 109.50000 418.400000
7793 14124 7795 1 109.50000 418.400000
7794 14124 7795 1 109.50000 418.400000
4926 14125 5934 1 109.50000 418.400000
4926 14125 7796 1 109.50000 418.400000
4926 14125 7797 1 109.50000 418.400000
5934 14125 7796 1 109.50000 418.400000
5934 14125 7797 1 109.50000 418.400000
7796 14125 7797 1 109.50000 418.400000
1590 14126 4048 1 109.50000 418.400000
1590 14126 6551 1 109.50000 418.400000
1590 14126 6552 1 109.50000 418.400000
4048 14126 6551 1 109.50000 418.400000
4048 14126 6552 1 109.50000 418.400000
6551 14126 6552 1 109.50000 418.400000
5881 14127 7186 1 109.50000 418.400000
5881 14127 7798 1 109.50000 418.400000
5881 14127 7799 1 109.50000 418.400000
7186 14127 7798 1 109.50000 418.400000
7186 14127 7799 1 109.50000 418.400000
7798 14127 7799 1 109.50000 418.400000
383 14128 1830 1 109.50000 418.400000
383 14128 7800 1 109.50000 418.400000
383 14128 11458 1 109.50000 418.400000
1830 14128 7800 1 109.50000 418.400000
1830 14128 11458 1 109.50000 418.400000
7800 14128 11458 1 109.50000 418.400000
2315 14129 6753 1 109.50000 418.400000
2315 14129 7801 1 109.50000 418.400000
2315 14129 7802 1 109.50000 418.400000
6753 14129 7801 1 109.50000 418.400000
6753 14129 7802 1 109.50000 418.400000
7801 14129 7802 1 109.50000 418.400000
4883 14130 5535 1 109.50000 418.400000
4883 14130 7178 1 109.50000 418.400000
4883 14130 7803 1 109.50000 418.400000
5535 14130 7178 1 109.50000 418.400000
5535 14130 7803 1 109.50000 418.400000
7178 14130 7803 1 109.50000 418.400000
1268 14131 1335 1 109.50000 418.400000
1268 14131 4324 1 109.50000 418.400000
1268 14131 7804 1 109.50000 418.400000
1335 14131 4324 1 109.50000 418.400000
1335 14131 7804 1 109.50000 418.400000
4324 14131 7804 1 109.50000 418.400000
5121 14132 5486 1 109.50000 418.400000
5121 14132 5774 1 109.50000 418.400000
5121 14132 7807 1 109.50000 418.400000
5486 14132 5774 1 109.50000 418.400000
5486 14132 7807 1 109.50000 418.400000
5774 14132 7807 1 109.50000 418.400000
7808 14133 7809 1 109.50000 418.400000
7808 14133 7810 1 109.50000 418.400000
7808 14133 7811 1 109.50000 418.400000
7809 14133 7810 1 109.50000 418.400000
7809 14133 7811 1 109.50000 418.400000
7810 14133 7811 1 109.50000 418.400000
93 14134 4873 1 109.50000 418.400000
93 14134 7814 1 109.50000 418.400000
93 14134 7815 1 109.50000 418.400000
4873 14134 7814 1 109.50000 418.400000
4873 14134 7815 1 109.50000 418.400000
7814 14134 7815 1 109.50000 418.400000
899 14135 933 1 109.50000 418.400000
899 14135 7816 1 109.50000 418.400000
899 14135 7817 1 109.50000 418.400000
933 14135 7816 1 109.50000 418.400000
933 14135 7817 1 109.50000 418.400000
7816 14135 7817 1 109.50000 418.400000
3629 14136 3630 1 109.50000 418.400000
3629 14136 6010 1 109.50000 418.400000
3629 14136 6662 1 109.50000 418.400000
3630 14136 6010 1 109.50000 418.400000
3630 14136 6662 1 109.50000 418.400000
6010 14136 6662 1 109.50000 418.400000
3554 14137 5002 1 109.50000 418.400000
3554 14137 7821 1 109.50000 418.400000
3554 14137 7822 1 109.50000 418.400000
5002 14137 7821 1 109.50000 418.400000
5002 14137 7822 1 109.50000 418.400000
7821 14137 7822 1 109.50000 418.400000
7565 14138 7823 1 109.50000 418.400000
7565 14138 7824 1 109.50000 418.400000
7565 14138 7825 1 109.50000 418.400000
7823 14138 7824 1 109.50000 418.400000
7823 14138 7825 1 109.50000 418.400000
7824 14138 7825 1 109.50000 418.400000
1552 14139 4783 1 109.50000 418.400000
1552 14139 7103 1 109.50000 418.400000
1552 14139 7590 1 109.50000 418.400000
4783 14139 7103 1 109.50000 418.400000
4783 14139 7590 1 109.50000 418.400000
7103 14139 7590 1 109.50000 418.400000
5780 14140 6084 1 109.50000 418.400000
5780 14140 7826 1 109.50000 418.400000
5780 14140 7827 1 109.50000 418.400000
6084 14140 7826 1 109.50000 418.400000
6084 14140 7827 1 109.50000 418.400000
7826 14140 7827 1 109.50000 418.400000
1913 14141 5958 1 109.50000 418.400000
1913 14141 7828 1 109.50000 418.400000
1913 14141 7829 1 109.50000 418.400000
5958 14141 7828 1 109.50000 418.400000
5958 14141 7829 1 109.50000 418.400000
7828 14141 7829 1 109.50000 418.400000
3943 14142 7386 1 109.50000 418.400000
3943 14142 7830 1 109.50000 418.400000
3943 14142 7831 1 109.50000 418.400000
7386 14142 7830 1 109.50000 418.400000
7386 14142 7831 1 109.50000 418.400000
7830 14142 7831 1 109.50000 418.400000
187 14143 5144 1 109.50000 418.400000
187 14143 7650 1 109.50000 418.400000
187 14143 7833 1 109.50000 418.400000
5144 14143 7650 1 109.50000 418.400000
5144 14143 7833 1 109.50000 418.400000
7650 14143 7833 1 109.50000 418.400000
1663 14144 7834 1 109.50000 418.400000
1663 14144 7835 1 109.50000 418.400000
1663 14144 7836 1 109.50000 418.400000
7834 14144 7835 1 109.50000 418.400000
7834 14144 7836 1 109.50000 418.400000
7835 14144 7836 1 109.50000 418.400000
1276 14145 1995 1 109.50000 418.400000
1276 14145 7837 1 109.50000 418.400000
1276 14145 7838 1 109.50000 418.400000
1995 14145 7837 1 109.50000 418.400000
1995 14145 7838 1 109.50000 418.400000
7837 14145 7838 1 109.50000 418.400000
3817 14146 5383 1 109.50000 418.400000
3817 14146 7173 1 109.50000 418.400000
3817 14146 7839 1 109.50000 418.400000
5383 14146 7173 1 109.50000 418.400000
5383 14146 7839 1 109.50000 418.400000
7173 14146 7839 1 109.50000 418.400000
2224 14147 2377 1 109.50000 418.400000
2224 14147 7840 1 109.50000 418.400000
2224 14147 7841 1 109.50000 418.400000
2377 14147 7840 1 109.50000 418.400000
2377 14147 7841 1 109.50000 418.400000
7840 14147 7841 1 109.50000 418.400000
4771 14148 7099 1 109.50000 418.400000
4771 14148 7842 1 109.50000 418.400000
4771 14148 11518 1 109.50000 418.400000
7099 14148 7842 1 109.50000 418.400000
7099 14148 11518 1 109.50000 418.400000
7842 14148 11518 1 109.50000 418.400000
7843 14149 7844 1 109.50000 418.400000
7843 14149 7845 1 109.50000 418.400000
7843 14149 11537 1 109.50000 418.400000
7844 14149 7845 1 109.50000 418.400000
7844 14149 11537 1 109.50000 418.400000
7845 14149 11537 1 109.50000 418.400000
1117 14150 1510 1 109.50000 418.400000
1117 14150 7846 1 109.50000 418.400000
1117 14150 7847 1 109.50000 418.400000
1510 14150 7846 1 109.50000 418.400000
1510 14150 7847 1 109.50000 418.400000
7846 14150 7847 1 109.50000 418.400000
6537 14151 7847 1 109.50000 418.400000
6537 14151 7848 1 109.50000 418.400000
6537 14151 7849 1 109.50000 418.400000
7847 14151 7848 1 109.50000 418.400000
7847 14151 7849 1 109.50000 418.400000
7848 14151 7849 1 109.50000 418.400000
2304 14152 7850 1 109.50000 418.400000
2304 14152 7852 1 109.50000 418.400000
2304 14152 9974 1 109.50000 418.400000
7850 14152 7852 1 109.50000 418.400000
7850 14152 9974 1 109.50000 418.400000
7852 14152 9974 1 109.50000 418.400000
3962 14153 6311 1 109.50000 418.400000
3962 14153 6851 1 109.50000 418.400000
3962 14153 7853 1 109.50000 418.400000
6311 14153 6851 1 109.50000 418.400000
6311 14153 7853 1 109.50000 418.400000
6851 14153 7853 1 109.50000 418.400000
1874 14154 3984 1 109.50000 418.400000
1874 14154 7854 1 109.50000 418.400000
1874 14154 7855 1 109.50000 418.400000
3984 14154 7854 1 109.50000 418.400000
3984 14154 7855 1 109.50000 418.400000
7854 14154 7855 1 109.50000 418.400000
7162 14155 7856 1 109.50000 418.400000
7162 14155 7857 1 109.50000 418.400000
7162 14155 7858 1 109.50000 418.400000
7856 14155 7857 1 109.50000 418.400000
7856 14155 7858 1 109.50000 418.400000
7857 14155 7858 1 109.50000 418.400000
3425 14156 7859 1 109.50000 418.400000
3425 14156 11159 1 109.50000 418.400000
3425 14156 11217 1 109.50000 418.400000
7859 14156 11159 1 109.50000 418.400000
7859 14156 11217 1 109.50000 418.400000
11159 14156 11217 1 109.50000 418.400000
5416 14157 6547 1 109.50000 418.400000
5416 14157 7860 1 109.50000 418.400000
5416 14157 7861 1 109.50000 418.400000
6547 14157 7860 1 109.50000 418.400000
6547 14157 7861 1 109.50000 418.400000
7860 14157 7861 1 109.50000 418.400000
3191 14158 7862 1 109.50000 418.400000
3191 14158 7863 1 109.50000 418.400000
3191 14158 7864 1 109.50000 418.400000
7862 14158 7863 1 109.50000 418.400000
7862 14158 7864 1 109.50000 418.400000
7863 14158 7864 1 109.50000 418.400000
7865 14159 7866 1 109.50000 418.400000
7865 14159 7867 1 109.50000 418.400000
7865 14159 7868 1 109.50000 418.400000
7866 14159 7867 1 109.50000 418.400000
7866 14159 7868 1 109.50000 418.400000
7867 14159 7868 1 109.50000 418.400000
3344 14160 3561 1 109.50000 418.400000
3344 14160 5630 1 109.50000 418.400000
3344 14160 5871 1 109.50000 418.400000
3561 14160 5630 1 109.50000 418.400000
3561 14160 5871 1 109.50000 418.400000
5630 14160 5871 1 109.50000 418.400000
4483 14161 7201 1 109.50000 418.400000
4483 14161 7869 1 109.50000 418.400000
4483 14161 7870 1 109.50000 418.400000
7201 14161 7869 1 109.50000 418.400000
7201 14161 7870 1 109.50000 418.400000
7869 14161 7870 1 109.50000 418.400000
2576 14162 5052 1 109.50000 418.400000
2576 14162 7871 1 109.50000 418.400000
2576 14162 7872 1 109.50000 418.400000
5052 14162 7871 1 109.50000 418.400000
5052 14162 7872 1 109.50000 418.400000
7871 14162 7872 1 109.50000 418.400000
5604 14163 6277 1 109.50000 418.400000
5604 14163 7873 1 109.50000 418.400000
5604 14163 7874 1 109.50000 418.400000
6277 14163 7873 1 109.50000 418.400000
6277 14163 7874 1 109.50000 418.400000
7873 14163 7874 1 109.50000 418.400000
4213 14164 7875 1 109.50000 418.400000
4213 14164 7876 1 109.50000 418.400000
4213 14164 7877 1 109.50000 418.400000
7875 14164 7876 1 109.50000 418.400000
7875 14164 7877 1 109.50000 418.400000
7876 14164 7877 1 109.50000 418.400000
6121 14165 7878 1 109.50000 418.400000
6121 14165 7879 1 109.50000 418.400000
6121 14165 7880 1 109.50000 418.400000
7878 14165 7879 1 109.50000 418.400000
7878 14165 7880 1 109.50000 418.400000
7879 14165 7880 1 109.50000 418.400000
3938 14166 5903 1 109.50000 418.400000
3938 14166 7881 1 109.50000 418.400000
3938 14166 7882 1 109.50000 418.400000
5903 14166 7881 1 109.50000 418.400000
5903 14166 7882 1 109.50000 418.400000
7881 14166 7882 1 109.50000 418.400000
5210 14167 7883 1 109.50000 418.400000
5210 14167 7884 1 109.50000 418.400000
5210 14167 7885 1 109.50000 418.400000
7883 14167 7884 1 109.50000 418.400000
7883 14167 7885 1 109.50000 418.400000
7884 14167 7885 1 109.50000 418.400000
1765 14168 7886 1 109.50000 418.400000
1765 14168 7887 1 109.50000 418.400000
1765 14168 7888 1 109.50000 418.400000
7886 14168 7887 1 109.50000 418.400000
7886 14168 7888 1 109.50000 418.400000
7887 14168 7888 1 109.50000 418.400000
6003 14169 7889 1 109.50000 418.400000
6003 14169 7890 1 109.50000 418.400000
6003 14169 7891 1 109.50000 418.400000
7889 14169 7890 1 109.50000 418.400000
7889 14169 7891 1 109.50000 418.400000
7890 14169 7891 1 109.50000 418.400000
5335 14170 7892 1 109.50000 418.400000
5335 14170 7893 1 109.50000 418.400000
5335 14170 7894 1 109.50000 418.400000
7892 14170 7893 1 109.50000 418.400000
7892 14170 7894 1 109.50000 418.400000
7893 14170 7894 1 109.50000 418.400000
6750 14171 7895 1 109.50000 418.400000
6750 14171 7896 1 109.50000 418.400000
6750 14171 7897 1 109.50000 418.400000
7895 14171 7896 1 109.50000 418.400000
7895 14171 7897 1 109.50000 418.400000
7896 14171 7897 1 109.50000 418.400000
1185 14172 7898 1 109.50000 418.400000
1185 14172 7899 1 109.50000 418.400000
1185 14172 7900 1 109.50000 418.400000
7898 14172 7899 1 109.50000 418.400000
7898 14172 7900 1 109.50000 418.400000
7899 14172 7900 1 109.50000 418.400000
82 14173 2642 1 109.50000 418.400000
82 14173 5387 1 109.50000 418.400000
82 14173 7901 1 109.50000 418.400000
2642 14173 5387 1 109.50000 418.400000
2642 14173 7901 1 109.50000 418.400000
5387 14173 7901 1 109.50000 418.400000
16 14174 3166 1 109.50000 418.400000
16 14174 7902 1 109.50000 418.400000
16 14174 7903 1 109.50000 418.400000
3166 14174 7902 1 109.50000 418.400000
3166 14174 7903 1 109.50000 418.400000
7902 14174 7903 1 109.50000 418.400000
1604 14175 4907 1 109.50000 418.400000
1604 14175 7904 1 109.50000 418.400000
1604 14175 7905 1 109.50000 418.400000
4907 14175 7904 1 109.50000 418.400000
4907 14175 7905 1 109.50000 418.400000
7904 14175 7905 1 109.50000 418.400000
2332 14176 2906 1 109.50000 418.400000
2332 14176 7662 1 109.50000 418.400000
2332 14176 7844 1 109.50000 418.400000
2906 14176 7662 1 109.50000 418.400000
2906 14176 7844 1 109.50000 418.400000
7662 14176 7844 1 109.50000 418.400000
1457 14177 6788 1 109.50000 418.400000
1457 14177 7906 1 109.50000 418.400000
1457 14177 7907 1 109.50000 418.400000
6788 14177 7906 1 109.50000 418.400000
6788 14177 7907 1 109.50000 418.400000
7906 14177 7907 1 109.50000 418.400000
2299 14178 7136 1 109.50000 418.400000
2299 14178 7909 1 109.50000 418.400000
2299 14178 7910 1 109.50000 418.400000
7136 14178 7909 1 109.50000 418.400000
7136 14178 7910 1 109.50000 418.400000
7909 14178 7910 1 109.50000 418.400000
3260 14179 3510 1 109.50000 418.400000
3260 14179 7911 1 109.50000 418.400000
3260 14179 7912 1 109.50000 418.400000
3510 14179 7911 1 109.50000 418.400000
3510 14179 7912 1 109.50000 418.400000
7911 14179 7912 1 109.50000 418.400000
7855 14180 7913 1 109.50000 418.400000
7855 14180 7914 1 109.50000 418.400000
7855 14180 7915 1 109.50000 418.400000
7913 14180 7914 1 109.50000 418.400000
7913 14180 7915 1 109.50000 418.400000
7914 14180 7915 1 109.50000 418.400000
3098 14181 5528 1 109.50000 418.400000
3098 14181 7916 1 109.50000 418.400000
3098 14181 7917 1 109.50000 418.400000
5528 14181 7916 1 109.50000 418.400000
5528 14181 7917 1 109.50000 418.400000
7916 14181 7917 1 109.50000 418.400000
7426 14182 7918 1 109.50000 418.400000
7426 14182 7919 1 109.50000 418.400000
7426 14182 7920 1 109.50000 418.400000
7918 14182 7919 1 109.50000 418.400000
7918 14182 7920 1 109.50000 418.400000
7919 14182 7920 1 109.50000 418.400000
4280 14183 7547 1 109.50000 418.400000
4280 14183 7921 1 109.50000 418.400000
4280 14183 7922 1 109.50000 418.400000
7547 14183 7921 1 109.50000 418.400000
7547 14183 7922 1 109.50000 418.400000
7921 14183 7922 1 109.50000 418.400000
257 14184 7923 1 109.50000 418.400000
257 14184 7924 1 109.50000 418.400000
257 14184 7925 1 109.50000 418.400000
7923 14184 7924 1 109.50000 418.400000
7923 14184 7925 1 109.50000 418.400000
7924 14184 7925 1 109.50000 418.400000
1363 14185 2281 1 109.50000 418.400000
1363 14185 4705 1 109.50000 418.400000
1363 14185 7926 1 109.50000 418.400000
2281 14185 4705 1 109.50000 418.400000
2281 14185 7926 1 109.50000 418.400000
4705 14185 7926 1 109.50000 418.400000
2158 14186 4629 1 109.50000 418.400000
2158 14186 7927 1 109.50000 418.400000
2158 14186 7928 1 109.50000 418.400000
4629 14186 7927 1 109.50000 418.400000
4629 14186 7928 1 109.50000 418.400000
7927 14186 7928 1 109.50000 418.400000
625 14187 7929 1 109.50000 418.400000
625 14187 7930 1 109.50000 418.400000
625 14187 7931 1 109.50000 418.400000
7929 14187 7930 1 109.50000 418.400000
7929 14187 7931 1 109.50000 418.400000
7930 14187 7931 1 109.50000 418.400000
2899 14188 7932 1 109.50000 418.400000
2899 14188 7933 1 109.50000 418.400000
2899 14188 11435 1 109.50000 418.400000
7932 14188 7933 1 109.50000 418.400000
7932 14188 11435 1 109.50000 418.400000
7933 14188 11435 1 109.50000 418.400000
3298 14189 7934 1 109.50000 418.400000
3298 14189 7935 1 109.50000 418.400000
3298 14189 7936 1 109.50000 418.400000
7934 14189 7935 1 109.50000 418.400000
7934 14189 7936 1 109.50000 418.400000
7935 14189 7936 1 109.50000 418.400000
7894 14190 7937 1 109.50000 418.400000
7894 14190 7938 1 109.50000 418.400000
7894 14190 7939 1 109.50000 418.400000
7937 14190 7938 1 109.50000 418.400000
7937 14190 7939 1 109.50000 418.400000
7938 14190 7939 1 109.50000 418.400000
1194 14191 5094 1 109.50000 418.400000
1194 14191 7940 1 109.50000 418.400000
1194 14191 7941 1 109.50000 418.400000
5094 14191 7940 1 109.50000 418.400000
5094 14191 7941 1 109.50000 418.400000
7940 14191 7941 1 109.50000 418.400000
4634 14192 7516 1 109.50000 418.400000
4634 14192 7777 1 109.50000 418.400000
4634 14192 7942 1 109.50000 418.400000
7516 14192 7777 1 109.50000 418.400000
7516 14192 7942 1 109.50000 418.400000
7777 14192 7942 1 109.50000 418.400000
3511 14193 7239 1 109.50000 418.400000
3511 14193 7943 1 109.50000 418.400000
3511 14193 7944 1 109.50000 418.400000
7239 14193 7943 1 109.50000 418.400000
7239 14193 7944 1 109.50000 418.400000
7943 14193 7944 1 109.50000 418.400000
4708 14194 7946 1 109.50000 418.400000
4708 14194 7947 1 109.50000 418.400000
4708 14194 7948 1 109.50000 418.400000
7946 14194 7947 1 109.50000 418.400000
7946 14194 7948 1 109.50000 418.400000
7947 14194 7948 1 109.50000 418.400000
630 14195 2815 1 109.50000 418.400000
630 14195 2817 1 109.50000 418.400000
630 14195 7949 1 109.50000 418.400000
2815 14195 2817 1 109.50000 418.400000
2815 14195 7949 1 109.50000 418.400000
2817 14195 7949 1 109.50000 418.400000
5820 14196 6461 1 109.50000 418.400000
5820 14196 6611 1 109.50000 418.400000
5820 14196 7950 1 109.50000 418.400000
6461 14196 6611 1 109.50000 418.400000
6461 14196 7950 1 109.50000 418.400000
6611 14196 7950 1 109.50000 418.400000
6402 14197 7951 1 109.50000 418.400000
6402 14197 7952 1 109.50000 418.400000
6402 14197 7953 1 109.50000 418.400000
7951 14197 7952 1 109.50000 418.400000
7951 14197 7953 1 109.50000 418.400000
7952 14197 7953 1 109.50000 418.400000
3351 14198 5490 1 109.50000 418.400000
3351 14198 5593 1 109.50000 418.400000
3351 14198 7954 1 109.50000 418.400000
5490 14198 5593 1 109.50000 418.400000
5490 14198 7954 1 109.50000 418.400000
5593 14198 7954 1 109.50000 418.400000
2117 14199 2118 1 109.50000 418.400000
2117 14199 5311 1 109.50000 418.400000
2117 14199 7955 1 109.50000 418.400000
2118 14199 5311 1 109.50000 418.400000
2118 14199 7955 1 109.50000 418.400000
5311 14199 7955 1 109.50000 418.400000
181 14200 6515 1 109.50000 418.400000
181 14200 7956 1 109.50000 418.400000
181 14200 11330 1 109.50000 418.400000
6515 14200 7956 1 109.50000 418.400000
6515 14200 11330 1 109.50000 418.400000
7956 14200 11330 1 109.50000 418.400000
5140 14201 7957 1 109.50000 418.400000
5140 14201 7958 1 109.50000 418.400000
5140 14201 7959 1 109.50000 418.400000
7957 14201 7958 1 109.50000 418.400000
7957 14201 7959 1 109.50000 418.400000
7958 14201 7959 1 109.50000 418.400000
2205 14202 4171 1 109.50000 418.400000
2205 14202 7960 1 109.50000 418.400000
2205 14202 7961 1 109.50000 418.400000
4171 14202 7960 1 109.50000 418.400000
4171 14202 7961 1 109.50000 418.400000
7960 14202 7961 1 109.50000 418.400000
71 14203 777 1 109.50000 418.400000
71 14203 778 1 109.50000 418.400000
71 14203 7962 1 109.50000 418.400000
777 14203 778 1 109.50000 418.400000
777 14203 7962 1 109.50000 418.400000
778 14203 7962 1 109.50000 418.400000
7963 14204 7964 1 109.50000 418.400000
7963 14204 7965 1 109.50000 418.400000
7963 14204 7966 1 109.50000 418.400000
7964 14204 7965 1 109.50000 418.400000
7964 14204 7966 1 109.50000 418.400000
7965 14204 7966 1 109.50000 418.400000
5369 14205 6800 1 109.50000 418.400000
5369 14205 7967 1 109.50000 418.400000
5369 14205 7968 1 109.50000 418.400000
6800 14205 7967 1 109.50000 418.400000
6800 14205 7968 1 109.50000 418.400000
7967 14205 7968 1 109.50000 418.400000
2713 14206 4084 1 109.50000 418.400000
2713 14206 4135 1 109.50000 418.400000
2713 14206 5120 1 109.50000 418.400000
4084 14206 4135 1 109.50000 418.400000
4084 14206 5120 1 109.50000 418.400000
4135 14206 5120 1 109.50000 418.400000
3165 14207 7969 1 109.50000 418.400000
3165 14207 7970 1 109.50000 418.400000
3165 14207 7971 1 109.50000 418.400000
7969 14207 7970 1 109.50000 418.400000
7969 14207 7971 1 109.50000 418.400000
7970 14207 7971 1 109.50000 418.400000
1673 14208 4295 1 109.50000 418.400000
1673 14208 7974 1 109.50000 418.400000
1673 14208 9837 1 109.50000 418.400000
4295 14208 7974 1 109.50000 418.400000
4295 14208 9837 1 109.50000 418.400000
7974 14208 9837 1 109.50000 418.400000
5023 14209 7208 1 109.50000 418.400000
5023 14209 7975 1 109.50000 418.400000
5023 14209 7976 1 109.50000 418.400000
7208 14209 7975 1 109.50000 418.400000
7208 14209 7976 1 109.50000 418.400000
7975 14209 7976 1 109.50000 418.400000
3202 14210 3666 1 109.50000 418.400000
3202 14210 7870 1 109.50000 418.400000
3202 14210 7977 1 109.50000 418.400000
3666 14210 7870 1 109.50000 418.400000
3666 14210 7977 1 109.50000 418.400000
7870 14210 7977 1 109.50000 418.400000
3595 14211 7978 1 109.50000 418.400000
3595 14211 7979 1 109.50000 418.400000
3595 14211 7980 1 109.50000 418.400000
7978 14211 7979 1 109.50000 418.400000
7978 14211 7980 1 109.50000 418.400000
7979 14211 7980 1 109.50000 418.400000
780 14212 1209 1 109.50000 418.400000
780 14212 6123 1 109.50000 418.400000
780 14212 7981 1 109.50000 418.400000
1209 14212 6123 1 109.50000 418.400000
1209 14212 7981 1 109.50000 418.400000
6123 14212 7981 1 109.50000 418.400000
297 14213 3682 1 109.50000 418.400000
297 14213 7982 1 109.50000 418.400000
297 14213 7983 1 109.50000 418.400000
3682 14213 7982 1 109.50000 418.400000
3682 14213 7983 1 109.50000 418.400000
7982 14213 7983 1 109.50000 418.400000
225 14214 7048 1 109.50000 418.400000
225 14214 7984 1 109.50000 418.400000
225 14214 7985 1 109.50000 418.400000
7048 14214 7984 1 109.50000 418.400000
7048 14214 7985 1 109.50000 418.400000
7984 14214 7985 1 109.50000 418.400000
6905 14215 7986 1 109.50000 418.400000
6905 14215 7987 1 109.50000 418.400000
6905 14215 7988 1 109.50000 418.400000
7986 14215 7987 1 109.50000 418.400000
7986 14215 7988 1 109.50000 418.400000
7987 14215 7988 1 109.50000 418.400000
7580 14216 9549 1 109.50000 418.400000
7580 14216 11153 1 109.50000 418.400000
7580 14216 11599 1 109.50000 418.400000
9549 14216 11153 1 109.50000 418.400000
9549 14216 11599 1 109.50000 418.400000
11153 14216 11599 1 109.50000 418.400000
1529 14217 7989 1 109.50000 418.400000
1529 14217 7990 1 109.50000 418.400000
1529 14217 7991 1 109.50000 418.400000
7989 14217 7990 1 109.50000 418.400000
7989 14217 7991 1 109.50000 418.400000
7990 14217 7991 1 109.50000 418.400000
27 14218 2877 1 109.50000 418.400000
27 14218 7992 1 109.50000 418.400000
27 14218 7993 1 109.50000 418.400000
2877 14218 7992 1 109.50000 418.400000
2877 14218 7993 1 109.50000 418.400000
7992 14218 7993 1 109.50000 418.400000
3655 14219 3657 1 109.50000 418.400000
3655 14219 5882 1 109.50000 418.400000
3655 14219 7994 1 109.50000 418.400000
3657 14219 5882 1 109.50000 418.400000
3657 14219 7994 1 109.50000 418.400000
5882 14219 7994 1 109.50000 418.400000
3252 14220 7995 1 109.50000 418.400000
3252 14220 7996 1 109.50000 418.400000
3252 14220 7997 1 109.50000 418.400000
7995 14220 7996 1 109.50000 418.400000
7995 14220 7997 1 109.50000 418.400000
7996 14220 7997 1 109.50000 418.400000
148 14221 7998 1 109.50000 418.400000
148 14221 7999 1 109.50000 418.400000
148 14221 8000 1 109.50000 418.400000
7998 14221 7999 1 109.50000 418.400000
7998 14221 8000 1 109.50000 418.400000
7999 14221 8000 1 109.50000 418.400000
1491 14222 4271 1 109.50000 418.400000
1491 14222 6243 1 109.50000 418.400000
1491 14222 7182 1 109.50000 418.400000
4271 14222 6243 1 109.50000 418.400000
4271 14222 7182 1 109.50000 418.400000
6243 14222 7182 1 109.50000 418.400000
4720 14223 8001 1 109.50000 418.400000
4720 14223 8002 1 109.50000 418.400000
4720 14223 8003 1 109.50000 418.400000
8001 14223 8002 1 109.50000 418.400000
8001 14223 8003 1 109.50000 418.400000
8002 14223 8003 1 109.50000 418.400000
8004 14224 8005 1 109.50000 418.400000
8004 14224 8006 1 109.50000 418.400000
8004 14224 8007 1 109.50000 418.400000
8005 14224 8006 1 109.50000 418.400000
8005 14224 8007 1 109.50000 418.400000
8006 14224 8007 1 109.50000 418.400000
1229 14225 7815 1 109.50000 418.400000
1229 14225 8008 1 109.50000 418.400000
1229 14225 8009 1 109.50000 418.400000
7815 14225 8008 1 109.50000 418.400000
7815 14225 8009 1 109.50000 418.400000
8008 14225 8009 1 109.50000 418.400000
3501 14226 5360 1 109.50000 418.400000
3501 14226 8010 1 109.50000 418.400000
3501 14226 8011 1 109.50000 418.400000
5360 14226 8010 1 109.50000 418.400000
5360 14226 8011 1 109.50000 418.400000
8010 14226 8011 1 109.50000 418.400000
8012 14227 8013 1 109.50000 418.400000
8012 14227 11173 1 109.50000 418.400000
8012 14227 11180 1 109.50000 418.400000
8013 14227 11173 1 109.50000 418.400000
8013 14227 11180 1 109.50000 418.400000
11173 14227 11180 1 109.50000 418.400000
4884 14228 5484 1 109.50000 418.400000
4884 14228 7514 1 109.50000 418.400000
4884 14228 8014 1 109.50000 418.400000
5484 14228 7514 1 109.50000 418.400000
5484 14228 8014 1 109.50000 418.400000
7514 14228 8014 1 109.50000 418.400000
8015 14229 8016 1 109.50000 418.400000
8015 14229 8017 1 109.50000 418.400000
8015 14229 8018 1 109.50000 418.400000
8016 14229 8017 1 109.50000 418.400000
8016 14229 8018 1 109.50000 418.400000
8017 14229 8018 1 109.50000 418.400000
8019 14230 8020 1 109.50000 418.400000
8019 14230 8021 1 109.50000 418.400000
8019 14230 8022 1 109.50000 418.400000
8020 14230 8021 1 109.50000 418.400000
8020 14230 8022 1 109.50000 418.400000
8021 14230 8022 1 109.50000 418.400000
2140 14231 3903 1 109.50000 418.400000
2140 14231 8023 1 109.50000 418.400000
2140 14231 8024 1 109.50000 418.400000
3903 14231 8023 1 109.50000 418.400000
3903 14231 8024 1 109.50000 418.400000
8023 14231 8024 1 109.50000 418.400000
2982 14232 8025 1 109.50000 418.400000
2982 14232 8026 1 109.50000 418.400000
2982 14232 8027 1 109.50000 418.400000
8025 14232 8026 1 109.50000 418.400000
8025 14232 8027 1 109.50000 418.400000
8026 14232 8027 1 109.50000 418.400000
3004 14233 5313 1 109.50000 418.400000
3004 14233 6683 1 109.50000 418.400000
3004 14233 8028 1 109.50000 418.400000
5313 14233 6683 1 109.50000 418.400000
5313 14233 8028 1 109.50000 418.400000
6683 14233 8028 1 109.50000 418.400000
8029 14234 8030 1 109.50000 418.400000
8029 14234 8031 1 109.50000 418.400000
8029 14234 8032 1 109.50000 418.400000
8030 14234 8031 1 109.50000 418.400000
8030 14234 8032 1 109.50000 418.400000
8031 14234 8032 1 109.50000 418.400000
6469 14235 8033 1 109.50000 418.400000
6469 14235 8034 1 109.50000 418.400000
6469 14235 8035 1 109.50000 418.400000
8033 14235 8034 1 109.50000 418.400000
8033 14235 8035 1 109.50000 418.400000
8034 14235 8035 1 109.50000 418.400000
4136 14236 8036 1 109.50000 418.400000
4136 14236 8037 1 109.50000 418.400000
4136 14236 8939 1 109.50000 418.400000
8036 14236 8037 1 109.50000 418.400000
8036 14236 8939 1 109.50000 418.400000
8037 14236 8939 1 109.50000 418.400000
4126 14237 6387 1 109.50000 418.400000
4126 14237 8038 1 109.50000 418.400000
4126 14237 8039 1 109.50000 418.400000
6387 14237 8038 1 109.50000 418.400000
6387 14237 8039 1 109.50000 418.400000
8038 14237 8039 1 109.50000 418.400000
5692 14238 7563 1 109.50000 418.400000
5692 14238 8040 1 109.50000 418.400000
5692 14238 8041 1 109.50000 418.400000
7563 14238 8040 1 109.50000 418.400000
7563 14238 8041 1 109.50000 418.400000
8040 14238 8041 1 109.50000 418.400000
2191 14239 2612 1 109.50000 418.400000
2191 14239 7422 1 109.50000 418.400000
2191 14239 8042 1 109.50000 418.400000
2612 14239 7422 1 109.50000 418.400000
2612 14239 8042 1 109.50000 418.400000
7422 14239 8042 1 109.50000 418.400000
6646 14240 8043 1 109.50000 418.400000
6646 14240 11360 1 109.50000 418.400000
6646 14240 11608 1 109.50000 418.400000
8043 14240 11360 1 109.50000 418.400000
8043 14240 11608 1 109.50000 418.400000
11360 14240 11608 1 109.50000 418.400000
4607 14241 4608 1 109.50000 418.400000
4607 14241 8045 1 109.50000 418.400000
4607 14241 11495 1 109.50000 418.400000
4608 14241 8045 1 109.50000 418.400000
4608 14241 11495 1 109.50000 418.400000
8045 14241 11495 1 109.50000 418.400000
2855 14242 4664 1 109.50000 418.400000
2855 14242 5930 1 109.50000 418.400000
2855 14242 8046 1 109.50000 418.400000
4664 14242 5930 1 109.50000 418.400000
4664 14242 8046 1 109.50000 418.400000
5930 14242 8046 1 109.50000 418.400000
5402 14243 6037 1 109.50000 418.400000
5402 14243 8047 1 109.50000 418.400000
5402 14243 8048 1 109.50000 418.400000
6037 14243 8047 1 109.50000 418.400000
6037 14243 8048 1 109.50000 418.400000
8047 14243 8048 1 109.50000 418.400000
926 14244 2449 1 109.50000 418.400000
926 14244 8049 1 109.50000 418.400000
926 14244 8050 1 109.50000 418.400000
2449 14244 8049 1 109.50000 418.400000
2449 14244 8050 1 109.50000 418.400000
8049 14244 8050 1 109.50000 418.400000
99 14245 7925 1 109.50000 418.400000
99 14245 8051 1 109.50000 418.400000
99 14245 8052 1 109.50000 418.400000
7925 14245 8051 1 109.50000 418.400000
7925 14245 8052 1 109.50000 418.400000
8051 14245 8052 1 109.50000 418.400000
32 14246 3401 1 109.50000 418.400000
32 14246 4064 1 109.50000 418.400000
32 14246 6276 1 109.50000 418.400000
3401 14246 4064 1 109.50000 418.400000
3401 14246 6276 1 109.50000 418.400000
4064 14246 6276 1 109.50000 418.400000
368 14247 3179 1 109.50000 418.400000
368 14247 8053 1 109.50000 418.400000
368 14247 8054 1 109.50000 418.400000
3179 14247 8053 1 109.50000 418.400000
3179 14247 8054 1 109.50000 418.400000
8053 14247 8054 1 109.50000 418.400000
6456 14248 8055 1 109.50000 418.400000
6456 14248 8056 1 109.50000 418.400000
6456 14248 8057 1 109.50000 418.400000
8055 14248 8056 1 109.50000 418.400000
8055 14248 8057 1 109.50000 418.400000
8056 14248 8057 1 109.50000 418.400000
4216 14249 8058 1 109.50000 418.400000
4216 14249 8059 1 109.50000 418.400000
4216 14249 11450 1 109.50000 418.400000
8058 14249 8059 1 109.50000 418.400000
8058 14249 11450 1 109.50000 418.400000
8059 14249 11450 1 109.50000 418.400000
2581 14250 7001 1 109.50000 418.400000
2581 14250 8060 1 109.50000 418.400000
2581 14250 8061 1 109.50000 418.400000
7001 14250 8060 1 109.50000 418.400000
7001 14250 8061 1 109.50000 418.400000
8060 14250 8061 1 109.50000 418.400000
4056 14251 5880 1 109.50000 418.400000
4056 14251 7188 1 109.50000 418.400000
4056 14251 8062 1 109.50000 418.400000
5880 14251 7188 1 109.50000 418.400000
5880 14251 8062 1 109.50000 418.400000
7188 14251 8062 1 109.50000 418.400000
4090 14252 4793 1 109.50000 418.400000
4090 14252 6139 1 109.50000 418.400000
4090 14252 8063 1 109.50000 418.400000
4793 14252 6139 1 109.50000 418.400000
4793 14252 8063 1 109.50000 418.400000
6139 14252 8063 1 109.50000 418.400000
3157 14253 8064 1 109.50000 418.400000
3157 14253 8065 1 109.50000 418.400000
3157 14253 8066 1 109.50000 418.400000
8064 14253 8065 1 109.50000 418.400000
8064 14253 8066 1 109.50000 418.400000
8065 14253 8066 1 109.50000 418.400000
2465 14254 5267 1 109.50000 418.400000
2465 14254 8068 1 109.50000 418.400000
2465 14254 8069 1 109.50000 418.400000
5267 14254 8068 1 109.50000 418.400000
5267 14254 8069 1 109.50000 418.400000
8068 14254 8069 1 109.50000 418.400000
58 14255 7841 1 109.50000 418.400000
58 14255 8070 1 109.50000 418.400000
58 14255 8071 1 109.50000 418.400000
7841 14255 8070 1 109.50000 418.400000
7841 14255 8071 1 109.50000 418.400000
8070 14255 8071 1 109.50000 418.400000
2183 14256 3483 1 109.50000 418.400000
2183 14256 3703 1 109.50000 418.400000
2183 14256 8072 1 109.50000 418.400000
3483 14256 3703 1 109.50000 418.400000
3483 14256 8072 1 109.50000 418.400000
3703 14256 8072 1 109.50000 418.400000
1136 14257 1524 1 109.50000 418.400000
1136 14257 4898 1 109.50000 418.400000
1136 14257 8073 1 109.50000 418.400000
1524 14257 4898 1 109.50000 418.400000
1524 14257 8073 1 109.50000 418.400000
4898 14257 8073 1 109.50000 418.400000
1600 14258 5149 1 109.50000 418.400000
1600 14258 7931 1 109.50000 418.400000
1600 14258 8074 1 109.50000 418.400000
5149 14258 7931 1 109.50000 418.400000
5149 14258 8074 1 109.50000 418.400000
7931 14258 8074 1 109.50000 418.400000
2815 14259 8075 1 109.50000 418.400000
2815 14259 8076 1 109.50000 418.400000
2815 14259 8077 1 109.50000 418.400000
8075 14259 8076 1 109.50000 418.400000
8075 14259 8077 1 109.50000 418.400000
8076 14259 8077 1 109.50000 418.400000
1078 14260 8078 1 109.50000 418.400000
1078 14260 8079 1 109.50000 418.400000
1078 14260 8080 1 109.50000 418.400000
8078 14260 8079 1 109.50000 418.400000
8078 14260 8080 1 109.50000 418.400000
8079 14260 8080 1 109.50000 418.400000
6702 14261 7254 1 109.50000 418.400000
6702 14261 8082 1 109.50000 418.400000
6702 14261 8083 1 109.50000 418.400000
7254 14261 8082 1 109.50000 418.400000
7254 14261 8083 1 109.50000 418.400000
8082 14261 8083 1 109.50000 418.400000
2091 14262 7885 1 109.50000 418.400000
2091 14262 8085 1 109.50000 418.400000
2091 14262 8086 1 109.50000 418.400000
7885 14262 8085 1 109.50000 418.400000
7885 14262 8086 1 109.50000 418.400000
8085 14262 8086 1 109.50000 418.400000
3064 14263 7452 1 109.50000 418.400000
3064 14263 8087 1 109.50000 418.400000
3064 14263 8088 1 109.50000 418.400000
7452 14263 8087 1 109.50000 418.400000
7452 14263 8088 1 109.50000 418.400000
8087 14263 8088 1 109.50000 418.400000
8089 14264 8090 1 109.50000 418.400000
8089 14264 10514 1 109.50000 418.400000
8089 14264 11443 1 109.50000 418.400000
8090 14264 10514 1 109.50000 418.400000
8090 14264 11443 1 109.50000 418.400000
10514 14264 11443 1 109.50000 418.400000
7597 14265 8094 1 109.50000 418.400000
7597 14265 8095 1 109.50000 418.400000
7597 14265 10370 1 109.50000 418.400000
8094 14265 8095 1 109.50000 418.400000
8094 14265 10370 1 109.50000 418.400000
8095 14265 10370 1 109.50000 418.400000
1783 14266 4250 1 109.50000 418.400000
1783 14266 8096 1 109.50000 418.400000
1783 14266 8097 1 109.50000 418.400000
4250 14266 8096 1 109.50000 418.400000
4250 14266 8097 1 109.50000 418.400000
8096 14266 8097 1 109.50000 418.400000
2235 14267 8098 1 109.50000 418.400000
2235 14267 8100 1 109.50000 418.400000
2235 14267 8101 1 109.50000 418.400000
8098 14267 8100 1 109.50000 418.400000
8098 14267 8101 1 109.50000 418.400000
8100 14267 8101 1 109.50000 418.400000
2665 14268 8102 1 109.50000 418.400000
2665 14268 8103 1 109.50000 418.400000
2665 14268 8104 1 109.50000 418.400000
8102 14268 8103 1 109.50000 418.400000
8102 14268 8104 1 109.50000 418.400000
8103 14268 8104 1 109.50000 418.400000
2303 14269 5330 1 109.50000 418.400000
2303 14269 7419 1 109.50000 418.400000
2303 14269 7549 1 109.50000 418.400000
5330 14269 7419 1 109.50000 418.400000
5330 14269 7549 1 109.50000 418.400000
7419 14269 7549 1 109.50000 418.400000
4236 14270 8106 1 109.50000 418.400000
4236 14270 9180 1 109.50000 418.400000
4236 14270 11153 1 109.50000 418.400000
8106 14270 9180 1 109.50000 418.400000
8106 14270 11153 1 109.50000 418.400000
9180 14270 11153 1 109.50000 418.400000
4599 14271 4841 1 109.50000 418.400000
4599 14271 6446 1 109.50000 418.400000
4599 14271 7533 1 109.50000 418.400000
4841 14271 6446 1 109.50000 418.400000
4841 14271 7533 1 109.50000 418.400000
6446 14271 7533 1 109.50000 418.400000
1961 14272 3531 1 109.50000 418.400000
1961 14272 5847 1 109.50000 418.400000
1961 14272 8107 1 109.50000 418.400000
3531 14272 5847 1 109.50000 418.400000
3531 14272 8107 1 109.50000 418.400000
5847 14272 8107 1 109.50000 418.400000
2072 14273 8108 1 109.50000 418.400000
2072 14273 8109 1 109.50000 418.400000
2072 14273 8110 1 109.50000 418.400000
8108 14273 8109 1 109.50000 418.400000
8108 14273 8110 1 109.50000 418.400000
8109 14273 8110 1 109.50000 418.400000
4760 14274 6591 1 109.50000 418.400000
4760 14274 8111 1 109.50000 418.400000
4760 14274 8112 1 109.50000 418.400000
6591 14274 8111 1 109.50000 418.400000
6591 14274 8112 1 109.50000 418.400000
8111 14274 8112 1 109.50000 418.400000
1692 14275 3240 1 109.50000 418.400000
1692 14275 8113 1 109.50000 418.400000
1692 14275 8114 1 109.50000 418.400000
3240 14275 8113 1 109.50000 418.400000
3240 14275 8114 1 109.50000 418.400000
8113 14275 8114 1 109.50000 418.400000
1618 14276 5664 1 109.50000 418.400000
1618 14276 6890 1 109.50000 418.400000
1618 14276 8116 1 109.50000 418.400000
5664 14276 6890 1 109.50000 418.400000
5664 14276 8116 1 109.50000 418.400000
6890 14276 8116 1 109.50000 418.400000
4559 14277 6166 1 109.50000 418.400000
4559 14277 8117 1 109.50000 418.400000
4559 14277 8118 1 109.50000 418.400000
6166 14277 8117 1 109.50000 418.400000
6166 14277 8118 1 109.50000 418.400000
8117 14277 8118 1 109.50000 418.400000
816 14278 8119 1 109.50000 418.400000
816 14278 8120 1 109.50000 418.400000
816 14278 8121 1 109.50000 418.400000
8119 14278 8120 1 109.50000 418.400000
8119 14278 8121 1 109.50000 418.400000
8120 14278 8121 1 109.50000 418.400000
3008 14279 3010 1 109.50000 418.400000
3008 14279 4640 1 109.50000 418.400000
3008 14279 8122 1 109.50000 418.400000
3010 14279 4640 1 109.50000 418.400000
3010 14279 8122 1 109.50000 418.400000
4640 14279 8122 1 109.50000 418.400000
5657 14280 7252 1 109.50000 418.400000
5657 14280 8123 1 109.50000 418.400000
5657 14280 8124 1 109.50000 418.400000
7252 14280 8123 1 109.50000 418.400000
7252 14280 8124 1 109.50000 418.400000
8123 14280 8124 1 109.50000 418.400000
475 14281 3947 1 109.50000 418.400000
475 14281 8125 1 109.50000 418.400000
475 14281 8126 1 109.50000 418.400000
3947 14281 8125 1 109.50000 418.400000
3947 14281 8126 1 109.50000 418.400000
8125 14281 8126 1 109.50000 418.400000
7389 14282 8127 1 109.50000 418.400000
7389 14282 8128 1 109.50000 418.400000
7389 14282 8129 1 109.50000 418.400000
8127 14282 8128 1 109.50000 418.400000
8127 14282 8129 1 109.50000 418.400000
8128 14282 8129 1 109.50000 418.400000
6808 14283 8114 1 109.50000 418.400000
6808 14283 8130 1 109.50000 418.400000
6808 14283 8131 1 109.50000 418.400000
8114 14283 8130 1 109.50000 418.400000
8114 14283 8131 1 109.50000 418.400000
8130 14283 8131 1 109.50000 418.400000
1246 14284 3235 1 109.50000 418.400000
1246 14284 8132 1 109.50000 418.400000
1246 14284 8133 1 109.50000 418.400000
3235 14284 8132 1 109.50000 418.400000
3235 14284 8133 1 109.50000 418.400000
8132 14284 8133 1 109.50000 418.400000
2484 14285 7859 1 109.50000 418.400000
2484 14285 8134 1 109.50000 418.400000
2484 14285 8135 1 109.50000 418.400000
7859 14285 8134 1 109.50000 418.400000
7859 14285 8135 1 109.50000 418.400000
8134 14285 8135 1 109.50000 418.400000
5950 14286 8136 1 109.50000 418.400000
5950 14286 8137 1 109.50000 418.400000
5950 14286 8138 1 109.50000 418.400000
8136 14286 8137 1 109.50000 418.400000
8136 14286 8138 1 109.50000 418.400000
8137 14286 8138 1 109.50000 418.400000
6599 14287 8139 1 109.50000 418.400000
6599 14287 8140 1 109.50000 418.400000
6599 14287 8141 1 109.50000 418.400000
8139 14287 8140 1 109.50000 418.400000
8139 14287 8141 1 109.50000 418.400000
8140 14287 8141 1 109.50000 418.400000
6056 14288 7529 1 109.50000 418.400000
6056 14288 8142 1 109.50000 418.400000
6056 14288 11309 1 109.50000 418.400000
7529 14288 8142 1 109.50000 418.400000
7529 14288 11309 1 109.50000 418.400000
8142 14288 11309 1 109.50000 418.400000
6922 14289 8143 1 109.50000 418.400000
6922 14289 8144 1 109.50000 418.400000
6922 14289 10063 1 109.50000 418.400000
8143 14289 8144 1 109.50000 418.400000
8143 14289 10063 1 109.50000 418.400000
8144 14289 10063 1 109.50000 418.400000
765 14290 5877 1 109.50000 418.400000
765 14290 6358 1 109.50000 418.400000
765 14290 8145 1 109.50000 418.400000
5877 14290 6358 1 109.50000 418.400000
5877 14290 8145 1 109.50000 418.400000
6358 14290 8145 1 109.50000 418.400000
2957 14291 3150 1 109.50000 418.400000
2957 14291 8146 1 109.50000 418.400000
2957 14291 8147 1 109.50000 418.400000
3150 14291 8146 1 109.50000 418.400000
3150 14291 8147 1 109.50000 418.400000
8146 14291 8147 1 109.50000 418.400000
467 14292 3028 1 109.50000 418.400000
467 14292 8149 1 109.50000 418.400000
467 14292 10793 1 109.50000 418.400000
3028 14292 8149 1 109.50000 418.400000
3028 14292 10793 1 109.50000 418.400000
8149 14292 10793 1 109.50000 418.400000
7364 14293 7762 1 109.50000 418.400000
7364 14293 7763 1 109.50000 418.400000
7364 14293 11400 1 109.50000 418.400000
7762 14293 7763 1 109.50000 418.400000
7762 14293 11400 1 109.50000 418.400000
7763 14293 11400 1 109.50000 418.400000
2848 14294 7213 1 109.50000 418.400000
2848 14294 8151 1 109.50000 418.400000
2848 14294 8152 1 109.50000 418.400000
7213 14294 8151 1 109.50000 418.400000
7213 14294 8152 1 109.50000 418.400000
8151 14294 8152 1 109.50000 418.400000
2441 14295 8154 1 109.50000 418.400000
2441 14295 8155 1 109.50000 418.400000
2441 14295 8157 1 109.50000 418.400000
8154 14295 8155 1 109.50000 418.400000
8154 14295 8157 1 109.50000 418.400000
8155 14295 8157 1 109.50000 418.400000
2691 14296 7559 1 109.50000 418.400000
2691 14296 8158 1 109.50000 418.400000
2691 14296 8159 1 109.50000 418.400000
7559 14296 8158 1 109.50000 418.400000
7559 14296 8159 1 109.50000 418.400000
8158 14296 8159 1 109.50000 418.400000
1463 14297 3263 1 109.50000 418.400000
1463 14297 8160 1 109.50000 418.400000
1463 14297 8162 1 109.50000 418.400000
3263 14297 8160 1 109.50000 418.400000
3263 14297 8162 1 109.50000 418.400000
8160 14297 8162 1 109.50000 418.400000
7321 14298 8052 1 109.50000 418.400000
7321 14298 8163 1 109.50000 418.400000
7321 14298 8164 1 109.50000 418.400000
8052 14298 8163 1 109.50000 418.400000
8052 14298 8164 1 109.50000 418.400000
8163 14298 8164 1 109.50000 418.400000
679 14299 1133 1 109.50000 418.400000
679 14299 1440 1 109.50000 418.400000
679 14299 8165 1 109.50000 418.400000
1133 14299 1440 1 109.50000 418.400000
1133 14299 8165 1 109.50000 418.400000
1440 14299 8165 1 109.50000 418.400000
3025 14300 5292 1 109.50000 418.400000
3025 14300 6318 1 109.50000 418.400000
3025 14300 8167 1 109.50000 418.400000
5292 14300 6318 1 109.50000 418.400000
5292 14300 8167 1 109.50000 418.400000
6318 14300 8167 1 109.50000 418.400000
1172 14301 5801 1 109.50000 418.400000
1172 14301 7307 1 109.50000 418.400000
1172 14301 8168 1 109.50000 418.400000
5801 14301 7307 1 109.50000 418.400000
5801 14301 8168 1 109.50000 418.400000
7307 14301 8168 1 109.50000 418.400000
327 14302 8169 1 109.50000 418.400000
327 14302 8170 1 109.50000 418.400000
327 14302 8171 1 109.50000 418.400000
8169 14302 8170 1 109.50000 418.400000
8169 14302 8171 1 109.50000 418.400000
8170 14302 8171 1 109.50000 418.400000
8172 14303 8173 1 109.50000 418.400000
8172 14303 8174 1 109.50000 418.400000
8172 14303 11436 1 109.50000 418.400000
8173 14303 8174 1 109.50000 418.400000
8173 14303 11436 1 109.50000 418.400000
8174 14303 11436 1 109.50000 418.400000
8175 14304 8176 1 109.50000 418.400000
8175 14304 8177 1 109.50000 418.400000
8175 14304 8178 1 109.50000 418.400000
8176 14304 8177 1 109.50000 418.400000
8176 14304 8178 1 109.50000 418.400000
8177 14304 8178 1 109.50000 418.400000
8179 14305 8180 1 109.50000 418.400000
8179 14305 8181 1 109.50000 418.400000
8179 14305 8182 1 109.50000 418.400000
8180 14305 8181 1 109.50000 418.400000
8180 14305 8182 1 109.50000 418.400000
8181 14305 8182 1 109.50000 418.400000
4743 14306 6159 1 109.50000 418.400000
4743 14306 8183 1 109.50000 418.400000
4743 14306 8184 1 109.50000 418.400000
6159 14306 8183 1 109.50000 418.400000
6159 14306 8184 1 109.50000 418.400000
8183 14306 8184 1 109.50000 418.400000
341 14307 3143 1 109.50000 418.400000
341 14307 3934 1 109.50000 418.400000
341 14307 8185 1 109.50000 418.400000
3143 14307 3934 1 109.50000 418.400000
3143 14307 8185 1 109.50000 418.400000
3934 14307 8185 1 109.50000 418.400000
7648 14308 8186 1 109.50000 418.400000
7648 14308 8187 1 109.50000 418.400000
7648 14308 8188 1 109.50000 418.400000
8186 14308 8187 1 109.50000 418.400000
8186 14308 8188 1 109.50000 418.400000
8187 14308 8188 1 109.50000 418.400000
2033 14309 8189 1 109.50000 418.400000
2033 14309 8190 1 109.50000 418.400000
2033 14309 8191 1 109.50000 418.400000
8189 14309 8190 1 109.50000 418.400000
8189 14309 8191 1 109.50000 418.400000
8190 14309 8191 1 109.50000 418.400000
2412 14310 8192 1 109.50000 418.400000
2412 14310 8193 1 109.50000 418.400000
2412 14310 8194 1 109.50000 418.400000
8192 14310 8193 1 109.50000 418.400000
8192 14310 8194 1 109.50000 418.400000
8193 14310 8194 1 109.50000 418.400000
7379 14311 8136 1 109.50000 418.400000
7379 14311 8195 1 109.50000 418.400000
7379 14311 8196 1 109.50000 418.400000
8136 14311 8195 1 109.50000 418.400000
8136 14311 8196 1 109.50000 418.400000
8195 14311 8196 1 109.50000 418.400000
5719 14312 6887 1 109.50000 418.400000
5719 14312 7028 1 109.50000 418.400000
5719 14312 8197 1 109.50000 418.400000
6887 14312 7028 1 109.50000 418.400000
6887 14312 8197 1 109.50000 418.400000
7028 14312 8197 1 109.50000 418.400000
6720 14313 8199 1 109.50000 418.400000
6720 14313 8200 1 109.50000 418.400000
6720 14313 8201 1 109.50000 418.400000
8199 14313 8200 1 109.50000 418.400000
8199 14313 8201 1 109.50000 418.400000
8200 14313 8201 1 109.50000 418.400000
2004 14314 5006 1 109.50000 418.400000
2004 14314 7500 1 109.50000 418.400000
2004 14314 8202 1 109.50000 418.400000
5006 14314 7500 1 109.50000 418.400000
5006 14314 8202 1 109.50000 418.400000
7500 14314 8202 1 109.50000 418.400000
4838 14315 7191 1 109.50000 418.400000
4838 14315 8203 1 109.50000 418.400000
4838 14315 8204 1 109.50000 418.400000
7191 14315 8203 1 109.50000 418.400000
7191 14315 8204 1 109.50000 418.400000
8203 14315 8204 1 109.50000 418.400000
3767 14316 8205 1 109.50000 418.400000
3767 14316 8206 1 109.50000 418.400000
3767 14316 8207 1 109.50000 418.400000
8205 14316 8206 1 109.50000 418.400000
8205 14316 8207 1 109.50000 418.400000
8206 14316 8207 1 109.50000 418.400000
4092 14317 6995 1 109.50000 418.400000
4092 14317 8208 1 109.50000 418.400000
4092 14317 8209 1 109.50000 418.400000
6995 14317 8208 1 109.50000 418.400000
6995 14317 8209 1 109.50000 418.400000
8208 14317 8209 1 109.50000 418.400000
2166 14318 4676 1 109.50000 418.400000
2166 14318 6497 1 109.50000 418.400000
2166 14318 8210 1 109.50000 418.400000
4676 14318 6497 1 109.50000 418.400000
4676 14318 8210 1 109.50000 418.400000
6497 14318 8210 1 109.50000 418.400000
1272 14319 3919 1 109.50000 418.400000
1272 14319 3920 1 109.50000 418.400000
1272 14319 5706 1 109.50000 418.400000
3919 14319 3920 1 109.50000 418.400000
3919 14319 5706 1 109.50000 418.400000
3920 14319 5706 1 109.50000 418.400000
4810 14320 4811 1 109.50000 418.400000
4810 14320 5151 1 109.50000 418.400000
4810 14320 8213 1 109.50000 418.400000
4811 14320 5151 1 109.50000 418.400000
4811 14320 8213 1 109.50000 418.400000
5151 14320 8213 1 109.50000 418.400000
6657 14321 7619 1 109.50000 418.400000
6657 14321 8214 1 109.50000 418.400000
6657 14321 8215 1 109.50000 418.400000
7619 14321 8214 1 109.50000 418.400000
7619 14321 8215 1 109.50000 418.400000
8214 14321 8215 1 109.50000 418.400000
4406 14322 6240 1 109.50000 418.400000
4406 14322 6882 1 109.50000 418.400000
4406 14322 8217 1 109.50000 418.400000
6240 14322 6882 1 109.50000 418.400000
6240 14322 8217 1 109.50000 418.400000
6882 14322 8217 1 109.50000 418.400000
2944 14323 5406 1 109.50000 418.400000
2944 14323 8218 1 109.50000 418.400000
2944 14323 8219 1 109.50000 418.400000
5406 14323 8218 1 109.50000 418.400000
5406 14323 8219 1 109.50000 418.400000
8218 14323 8219 1 109.50000 418.400000
282 14324 1533 1 109.50000 418.400000
282 14324 3821 1 109.50000 418.400000
282 14324 8220 1 109.50000 418.400000
1533 14324 3821 1 109.50000 418.400000
1533 14324 8220 1 109.50000 418.400000
3821 14324 8220 1 109.50000 418.400000
5717 14325 7910 1 109.50000 418.400000
5717 14325 8221 1 109.50000 418.400000
5717 14325 11568 1 109.50000 418.400000
7910 14325 8221 1 109.50000 418.400000
7910 14325 11568 1 109.50000 418.400000
8221 14325 11568 1 109.50000 418.400000
7860 14326 8222 1 109.50000 418.400000
7860 14326 11158 1 109.50000 418.400000
7860 14326 11577 1 109.50000 418.400000
8222 14326 11158 1 109.50000 418.400000
8222 14326 11577 1 109.50000 418.400000
11158 14326 11577 1 109.50000 418.400000
6093 14327 8223 1 109.50000 418.400000
6093 14327 8224 1 109.50000 418.400000
6093 14327 8225 1 109.50000 418.400000
8223 14327 8224 1 109.50000 418.400000
8223 14327 8225 1 109.50000 418.400000
8224 14327 8225 1 109.50000 418.400000
335 14328 8226 1 109.50000 418.400000
335 14328 8227 1 109.50000 418.400000
335 14328 8228 1 109.50000 418.400000
8226 14328 8227 1 109.50000 418.400000
8226 14328 8228 1 109.50000 418.400000
8227 14328 8228 1 109.50000 418.400000
2329 14329 4034 1 109.50000 418.400000
2329 14329 6481 1 109.50000 418.400000
2329 14329 7317 1 109.50000 418.400000
4034 14329 6481 1 109.50000 418.400000
4034 14329 7317 1 109.50000 418.400000
6481 14329 7317 1 109.50000 418.400000
8229 14330 8230 1 109.50000 418.400000
8229 14330 8231 1 109.50000 418.400000
8229 14330 8232 1 109.50000 418.400000
8230 14330 8231 1 109.50000 418.400000
8230 14330 8232 1 109.50000 418.400000
8231 14330 8232 1 109.50000 418.400000
558 14331 1991 1 109.50000 418.400000
558 14331 8233 1 109.50000 418.400000
558 14331 8234 1 109.50000 418.400000
1991 14331 8233 1 109.50000 418.400000
1991 14331 8234 1 109.50000 418.400000
8233 14331 8234 1 109.50000 418.400000
51 14332 2888 1 109.50000 418.400000
51 14332 8235 1 109.50000 418.400000
51 14332 8236 1 109.50000 418.400000
2888 14332 8235 1 109.50000 418.400000
2888 14332 8236 1 109.50000 418.400000
8235 14332 8236 1 109.50000 418.400000
5352 14333 8237 1 109.50000 418.400000
5352 14333 8373 1 109.50000 418.400000
5352 14333 11565 1 109.50000 418.400000
8237 14333 8373 1 109.50000 418.400000
8237 14333 11565 1 109.50000 418.400000
8373 14333 11565 1 109.50000 418.400000
6157 14334 6334 1 109.50000 418.400000
6157 14334 8238 1 109.50000 418.400000
6157 14334 8239 1 109.50000 418.400000
6334 14334 8238 1 109.50000 418.400000
6334 14334 8239 1 109.50000 418.400000
8238 14334 8239 1 109.50000 418.400000
5196 14335 8241 1 109.50000 418.400000
5196 14335 8242 1 109.50000 418.400000
5196 14335 8609 1 109.50000 418.400000
8241 14335 8242 1 109.50000 418.400000
8241 14335 8609 1 109.50000 418.400000
8242 14335 8609 1 109.50000 418.400000
5034 14336 8243 1 109.50000 418.400000
5034 14336 8244 1 109.50000 418.400000
5034 14336 8245 1 109.50000 418.400000
8243 14336 8244 1 109.50000 418.400000
8243 14336 8245 1 109.50000 418.400000
8244 14336 8245 1 109.50000 418.400000
4516 14337 6448 1 109.50000 418.400000
4516 14337 8246 1 109.50000 418.400000
4516 14337 11303 1 109.50000 418.400000
6448 14337 8246 1 109.50000 418.400000
6448 14337 11303 1 109.50000 418.400000
8246 14337 11303 1 109.50000 418.400000
3840 14338 7122 1 109.50000 418.400000
3840 14338 8199 1 109.50000 418.400000
3840 14338 8248 1 109.50000 418.400000
7122 14338 8199 1 109.50000 418.400000
7122 14338 8248 1 109.50000 418.400000
8199 14338 8248 1 109.50000 418.400000
8249 14339 8250 1 109.50000 418.400000
8249 14339 8251 1 109.50000 418.400000
8249 14339 8252 1 109.50000 418.400000
8250 14339 8251 1 109.50000 418.400000
8250 14339 8252 1 109.50000 418.400000
8251 14339 8252 1 109.50000 418.400000
5855 14340 8253 1 109.50000 418.400000
5855 14340 8254 1 109.50000 418.400000
5855 14340 8255 1 109.50000 418.400000
8253 14340 8254 1 109.50000 418.400000
8253 14340 8255 1 109.50000 418.400000
8254 14340 8255 1 109.50000 418.400000
4220 14341 8256 1 109.50000 418.400000
4220 14341 8257 1 109.50000 418.400000
4220 14341 8258 1 109.50000 418.400000
8256 14341 8257 1 109.50000 418.400000
8256 14341 8258 1 109.50000 418.400000
8257 14341 8258 1 109.50000 418.400000
1742 14342 4270 1 109.50000 418.400000
1742 14342 11372 1 109.50000 418.400000
1742 14342 11472 1 109.50000 418.400000
4270 14342 11372 1 109.50000 418.400000
4270 14342 11472 1 109.50000 418.400000
11372 14342 11472 1 109.50000 418.400000
3862 14343 6438 1 109.50000 418.400000
3862 14343 8260 1 109.50000 418.400000
3862 14343 8261 1 109.50000 418.400000
6438 14343 8260 1 109.50000 418.400000
6438 14343 8261 1 109.50000 418.400000
8260 14343 8261 1 109.50000 418.400000
2587 14344 5183 1 109.50000 418.400000
2587 14344 8262 1 109.50000 418.400000
2587 14344 11603 1 109.50000 418.400000
5183 14344 8262 1 109.50000 418.400000
5183 14344 11603 1 109.50000 418.400000
8262 14344 11603 1 109.50000 418.400000
1167 14345 3724 1 109.50000 418.400000
1167 14345 8263 1 109.50000 418.400000
1167 14345 8264 1 109.50000 418.400000
3724 14345 8263 1 109.50000 418.400000
3724 14345 8264 1 109.50000 418.400000
8263 14345 8264 1 109.50000 418.400000
5459 14346 8266 1 109.50000 418.400000
5459 14346 8267 1 109.50000 418.400000
5459 14346 8268 1 109.50000 418.400000
8266 14346 8267 1 109.50000 418.400000
8266 14346 8268 1 109.50000 418.400000
8267 14346 8268 1 109.50000 418.400000
4707 14347 5374 1 109.50000 418.400000
4707 14347 7666 1 109.50000 418.400000
4707 14347 11542 1 109.50000 418.400000
5374 14347 7666 1 109.50000 418.400000
5374 14347 11542 1 109.50000 418.400000
7666 14347 11542 1 109.50000 418.400000
102 14348 8269 1 109.50000 418.400000
102 14348 8270 1 109.50000 418.400000
102 14348 8271 1 109.50000 418.400000
8269 14348 8270 1 109.50000 418.400000
8269 14348 8271 1 109.50000 418.400000
8270 14348 8271 1 109.50000 418.400000
2819 14349 4755 1 109.50000 418.400000
2819 14349 8042 1 109.50000 418.400000
2819 14349 8272 1 109.50000 418.400000
4755 14349 8042 1 109.50000 418.400000
4755 14349 8272 1 109.50000 418.400000
8042 14349 8272 1 109.50000 418.400000
438 14350 1211 1 109.50000 418.400000
438 14350 5074 1 109.50000 418.400000
438 14350 8273 1 109.50000 418.400000
1211 14350 5074 1 109.50000 418.400000
1211 14350 8273 1 109.50000 418.400000
5074 14350 8273 1 109.50000 418.400000
1135 14351 2679 1 109.50000 418.400000
1135 14351 7370 1 109.50000 418.400000
1135 14351 8274 1 109.50000 418.400000
2679 14351 7370 1 109.50000 418.400000
2679 14351 8274 1 109.50000 418.400000
7370 14351 8274 1 109.50000 418.400000
2256 14352 5191 1 109.50000 418.400000
2256 14352 5726 1 109.50000 418.400000
2256 14352 8275 1 109.50000 418.400000
5191 14352 5726 1 109.50000 418.400000
5191 14352 8275 1 109.50000 418.400000
5726 14352 8275 1 109.50000 418.400000
4822 14353 6545 1 109.50000 418.400000
4822 14353 6546 1 109.50000 418.400000
4822 14353 8278 1 109.50000 418.400000
6545 14353 6546 1 109.50000 418.400000
6545 14353 8278 1 109.50000 418.400000
6546 14353 8278 1 109.50000 418.400000
694 14354 6361 1 109.50000 418.400000
694 14354 6363 1 109.50000 418.400000
694 14354 8280 1 109.50000 418.400000
6361 14354 6363 1 109.50000 418.400000
6361 14354 8280 1 109.50000 418.400000
6363 14354 8280 1 109.50000 418.400000
7722 14355 8281 1 109.50000 418.400000
7722 14355 8282 1 109.50000 418.400000
7722 14355 8998 1 109.50000 418.400000
8281 14355 8282 1 109.50000 418.400000
8281 14355 8998 1 109.50000 418.400000
8282 14355 8998 1 109.50000 418.400000
8284 14356 8285 1 109.50000 418.400000
8284 14356 8286 1 109.50000 418.400000
8284 14356 8287 1 109.50000 418.400000
8285 14356 8286 1 109.50000 418.400000
8285 14356 8287 1 109.50000 418.400000
8286 14356 8287 1 109.50000 418.400000
8290 14357 8291 1 109.50000 418.400000
8290 14357 9568 1 109.50000 418.400000
8290 14357 10944 1 109.50000 418.400000
8291 14357 9568 1 109.50000 418.400000
8291 14357 10944 1 109.50000 418.400000
9568 14357 10944 1 109.50000 418.400000
198 14358 6468 1 109.50000 418.400000
198 14358 8292 1 109.50000 418.400000
198 14358 8293 1 109.50000 418.400000
6468 14358 8292 1 109.50000 418.400000
6468 14358 8293 1 109.50000 418.400000
8292 14358 8293 1 109.50000 418.400000
6449 14359 6742 1 109.50000 418.400000
6449 14359 8295 1 109.50000 418.400000
6449 14359 8296 1 109.50000 418.400000
6742 14359 8295 1 109.50000 418.400000
6742 14359 8296 1 109.50000 418.400000
8295 14359 8296 1 109.50000 418.400000
2121 14360 3819 1 109.50000 418.400000
2121 14360 4294 1 109.50000 418.400000
2121 14360 8297 1 109.50000 418.400000
3819 14360 4294 1 109.50000 418.400000
3819 14360 8297 1 109.50000 418.400000
4294 14360 8297 1 109.50000 418.400000
5299 14361 6666 1 109.50000 418.400000
5299 14361 8298 1 109.50000 418.400000
5299 14361 11596 1 109.50000 418.400000
6666 14361 8298 1 109.50000 418.400000
6666 14361 11596 1 109.50000 418.400000
8298 14361 11596 1 109.50000 418.400000
1831 14362 8299 1 109.50000 418.400000
1831 14362 8300 1 109.50000 418.400000
1831 14362 8301 1 109.50000 418.400000
8299 14362 8300 1 109.50000 418.400000
8299 14362 8301 1 109.50000 418.400000
8300 14362 8301 1 109.50000 418.400000
4998 14363 8302 1 109.50000 418.400000
4998 14363 8303 1 109.50000 418.400000
4998 14363 8304 1 109.50000 418.400000
8302 14363 8303 1 109.50000 418.400000
8302 14363 8304 1 109.50000 418.400000
8303 14363 8304 1 109.50000 418.400000
3827 14364 4543 1 109.50000 418.400000
3827 14364 8305 1 109.50000 418.400000
3827 14364 8306 1 109.50000 418.400000
4543 14364 8305 1 109.50000 418.400000
4543 14364 8306 1 109.50000 418.400000
8305 14364 8306 1 109.50000 418.400000
2422 14365 4700 1 109.50000 418.400000
2422 14365 8307 1 109.50000 418.400000
2422 14365 8308 1 109.50000 418.400000
4700 14365 8307 1 109.50000 418.400000
4700 14365 8308 1 109.50000 418.400000
8307 14365 8308 1 109.50000 418.400000
1626 14366 8309 1 109.50000 418.400000
1626 14366 8310 1 109.50000 418.400000
1626 14366 8311 1 109.50000 418.400000
8309 14366 8310 1 109.50000 418.400000
8309 14366 8311 1 109.50000 418.400000
8310 14366 8311 1 109.50000 418.400000
5794 14367 5797 1 109.50000 418.400000
5794 14367 8312 1 109.50000 418.400000
5794 14367 8313 1 109.50000 418.400000
5797 14367 8312 1 109.50000 418.400000
5797 14367 8313 1 109.50000 418.400000
8312 14367 8313 1 109.50000 418.400000
8316 14368 8317 1 109.50000 418.400000
8316 14368 8318 1 109.50000 418.400000
8316 14368 8319 1 109.50000 418.400000
8317 14368 8318 1 109.50000 418.400000
8317 14368 8319 1 109.50000 418.400000
8318 14368 8319 1 109.50000 418.400000
922 14369 1193 1 109.50000 418.400000
922 14369 7809 1 109.50000 418.400000
922 14369 8320 1 109.50000 418.400000
1193 14369 7809 1 109.50000 418.400000
1193 14369 8320 1 109.50000 418.400000
7809 14369 8320 1 109.50000 418.400000
6217 14370 8029 1 109.50000 418.400000
6217 14370 8321 1 109.50000 418.400000
6217 14370 8322 1 109.50000 418.400000
8029 14370 8321 1 109.50000 418.400000
8029 14370 8322 1 109.50000 418.400000
8321 14370 8322 1 109.50000 418.400000
422 14371 5953 1 109.50000 418.400000
422 14371 8323 1 109.50000 418.400000
422 14371 8324 1 109.50000 418.400000
5953 14371 8323 1 109.50000 418.400000
5953 14371 8324 1 109.50000 418.400000
8323 14371 8324 1 109.50000 418.400000
3297 14372 8186 1 109.50000 418.400000
3297 14372 8325 1 109.50000 418.400000
3297 14372 8326 1 109.50000 418.400000
8186 14372 8325 1 109.50000 418.400000
8186 14372 8326 1 109.50000 418.400000
8325 14372 8326 1 109.50000 418.400000
8327 14373 8328 1 109.50000 418.400000
8327 14373 8329 1 109.50000 418.400000
8327 14373 8330 1 109.50000 418.400000
8328 14373 8329 1 109.50000 418.400000
8328 14373 8330 1 109.50000 418.400000
8329 14373 8330 1 109.50000 418.400000
5463 14374 8331 1 109.50000 418.400000
5463 14374 8332 1 109.50000 418.400000
5463 14374 11212 1 109.50000 418.400000
8331 14374 8332 1 109.50000 418.400000
8331 14374 11212 1 109.50000 418.400000
8332 14374 11212 1 109.50000 418.400000
3836 14375 8333 1 109.50000 418.400000
3836 14375 8334 1 109.50000 418.400000
3836 14375 8335 1 109.50000 418.400000
8333 14375 8334 1 109.50000 418.400000
8333 14375 8335 1 109.50000 418.400000
8334 14375 8335 1 109.50000 418.400000
8336 14376 8337 1 109.50000 418.400000
8336 14376 8338 1 109.50000 418.400000
8336 14376 8339 1 109.50000 418.400000
8337 14376 8338 1 109.50000 418.400000
8337 14376 8339 1 109.50000 418.400000
8338 14376 8339 1 109.50000 418.400000
2788 14377 3197 1 109.50000 418.400000
2788 14377 8340 1 109.50000 418.400000
2788 14377 8341 1 109.50000 418.400000
3197 14377 8340 1 109.50000 418.400000
3197 14377 8341 1 109.50000 418.400000
8340 14377 8341 1 109.50000 418.400000
5653 14378 5654 1 109.50000 418.400000
5653 14378 7451 1 109.50000 418.400000
5653 14378 8342 1 109.50000 418.400000
5654 14378 7451 1 109.50000 418.400000
5654 14378 8342 1 109.50000 418.400000
7451 14378 8342 1 109.50000 418.400000
2831 14379 8343 1 109.50000 418.400000
2831 14379 8344 1 109.50000 418.400000
2831 14379 8345 1 109.50000 418.400000
8343 14379 8344 1 109.50000 418.400000
8343 14379 8345 1 109.50000 418.400000
8344 14379 8345 1 109.50000 418.400000
6294 14380 6588 1 109.50000 418.400000
6294 14380 8346 1 109.50000 418.400000
6294 14380 8347 1 109.50000 418.400000
6588 14380 8346 1 109.50000 418.400000
6588 14380 8347 1 109.50000 418.400000
8346 14380 8347 1 109.50000 418.400000
539 14381 8348 1 109.50000 418.400000
539 14381 8349 1 109.50000 418.400000
539 14381 8350 1 109.50000 418.400000
8348 14381 8349 1 109.50000 418.400000
8348 14381 8350 1 109.50000 418.400000
8349 14381 8350 1 109.50000 418.400000
3427 14382 5046 1 109.50000 418.400000
3427 14382 6930 1 109.50000 418.400000
3427 14382 8104 1 109.50000 418.400000
5046 14382 6930 1 109.50000 418.400000
5046 14382 8104 1 109.50000 418.400000
6930 14382 8104 1 109.50000 418.400000
5827 14383 8351 1 109.50000 418.400000
5827 14383 8352 1 109.50000 418.400000
5827 14383 8353 1 109.50000 418.400000
8351 14383 8352 1 109.50000 418.400000
8351 14383 8353 1 109.50000 418.400000
8352 14383 8353 1 109.50000 418.400000
5998 14384 7217 1 109.50000 418.400000
5998 14384 8354 1 109.50000 418.400000
5998 14384 11311 1 109.50000 418.400000
7217 14384 8354 1 109.50000 418.400000
7217 14384 11311 1 109.50000 418.400000
8354 14384 11311 1 109.50000 418.400000
6490 14385 8355 1 109.50000 418.400000
6490 14385 8356 1 109.50000 418.400000
6490 14385 10119 1 109.50000 418.400000
8355 14385 8356 1 109.50000 418.400000
8355 14385 10119 1 109.50000 418.400000
8356 14385 10119 1 109.50000 418.400000
633 14386 6275 1 109.50000 418.400000
633 14386 8357 1 109.50000 418.400000
633 14386 8358 1 109.50000 418.400000
6275 14386 8357 1 109.50000 418.400000
6275 14386 8358 1 109.50000 418.400000
8357 14386 8358 1 109.50000 418.400000
6079 14387 8359 1 109.50000 418.400000
6079 14387 8360 1 109.50000 418.400000
6079 14387 8361 1 109.50000 418.400000
8359 14387 8360 1 109.50000 418.400000
8359 14387 8361 1 109.50000 418.400000
8360 14387 8361 1 109.50000 418.400000
6532 14388 7465 1 109.50000 418.400000
6532 14388 7948 1 109.50000 418.400000
6532 14388 8362 1 109.50000 418.400000
7465 14388 7948 1 109.50000 418.400000
7465 14388 8362 1 109.50000 418.400000
7948 14388 8362 1 109.50000 418.400000
5968 14389 8363 1 109.50000 418.400000
5968 14389 8364 1 109.50000 418.400000
5968 14389 8365 1 109.50000 418.400000
8363 14389 8364 1 109.50000 418.400000
8363 14389 8365 1 109.50000 418.400000
8364 14389 8365 1 109.50000 418.400000
3606 14390 3979 1 109.50000 418.400000
3606 14390 8366 1 109.50000 418.400000
3606 14390 8367 1 109.50000 418.400000
3979 14390 8366 1 109.50000 418.400000
3979 14390 8367 1 109.50000 418.400000
8366 14390 8367 1 109.50000 418.400000
8368 14391 8369 1 109.50000 418.400000
8368 14391 8370 1 109.50000 418.400000
8368 14391 11146 1 109.50000 418.400000
8369 14391 8370 1 109.50000 418.400000
8369 14391 11146 1 109.50000 418.400000
8370 14391 11146 1 109.50000 418.400000
4772 14392 6039 1 109.50000 418.400000
4772 14392 7687 1 109.50000 418.400000
4772 14392 8372 1 109.50000 418.400000
6039 14392 7687 1 109.50000 418.400000
6039 14392 8372 1 109.50000 418.400000
7687 14392 8372 1 109.50000 418.400000
1985 14393 5388 1 109.50000 418.400000
1985 14393 8374 1 109.50000 418.400000
1985 14393 8375 1 109.50000 418.400000
5388 14393 8374 1 109.50000 418.400000
5388 14393 8375 1 109.50000 418.400000
8374 14393 8375 1 109.50000 418.400000
359 14394 1686 1 109.50000 418.400000
359 14394 1687 1 109.50000 418.400000
359 14394 8377 1 109.50000 418.400000
1686 14394 1687 1 109.50000 418.400000
1686 14394 8377 1 109.50000 418.400000
1687 14394 8377 1 109.50000 418.400000
2521 14395 5750 1 109.50000 418.400000
2521 14395 5770 1 109.50000 418.400000
2521 14395 8378 1 109.50000 418.400000
5750 14395 5770 1 109.50000 418.400000
5750 14395 8378 1 109.50000 418.400000
5770 14395 8378 1 109.50000 418.400000
2797 14396 4346 1 109.50000 418.400000
2797 14396 8379 1 109.50000 418.400000
2797 14396 8380 1 109.50000 418.400000
4346 14396 8379 1 109.50000 418.400000
4346 14396 8380 1 109.50000 418.400000
8379 14396 8380 1 109.50000 418.400000
767 14397 1936 1 109.50000 418.400000
767 14397 8382 1 109.50000 418.400000
767 14397 8383 1 109.50000 418.400000
1936 14397 8382 1 109.50000 418.400000
1936 14397 8383 1 109.50000 418.400000
8382 14397 8383 1 109.50000 418.400000
256 14398 1827 1 109.50000 418.400000
256 14398 6834 1 109.50000 418.400000
256 14398 8384 1 109.50000 418.400000
1827 14398 6834 1 109.50000 418.400000
1827 14398 8384 1 109.50000 418.400000
6834 14398 8384 1 109.50000 418.400000
480 14399 5688 1 109.50000 418.400000
480 14399 8010 1 109.50000 418.400000
480 14399 8385 1 109.50000 418.400000
5688 14399 8010 1 109.50000 418.400000
5688 14399 8385 1 109.50000 418.400000
8010 14399 8385 1 109.50000 418.400000
3722 14400 8386 1 109.50000 418.400000
3722 14400 8387 1 109.50000 418.400000
3722 14400 8388 1 109.50000 418.400000
8386 14400 8387 1 109.50000 418.400000
8386 14400 8388 1 109.50000 418.400000
8387 14400 8388 1 109.50000 418.400000
1752 14401 5552 1 109.50000 418.400000
1752 14401 7255 1 109.50000 418.400000
1752 14401 8389 1 109.50000 418.400000
5552 14401 7255 1 109.50000 418.400000
5552 14401 8389 1 109.50000 418.400000
7255 14401 8389 1 109.50000 418.400000
6234 14402 8390 1 109.50000 418.400000
6234 14402 8391 1 109.50000 418.400000
6234 14402 10272 1 109.50000 418.400000
8390 14402 8391 1 109.50000 418.400000
8390 14402 10272 1 109.50000 418.400000
8391 14402 10272 1 109.50000 418.400000
3656 14403 5310 1 109.50000 418.400000
3656 14403 8392 1 109.50000 418.400000
3656 14403 8393 1 109.50000 418.400000
5310 14403 8392 1 109.50000 418.400000
5310 14403 8393 1 109.50000 418.400000
8392 14403 8393 1 109.50000 418.400000
4851 14404 8394 1 109.50000 418.400000
4851 14404 8395 1 109.50000 418.400000
4851 14404 8396 1 109.50000 418.400000
8394 14404 8395 1 109.50000 418.400000
8394 14404 8396 1 109.50000 418.400000
8395 14404 8396 1 109.50000 418.400000
1794 14405 6524 1 109.50000 418.400000
1794 14405 8397 1 109.50000 418.400000
1794 14405 8398 1 109.50000 418.400000
6524 14405 8397 1 109.50000 418.400000
6524 14405 8398 1 109.50000 418.400000
8397 14405 8398 1 109.50000 418.400000
53 14406 6471 1 109.50000 418.400000
53 14406 8399 1 109.50000 418.400000
53 14406 8400 1 109.50000 418.400000
6471 14406 8399 1 109.50000 418.400000
6471 14406 8400 1 109.50000 418.400000
8399 14406 8400 1 109.50000 418.400000
492 14407 5751 1 109.50000 418.400000
492 14407 8401 1 109.50000 418.400000
492 14407 8402 1 109.50000 418.400000
5751 14407 8401 1 109.50000 418.400000
5751 14407 8402 1 109.50000 418.400000
8401 14407 8402 1 109.50000 418.400000
229 14408 4242 1 109.50000 418.400000
229 14408 6526 1 109.50000 418.400000
229 14408 7153 1 109.50000 418.400000
4242 14408 6526 1 109.50000 418.400000
4242 14408 7153 1 109.50000 418.400000
6526 14408 7153 1 109.50000 418.400000
1556 14409 1892 1 109.50000 418.400000
1556 14409 1894 1 109.50000 418.400000
1556 14409 8403 1 109.50000 418.400000
1892 14409 1894 1 109.50000 418.400000
1892 14409 8403 1 109.50000 418.400000
1894 14409 8403 1 109.50000 418.400000
2494 14410 6827 1 109.50000 418.400000
2494 14410 11286 1 109.50000 418.400000
2494 14410 11480 1 109.50000 418.400000
6827 14410 11286 1 109.50000 418.400000
6827 14410 11480 1 109.50000 418.400000
11286 14410 11480 1 109.50000 418.400000
3335 14411 7913 1 109.50000 418.400000
3335 14411 8406 1 109.50000 418.400000
3335 14411 8407 1 109.50000 418.400000
7913 14411 8406 1 109.50000 418.400000
7913 14411 8407 1 109.50000 418.400000
8406 14411 8407 1 109.50000 418.400000
8408 14412 8409 1 109.50000 418.400000
8408 14412 8410 1 109.50000 418.400000
8408 14412 9452 1 109.50000 418.400000
8409 14412 8410 1 109.50000 418.400000
8409 14412 9452 1 109.50000 418.400000
8410 14412 9452 1 109.50000 418.400000
4315 14413 5789 1 109.50000 418.400000
4315 14413 8411 1 109.50000 418.400000
4315 14413 10028 1 109.50000 418.400000
5789 14413 8411 1 109.50000 418.400000
5789 14413 10028 1 109.50000 418.400000
8411 14413 10028 1 109.50000 418.400000
723 14414 724 1 109.50000 418.400000
723 14414 8413 1 109.50000 418.400000
723 14414 8414 1 109.50000 418.400000
724 14414 8413 1 109.50000 418.400000
724 14414 8414 1 109.50000 418.400000
8413 14414 8414 1 109.50000 418.400000
4512 14415 8415 1 109.50000 418.400000
4512 14415 8416 1 109.50000 418.400000
4512 14415 8417 1 109.50000 418.400000
8415 14415 8416 1 109.50000 418.400000
8415 14415 8417 1 109.50000 418.400000
8416 14415 8417 1 109.50000 418.400000
7428 14416 8418 1 109.50000 418.400000
7428 14416 8419 1 109.50000 418.400000
7428 14416 8420 1 109.50000 418.400000
8418 14416 8419 1 109.50000 418.400000
8418 14416 8420 1 109.50000 418.400000
8419 14416 8420 1 109.50000 418.400000
3384 14417 5223 1 109.50000 418.400000
3384 14417 5224 1 109.50000 418.400000
3384 14417 8422 1 109.50000 418.400000
5223 14417 5224 1 109.50000 418.400000
5223 14417 8422 1 109.50000 418.400000
5224 14417 8422 1 109.50000 418.400000
8367 14418 8423 1 109.50000 418.400000
8367 14418 8424 1 109.50000 418.400000
8367 14418 8425 1 109.50000 418.400000
8423 14418 8424 1 109.50000 418.400000
8423 14418 8425 1 109.50000 418.400000
8424 14418 8425 1 109.50000 418.400000
1018 14419 7611 1 109.50000 418.400000
1018 14419 7812 1 109.50000 418.400000
1018 14419 8427 1 109.50000 418.400000
7611 14419 7812 1 109.50000 418.400000
7611 14419 8427 1 109.50000 418.400000
7812 14419 8427 1 109.50000 418.400000
3883 14420 5131 1 109.50000 418.400000
3883 14420 8430 1 109.50000 418.400000
3883 14420 8431 1 109.50000 418.400000
5131 14420 8430 1 109.50000 418.400000
5131 14420 8431 1 109.50000 418.400000
8430 14420 8431 1 109.50000 418.400000
7569 14421 7968 1 109.50000 418.400000
7569 14421 8432 1 109.50000 418.400000
7569 14421 8433 1 109.50000 418.400000
7968 14421 8432 1 109.50000 418.400000
7968 14421 8433 1 109.50000 418.400000
8432 14421 8433 1 109.50000 418.400000
1151 14422 7600 1 109.50000 418.400000
1151 14422 8434 1 109.50000 418.400000
1151 14422 8435 1 109.50000 418.400000
7600 14422 8434 1 109.50000 418.400000
7600 14422 8435 1 109.50000 418.400000
8434 14422 8435 1 109.50000 418.400000
887 14423 8369 1 109.50000 418.400000
887 14423 8438 1 109.50000 418.400000
887 14423 8439 1 109.50000 418.400000
8369 14423 8438 1 109.50000 418.400000
8369 14423 8439 1 109.50000 418.400000
8438 14423 8439 1 109.50000 418.400000
3941 14424 4544 1 109.50000 418.400000
3941 14424 8440 1 109.50000 418.400000
3941 14424 8441 1 109.50000 418.400000
4544 14424 8440 1 109.50000 418.400000
4544 14424 8441 1 109.50000 418.400000
8440 14424 8441 1 109.50000 418.400000
4828 14425 5309 1 109.50000 418.400000
4828 14425 7694 1 109.50000 418.400000
4828 14425 8442 1 109.50000 418.400000
5309 14425 7694 1 109.50000 418.400000
5309 14425 8442 1 109.50000 418.400000
7694 14425 8442 1 109.50000 418.400000
809 14426 2792 1 109.50000 418.400000
809 14426 8151 1 109.50000 418.400000
809 14426 8443 1 109.50000 418.400000
2792 14426 8151 1 109.50000 418.400000
2792 14426 8443 1 109.50000 418.400000
8151 14426 8443 1 109.50000 418.400000
1737 14427 5982 1 109.50000 418.400000
1737 14427 8444 1 109.50000 418.400000
1737 14427 10296 1 109.50000 418.400000
5982 14427 8444 1 109.50000 418.400000
5982 14427 10296 1 109.50000 418.400000
8444 14427 10296 1 109.50000 418.400000
2120 14428 8445 1 109.50000 418.400000
2120 14428 8446 1 109.50000 418.400000
2120 14428 8447 1 109.50000 418.400000
8445 14428 8446 1 109.50000 418.400000
8445 14428 8447 1 109.50000 418.400000
8446 14428 8447 1 109.50000 418.400000
1255 14429 4993 1 109.50000 418.400000
1255 14429 8448 1 109.50000 418.400000
1255 14429 8449 1 109.50000 418.400000
4993 14429 8448 1 109.50000 418.400000
4993 14429 8449 1 109.50000 418.400000
8448 14429 8449 1 109.50000 418.400000
8451 14430 8452 1 109.50000 418.400000
8451 14430 8453 1 109.50000 418.400000
8451 14430 10489 1 109.50000 418.400000
8452 14430 8453 1 109.50000 418.400000
8452 14430 10489 1 109.50000 418.400000
8453 14430 10489 1 109.50000 418.400000
40 14431 3667 1 109.50000 418.400000
40 14431 5549 1 109.50000 418.400000
40 14431 8455 1 109.50000 418.400000
3667 14431 5549 1 109.50000 418.400000
3667 14431 8455 1 109.50000 418.400000
5549 14431 8455 1 109.50000 418.400000
2182 14432 5336 1 109.50000 418.400000
2182 14432 5337 1 109.50000 418.400000
2182 14432 8193 1 109.50000 418.400000
5336 14432 5337 1 109.50000 418.400000
5336 14432 8193 1 109.50000 418.400000
5337 14432 8193 1 109.50000 418.400000
1785 14433 3637 1 109.50000 418.400000
1785 14433 8457 1 109.50000 418.400000
1785 14433 8458 1 109.50000 418.400000
3637 14433 8457 1 109.50000 418.400000
3637 14433 8458 1 109.50000 418.400000
8457 14433 8458 1 109.50000 418.400000
3714 14434 3955 1 109.50000 418.400000
3714 14434 7185 1 109.50000 418.400000
3714 14434 8460 1 109.50000 418.400000
3955 14434 7185 1 109.50000 418.400000
3955 14434 8460 1 109.50000 418.400000
7185 14434 8460 1 109.50000 418.400000
57 14435 8462 1 109.50000 418.400000
57 14435 8463 1 109.50000 418.400000
57 14435 8464 1 109.50000 418.400000
8462 14435 8463 1 109.50000 418.400000
8462 14435 8464 1 109.50000 418.400000
8463 14435 8464 1 109.50000 418.400000
158 14436 5937 1 109.50000 418.400000
158 14436 8465 1 109.50000 418.400000
158 14436 8466 1 109.50000 418.400000
5937 14436 8465 1 109.50000 418.400000
5937 14436 8466 1 109.50000 418.400000
8465 14436 8466 1 109.50000 418.400000
1564 14437 5066 1 109.50000 418.400000
1564 14437 6326 1 109.50000 418.400000
1564 14437 8467 1 109.50000 418.400000
5066 14437 6326 1 109.50000 418.400000
5066 14437 8467 1 109.50000 418.400000
6326 14437 8467 1 109.50000 418.400000
8468 14438 8469 1 109.50000 418.400000
8468 14438 8470 1 109.50000 418.400000
8468 14438 8471 1 109.50000 418.400000
8469 14438 8470 1 109.50000 418.400000
8469 14438 8471 1 109.50000 418.400000
8470 14438 8471 1 109.50000 418.400000
2766 14439 3469 1 109.50000 418.400000
2766 14439 6723 1 109.50000 418.400000
2766 14439 8472 1 109.50000 418.400000
3469 14439 6723 1 109.50000 418.400000
3469 14439 8472 1 109.50000 418.400000
6723 14439 8472 1 109.50000 418.400000
1365 14440 5944 1 109.50000 418.400000
1365 14440 7058 1 109.50000 418.400000
1365 14440 7397 1 109.50000 418.400000
5944 14440 7058 1 109.50000 418.400000
5944 14440 7397 1 109.50000 418.400000
7058 14440 7397 1 109.50000 418.400000
8473 14441 8474 1 109.50000 418.400000
8473 14441 8829 1 109.50000 418.400000
8473 14441 11312 1 109.50000 418.400000
8474 14441 8829 1 109.50000 418.400000
8474 14441 11312 1 109.50000 418.400000
8829 14441 11312 1 109.50000 418.400000
1336 14442 6940 1 109.50000 418.400000
1336 14442 7618 1 109.50000 418.400000
1336 14442 8475 1 109.50000 418.400000
6940 14442 7618 1 109.50000 418.400000
6940 14442 8475 1 109.50000 418.400000
7618 14442 8475 1 109.50000 418.400000
4655 14443 7737 1 109.50000 418.400000
4655 14443 8476 1 109.50000 418.400000
4655 14443 8477 1 109.50000 418.400000
7737 14443 8476 1 109.50000 418.400000
7737 14443 8477 1 109.50000 418.400000
8476 14443 8477 1 109.50000 418.400000
5729 14444 8478 1 109.50000 418.400000
5729 14444 8479 1 109.50000 418.400000
5729 14444 8480 1 109.50000 418.400000
8478 14444 8479 1 109.50000 418.400000
8478 14444 8480 1 109.50000 418.400000
8479 14444 8480 1 109.50000 418.400000
5250 14445 6998 1 109.50000 418.400000
5250 14445 8481 1 109.50000 418.400000
5250 14445 8482 1 109.50000 418.400000
6998 14445 8481 1 109.50000 418.400000
6998 14445 8482 1 109.50000 418.400000
8481 14445 8482 1 109.50000 418.400000
2973 14446 3357 1 109.50000 418.400000
2973 14446 3359 1 109.50000 418.400000
2973 14446 8483 1 109.50000 418.400000
3357 14446 3359 1 109.50000 418.400000
3357 14446 8483 1 109.50000 418.400000
3359 14446 8483 1 109.50000 418.400000
4402 14447 5663 1 109.50000 418.400000
4402 14447 8484 1 109.50000 418.400000
4402 14447 8485 1 109.50000 418.400000
5663 14447 8484 1 109.50000 418.400000
5663 14447 8485 1 109.50000 418.400000
8484 14447 8485 1 109.50000 418.400000
3433 14448 8486 1 109.50000 418.400000
3433 14448 8487 1 109.50000 418.400000
3433 14448 8488 1 109.50000 418.400000
8486 14448 8487 1 109.50000 418.400000
8486 14448 8488 1 109.50000 418.400000
8487 14448 8488 1 109.50000 418.400000
3334 14449 8489 1 109.50000 418.400000
3334 14449 8490 1 109.50000 418.400000
3334 14449 8491 1 109.50000 418.400000
8489 14449 8490 1 109.50000 418.400000
8489 14449 8491 1 109.50000 418.400000
8490 14449 8491 1 109.50000 418.400000
5040 14450 7525 1 109.50000 418.400000
5040 14450 8493 1 109.50000 418.400000
5040 14450 8494 1 109.50000 418.400000
7525 14450 8493 1 109.50000 418.400000
7525 14450 8494 1 109.50000 418.400000
8493 14450 8494 1 109.50000 418.400000
4823 14451 7480 1 109.50000 418.400000
4823 14451 8495 1 109.50000 418.400000
4823 14451 8496 1 109.50000 418.400000
7480 14451 8495 1 109.50000 418.400000
7480 14451 8496 1 109.50000 418.400000
8495 14451 8496 1 109.50000 418.400000
7637 14452 8498 1 109.50000 418.400000
7637 14452 8500 1 109.50000 418.400000
7637 14452 10407 1 109.50000 418.400000
8498 14452 8500 1 109.50000 418.400000
8498 14452 10407 1 109.50000 418.400000
8500 14452 10407 1 109.50000 418.400000
7980 14453 8501 1 109.50000 418.400000
7980 14453 11416 1 109.50000 418.400000
7980 14453 11441 1 109.50000 418.400000
8501 14453 11416 1 109.50000 418.400000
8501 14453 11441 1 109.50000 418.400000
11416 14453 11441 1 109.50000 418.400000
7298 14454 8502 1 109.50000 418.400000
7298 14454 8503 1 109.50000 418.400000
7298 14454 8504 1 109.50000 418.400000
8502 14454 8503 1 109.50000 418.400000
8502 14454 8504 1 109.50000 418.400000
8503 14454 8504 1 109.50000 418.400000
3133 14455 3134 1 109.50000 418.400000
3133 14455 3135 1 109.50000 418.400000
3133 14455 5068 1 109.50000 418.400000
3134 14455 3135 1 109.50000 418.400000
3134 14455 5068 1 109.50000 418.400000
3135 14455 5068 1 109.50000 418.400000
3415 14456 8257 1 109.50000 418.400000
3415 14456 8507 1 109.50000 418.400000
3415 14456 10406 1 109.50000 418.400000
8257 14456 8507 1 109.50000 418.400000
8257 14456 10406 1 109.50000 418.400000
8507 14456 10406 1 109.50000 418.400000
3708 14457 8508 1 109.50000 418.400000
3708 14457 8509 1 109.50000 418.400000
3708 14457 8510 1 109.50000 418.400000
8508 14457 8509 1 109.50000 418.400000
8508 14457 8510 1 109.50000 418.400000
8509 14457 8510 1 109.50000 418.400000
3914 14458 4325 1 109.50000 418.400000
3914 14458 6721 1 109.50000 418.400000
3914 14458 11426 1 109.50000 418.400000
4325 14458 6721 1 109.50000 418.400000
4325 14458 11426 1 109.50000 418.400000
6721 14458 11426 1 109.50000 418.400000
898 14459 1403 1 109.50000 418.400000
898 14459 1405 1 109.50000 418.400000
898 14459 8513 1 109.50000 418.400000
1403 14459 1405 1 109.50000 418.400000
1403 14459 8513 1 109.50000 418.400000
1405 14459 8513 1 109.50000 418.400000
2401 14460 8514 1 109.50000 418.400000
2401 14460 8515 1 109.50000 418.400000
2401 14460 8516 1 109.50000 418.400000
8514 14460 8515 1 109.50000 418.400000
8514 14460 8516 1 109.50000 418.400000
8515 14460 8516 1 109.50000 418.400000
447 14461 3811 1 109.50000 418.400000
447 14461 4226 1 109.50000 418.400000
447 14461 8517 1 109.50000 418.400000
3811 14461 4226 1 109.50000 418.400000
3811 14461 8517 1 109.50000 418.400000
4226 14461 8517 1 109.50000 418.400000
975 14462 2445 1 109.50000 418.400000
975 14462 8518 1 109.50000 418.400000
975 14462 11193 1 109.50000 418.400000
2445 14462 8518 1 109.50000 418.400000
2445 14462 11193 1 109.50000 418.400000
8518 14462 11193 1 109.50000 418.400000
3076 14463 8078 1 109.50000 418.400000
3076 14463 8445 1 109.50000 418.400000
3076 14463 8519 1 109.50000 418.400000
8078 14463 8445 1 109.50000 418.400000
8078 14463 8519 1 109.50000 418.400000
8445 14463 8519 1 109.50000 418.400000
1701 14464 4553 1 109.50000 418.400000
1701 14464 8520 1 109.50000 418.400000
1701 14464 11535 1 109.50000 418.400000
4553 14464 8520 1 109.50000 418.400000
4553 14464 11535 1 109.50000 418.400000
8520 14464 11535 1 109.50000 418.400000
3144 14465 8521 1 109.50000 418.400000
3144 14465 8522 1 109.50000 418.400000
3144 14465 10638 1 109.50000 418.400000
8521 14465 8522 1 109.50000 418.400000
8521 14465 10638 1 109.50000 418.400000
8522 14465 10638 1 109.50000 418.400000
259 14466 8163 1 109.50000 418.400000
259 14466 8523 1 109.50000 418.400000
259 14466 8524 1 109.50000 418.400000
8163 14466 8523 1 109.50000 418.400000
8163 14466 8524 1 109.50000 418.400000
8523 14466 8524 1 109.50000 418.400000
235 14467 236 1 109.50000 418.400000
235 14467 237 1 109.50000 418.400000
235 14467 238 1 109.50000 418.400000
236 14467 237 1 109.50000 418.400000
236 14467 238 1 109.50000 418.400000
237 14467 238 1 109.50000 418.400000
6903 14468 8353 1 109.50000 418.400000
6903 14468 8528 1 109.50000 418.400000
6903 14468 8529 1 109.50000 418.400000
8353 14468 8528 1 109.50000 418.400000
8353 14468 8529 1 109.50000 418.400000
8528 14468 8529 1 109.50000 418.400000
5258 14469 6199 1 109.50000 418.400000
5258 14469 11307 1 109.50000 418.400000
5258 14469 11607 1 109.50000 418.400000
6199 14469 11307 1 109.50000 418.400000
6199 14469 11607 1 109.50000 418.400000
11307 14469 11607 1 109.50000 418.400000
683 14470 685 1 109.50000 418.400000
683 14470 8530 1 109.50000 418.400000
683 14470 8531 1 109.50000 418.400000
685 14470 8530 1 109.50000 418.400000
685 14470 8531 1 109.50000 418.400000
8530 14470 8531 1 109.50000 418.400000
1675 14471 8532 1 109.50000 418.400000
1675 14471 8533 1 109.50000 418.400000
1675 14471 8534 1 109.50000 418.400000
8532 14471 8533 1 109.50000 418.400000
8532 14471 8534 1 109.50000 418.400000
8533 14471 8534 1 109.50000 418.400000
4442 14472 8535 1 109.50000 418.400000
4442 14472 8536 1 109.50000 418.400000
4442 14472 8537 1 109.50000 418.400000
8535 14472 8536 1 109.50000 418.400000
8535 14472 8537 1 109.50000 418.400000
8536 14472 8537 1 109.50000 418.400000
1799 14473 8506 1 109.50000 418.400000
1799 14473 8538 1 109.50000 418.400000
1799 14473 8539 1 109.50000 418.400000
8506 14473 8538 1 109.50000 418.400000
8506 14473 8539 1 109.50000 418.400000
8538 14473 8539 1 109.50000 418.400000
1087 14474 8540 1 109.50000 418.400000
1087 14474 8541 1 109.50000 418.400000
1087 14474 8542 1 109.50000 418.400000
8540 14474 8541 1 109.50000 418.400000
8540 14474 8542 1 109.50000 418.400000
8541 14474 8542 1 109.50000 418.400000
567 14475 8543 1 109.50000 418.400000
567 14475 8544 1 109.50000 418.400000
567 14475 8545 1 109.50000 418.400000
8543 14475 8544 1 109.50000 418.400000
8543 14475 8545 1 109.50000 418.400000
8544 14475 8545 1 109.50000 418.400000
421 14476 4011 1 109.50000 418.400000
421 14476 8343 1 109.50000 418.400000
421 14476 8546 1 109.50000 418.400000
4011 14476 8343 1 109.50000 418.400000
4011 14476 8546 1 109.50000 418.400000
8343 14476 8546 1 109.50000 418.400000
4212 14477 8547 1 109.50000 418.400000
4212 14477 8548 1 109.50000 418.400000
4212 14477 8549 1 109.50000 418.400000
8547 14477 8548 1 109.50000 418.400000
8547 14477 8549 1 109.50000 418.400000
8548 14477 8549 1 109.50000 418.400000
21 14478 8550 1 109.50000 418.400000
21 14478 11365 1 109.50000 418.400000
21 14478 11483 1 109.50000 418.400000
8550 14478 11365 1 109.50000 418.400000
8550 14478 11483 1 109.50000 418.400000
11365 14478 11483 1 109.50000 418.400000
565 14479 8551 1 109.50000 418.400000
565 14479 8552 1 109.50000 418.400000
565 14479 8553 1 109.50000 418.400000
8551 14479 8552 1 109.50000 418.400000
8551 14479 8553 1 109.50000 418.400000
8552 14479 8553 1 109.50000 418.400000
1948 14480 6145 1 109.50000 418.400000
1948 14480 6146 1 109.50000 418.400000
1948 14480 6147 1 109.50000 418.400000
6145 14480 6146 1 109.50000 418.400000
6145 14480 6147 1 109.50000 418.400000
6146 14480 6147 1 109.50000 418.400000
7075 14481 7999 1 109.50000 418.400000
7075 14481 8554 1 109.50000 418.400000
7075 14481 8555 1 109.50000 418.400000
7999 14481 8554 1 109.50000 418.400000
7999 14481 8555 1 109.50000 418.400000
8554 14481 8555 1 109.50000 418.400000
6370 14482 8007 1 109.50000 418.400000
6370 14482 8556 1 109.50000 418.400000
6370 14482 8557 1 109.50000 418.400000
8007 14482 8556 1 109.50000 418.400000
8007 14482 8557 1 109.50000 418.400000
8556 14482 8557 1 109.50000 418.400000
4453 14483 4712 1 109.50000 418.400000
4453 14483 8558 1 109.50000 418.400000
4453 14483 8559 1 109.50000 418.400000
4712 14483 8558 1 109.50000 418.400000
4712 14483 8559 1 109.50000 418.400000
8558 14483 8559 1 109.50000 418.400000
5758 14484 8338 1 109.50000 418.400000
5758 14484 8560 1 109.50000 418.400000
5758 14484 8561 1 109.50000 418.400000
8338 14484 8560 1 109.50000 418.400000
8338 14484 8561 1 109.50000 418.400000
8560 14484 8561 1 109.50000 418.400000
2733 14485 8562 1 109.50000 418.400000
2733 14485 11163 1 109.50000 418.400000
2733 14485 11192 1 109.50000 418.400000
8562 14485 11163 1 109.50000 418.400000
8562 14485 11192 1 109.50000 418.400000
11163 14485 11192 1 109.50000 418.400000
2512 14486 7876 1 109.50000 418.400000
2512 14486 8414 1 109.50000 418.400000
2512 14486 8563 1 109.50000 418.400000
7876 14486 8414 1 109.50000 418.400000
7876 14486 8563 1 109.50000 418.400000
8414 14486 8563 1 109.50000 418.400000
192 14487 6424 1 109.50000 418.400000
192 14487 8564 1 109.50000 418.400000
192 14487 8565 1 109.50000 418.400000
6424 14487 8564 1 109.50000 418.400000
6424 14487 8565 1 109.50000 418.400000
8564 14487 8565 1 109.50000 418.400000
705 14488 6707 1 109.50000 418.400000
705 14488 6769 1 109.50000 418.400000
705 14488 8566 1 109.50000 418.400000
6707 14488 6769 1 109.50000 418.400000
6707 14488 8566 1 109.50000 418.400000
6769 14488 8566 1 109.50000 418.400000
1883 14489 5101 1 109.50000 418.400000
1883 14489 8171 1 109.50000 418.400000
1883 14489 8567 1 109.50000 418.400000
5101 14489 8171 1 109.50000 418.400000
5101 14489 8567 1 109.50000 418.400000
8171 14489 8567 1 109.50000 418.400000
5752 14490 6385 1 109.50000 418.400000
5752 14490 8568 1 109.50000 418.400000
5752 14490 8569 1 109.50000 418.400000
6385 14490 8568 1 109.50000 418.400000
6385 14490 8569 1 109.50000 418.400000
8568 14490 8569 1 109.50000 418.400000
5541 14491 8570 1 109.50000 418.400000
5541 14491 8571 1 109.50000 418.400000
5541 14491 8572 1 109.50000 418.400000
8570 14491 8571 1 109.50000 418.400000
8570 14491 8572 1 109.50000 418.400000
8571 14491 8572 1 109.50000 418.400000
642 14492 4906 1 109.50000 418.400000
642 14492 7467 1 109.50000 418.400000
642 14492 8100 1 109.50000 418.400000
4906 14492 7467 1 109.50000 418.400000
4906 14492 8100 1 109.50000 418.400000
7467 14492 8100 1 109.50000 418.400000
5440 14493 8573 1 109.50000 418.400000
5440 14493 8574 1 109.50000 418.400000
5440 14493 11204 1 109.50000 418.400000
8573 14493 8574 1 109.50000 418.400000
8573 14493 11204 1 109.50000 418.400000
8574 14493 11204 1 109.50000 418.400000
2530 14494 4395 1 109.50000 418.400000
2530 14494 8318 1 109.50000 418.400000
2530 14494 8575 1 109.50000 418.400000
4395 14494 8318 1 109.50000 418.400000
4395 14494 8575 1 109.50000 418.400000
8318 14494 8575 1 109.50000 418.400000
8576 14495 8577 1 109.50000 418.400000
8576 14495 8578 1 109.50000 418.400000
8576 14495 8579 1 109.50000 418.400000
8577 14495 8578 1 109.50000 418.400000
8577 14495 8579 1 109.50000 418.400000
8578 14495 8579 1 109.50000 418.400000
1545 14496 7839 1 109.50000 418.400000
1545 14496 8580 1 109.50000 418.400000
1545 14496 8581 1 109.50000 418.400000
7839 14496 8580 1 109.50000 418.400000
7839 14496 8581 1 109.50000 418.400000
8580 14496 8581 1 109.50000 418.400000
2306 14497 5192 1 109.50000 418.400000
2306 14497 6231 1 109.50000 418.400000
2306 14497 8582 1 109.50000 418.400000
5192 14497 6231 1 109.50000 418.400000
5192 14497 8582 1 109.50000 418.400000
6231 14497 8582 1 109.50000 418.400000
8583 14498 8584 1 109.50000 418.400000
8583 14498 8585 1 109.50000 418.400000
8583 14498 10727 1 109.50000 418.400000
8584 14498 8585 1 109.50000 418.400000
8584 14498 10727 1 109.50000 418.400000
8585 14498 10727 1 109.50000 418.400000
5568 14499 6462 1 109.50000 418.400000
5568 14499 8586 1 109.50000 418.400000
5568 14499 8587 1 109.50000 418.400000
6462 14499 8586 1 109.50000 418.400000
6462 14499 8587 1 109.50000 418.400000
8586 14499 8587 1 109.50000 418.400000
798 14500 4736 1 109.50000 418.400000
798 14500 8588 1 109.50000 418.400000
798 14500 8589 1 109.50000 418.400000
4736 14500 8588 1 109.50000 418.400000
4736 14500 8589 1 109.50000 418.400000
8588 14500 8589 1 109.50000 418.400000
1371 14501 8590 1 109.50000 418.400000
1371 14501 8591 1 109.50000 418.400000
1371 14501 8592 1 109.50000 418.400000
8590 14501 8591 1 109.50000 418.400000
8590 14501 8592 1 109.50000 418.400000
8591 14501 8592 1 109.50000 418.400000
5445 14502 5446 1 109.50000 418.400000
5445 14502 8594 1 109.50000 418.400000
5445 14502 8595 1 109.50000 418.400000
5446 14502 8594 1 109.50000 418.400000
5446 14502 8595 1 109.50000 418.400000
8594 14502 8595 1 109.50000 418.400000
273 14503 8596 1 109.50000 418.400000
273 14503 8597 1 109.50000 418.400000
273 14503 8598 1 109.50000 418.400000
8596 14503 8597 1 109.50000 418.400000
8596 14503 8598 1 109.50000 418.400000
8597 14503 8598 1 109.50000 418.400000
8068 14504 8599 1 109.50000 418.400000
8068 14504 8600 1 109.50000 418.400000
8068 14504 8601 1 109.50000 418.400000
8599 14504 8600 1 109.50000 418.400000
8599 14504 8601 1 109.50000 418.400000
8600 14504 8601 1 109.50000 418.400000
7823 14505 8244 1 109.50000 418.400000
7823 14505 8602 1 109.50000 418.400000
7823 14505 8603 1 109.50000 418.400000
8244 14505 8602 1 109.50000 418.400000
8244 14505 8603 1 109.50000 418.400000
8602 14505 8603 1 109.50000 418.400000
2359 14506 3926 1 109.50000 418.400000
2359 14506 6933 1 109.50000 418.400000
2359 14506 8125 1 109.50000 418.400000
3926 14506 6933 1 109.50000 418.400000
3926 14506 8125 1 109.50000 418.400000
6933 14506 8125 1 109.50000 418.400000
1249 14507 5587 1 109.50000 418.400000
1249 14507 6876 1 109.50000 418.400000
1249 14507 8604 1 109.50000 418.400000
5587 14507 6876 1 109.50000 418.400000
5587 14507 8604 1 109.50000 418.400000
6876 14507 8604 1 109.50000 418.400000
8605 14508 8606 1 109.50000 418.400000
8605 14508 8607 1 109.50000 418.400000
8605 14508 8608 1 109.50000 418.400000
8606 14508 8607 1 109.50000 418.400000
8606 14508 8608 1 109.50000 418.400000
8607 14508 8608 1 109.50000 418.400000
169 14509 7251 1 109.50000 418.400000
169 14509 7252 1 109.50000 418.400000
169 14509 8609 1 109.50000 418.400000
7251 14509 7252 1 109.50000 418.400000
7251 14509 8609 1 109.50000 418.400000
7252 14509 8609 1 109.50000 418.400000
1911 14510 1912 1 109.50000 418.400000
1911 14510 8610 1 109.50000 418.400000
1911 14510 8611 1 109.50000 418.400000
1912 14510 8610 1 109.50000 418.400000
1912 14510 8611 1 109.50000 418.400000
8610 14510 8611 1 109.50000 418.400000
6155 14511 7907 1 109.50000 418.400000
6155 14511 8613 1 109.50000 418.400000
6155 14511 8614 1 109.50000 418.400000
7907 14511 8613 1 109.50000 418.400000
7907 14511 8614 1 109.50000 418.400000
8613 14511 8614 1 109.50000 418.400000
6228 14512 8041 1 109.50000 418.400000
6228 14512 8615 1 109.50000 418.400000
6228 14512 8616 1 109.50000 418.400000
8041 14512 8615 1 109.50000 418.400000
8041 14512 8616 1 109.50000 418.400000
8615 14512 8616 1 109.50000 418.400000
8617 14513 8618 1 109.50000 418.400000
8617 14513 11215 1 109.50000 418.400000
8617 14513 11279 1 109.50000 418.400000
8618 14513 11215 1 109.50000 418.400000
8618 14513 11279 1 109.50000 418.400000
11215 14513 11279 1 109.50000 418.400000
5526 14514 8555 1 109.50000 418.400000
5526 14514 8619 1 109.50000 418.400000
5526 14514 8620 1 109.50000 418.400000
8555 14514 8619 1 109.50000 418.400000
8555 14514 8620 1 109.50000 418.400000
8619 14514 8620 1 109.50000 418.400000
671 14515 673 1 109.50000 418.400000
671 14515 8623 1 109.50000 418.400000
671 14515 8624 1 109.50000 418.400000
673 14515 8623 1 109.50000 418.400000
673 14515 8624 1 109.50000 418.400000
8623 14515 8624 1 109.50000 418.400000
1089 14516 1175 1 109.50000 418.400000
1089 14516 4769 1 109.50000 418.400000
1089 14516 8625 1 109.50000 418.400000
1175 14516 4769 1 109.50000 418.400000
1175 14516 8625 1 109.50000 418.400000
4769 14516 8625 1 109.50000 418.400000
8626 14517 8627 1 109.50000 418.400000
8626 14517 8628 1 109.50000 418.400000
8626 14517 8629 1 109.50000 418.400000
8627 14517 8628 1 109.50000 418.400000
8627 14517 8629 1 109.50000 418.400000
8628 14517 8629 1 109.50000 418.400000
5249 14518 6101 1 109.50000 418.400000
5249 14518 6759 1 109.50000 418.400000
5249 14518 8630 1 109.50000 418.400000
6101 14518 6759 1 109.50000 418.400000
6101 14518 8630 1 109.50000 418.400000
6759 14518 8630 1 109.50000 418.400000
6154 14519 8631 1 109.50000 418.400000
6154 14519 8632 1 109.50000 418.400000
6154 14519 8633 1 109.50000 418.400000
8631 14519 8632 1 109.50000 418.400000
8631 14519 8633 1 109.50000 418.400000
8632 14519 8633 1 109.50000 418.400000
8634 14520 8635 1 109.50000 418.400000
8634 14520 8636 1 109.50000 418.400000
8634 14520 11554 1 109.50000 418.400000
8635 14520 8636 1 109.50000 418.400000
8635 14520 11554 1 109.50000 418.400000
8636 14520 11554 1 109.50000 418.400000
2753 14521 3208 1 109.50000 418.400000
2753 14521 5620 1 109.50000 418.400000
2753 14521 8639 1 109.50000 418.400000
3208 14521 5620 1 109.50000 418.400000
3208 14521 8639 1 109.50000 418.400000
5620 14521 8639 1 109.50000 418.400000
1431 14522 3863 1 109.50000 418.400000
1431 14522 8640 1 109.50000 418.400000
1431 14522 10134 1 109.50000 418.400000
3863 14522 8640 1 109.50000 418.400000
3863 14522 10134 1 109.50000 418.400000
8640 14522 10134 1 109.50000 418.400000
1885 14523 5835 1 109.50000 418.400000
1885 14523 8641 1 109.50000 418.400000
1885 14523 8642 1 109.50000 418.400000
5835 14523 8641 1 109.50000 418.400000
5835 14523 8642 1 109.50000 418.400000
8641 14523 8642 1 109.50000 418.400000
1953 14524 7589 1 109.50000 418.400000
1953 14524 8643 1 109.50000 418.400000
1953 14524 8644 1 109.50000 418.400000
7589 14524 8643 1 109.50000 418.400000
7589 14524 8644 1 109.50000 418.400000
8643 14524 8644 1 109.50000 418.400000
3541 14525 4399 1 109.50000 418.400000
3541 14525 8645 1 109.50000 418.400000
3541 14525 8646 1 109.50000 418.400000
4399 14525 8645 1 109.50000 418.400000
4399 14525 8646 1 109.50000 418.400000
8645 14525 8646 1 109.50000 418.400000
6899 14526 8647 1 109.50000 418.400000
6899 14526 8648 1 109.50000 418.400000
6899 14526 11285 1 109.50000 418.400000
8647 14526 8648 1 109.50000 418.400000
8647 14526 11285 1 109.50000 418.400000
8648 14526 11285 1 109.50000 418.400000
1599 14527 1771 1 109.50000 418.400000
1599 14527 8649 1 109.50000 418.400000
1599 14527 8650 1 109.50000 418.400000
1771 14527 8649 1 109.50000 418.400000
1771 14527 8650 1 109.50000 418.400000
8649 14527 8650 1 109.50000 418.400000
1353 14528 5796 1 109.50000 418.400000
1353 14528 7943 1 109.50000 418.400000
1353 14528 8651 1 109.50000 418.400000
5796 14528 7943 1 109.50000 418.400000
5796 14528 8651 1 109.50000 418.400000
7943 14528 8651 1 109.50000 418.400000
3022 14529 4984 1 109.50000 418.400000
3022 14529 8386 1 109.50000 418.400000
3022 14529 8652 1 109.50000 418.400000
4984 14529 8386 1 109.50000 418.400000
4984 14529 8652 1 109.50000 418.400000
8386 14529 8652 1 109.50000 418.400000
2079 14530 3092 1 109.50000 418.400000
2079 14530 8653 1 109.50000 418.400000
2079 14530 8654 1 109.50000 418.400000
3092 14530 8653 1 109.50000 418.400000
3092 14530 8654 1 109.50000 418.400000
8653 14530 8654 1 109.50000 418.400000
2423 14531 5314 1 109.50000 418.400000
2423 14531 8655 1 109.50000 418.400000
2423 14531 8656 1 109.50000 418.400000
5314 14531 8655 1 109.50000 418.400000
5314 14531 8656 1 109.50000 418.400000
8655 14531 8656 1 109.50000 418.400000
6224 14532 8657 1 109.50000 418.400000
6224 14532 8658 1 109.50000 418.400000
6224 14532 11420 1 109.50000 418.400000
8657 14532 8658 1 109.50000 418.400000
8657 14532 11420 1 109.50000 418.400000
8658 14532 11420 1 109.50000 418.400000
349 14533 4436 1 109.50000 418.400000
349 14533 8231 1 109.50000 418.400000
349 14533 8659 1 109.50000 418.400000
4436 14533 8231 1 109.50000 418.400000
4436 14533 8659 1 109.50000 418.400000
8231 14533 8659 1 109.50000 418.400000
3226 14534 6832 1 109.50000 418.400000
3226 14534 8660 1 109.50000 418.400000
3226 14534 8661 1 109.50000 418.400000
6832 14534 8660 1 109.50000 418.400000
6832 14534 8661 1 109.50000 418.400000
8660 14534 8661 1 109.50000 418.400000
8662 14535 8663 1 109.50000 418.400000
8662 14535 8664 1 109.50000 418.400000
8662 14535 8665 1 109.50000 418.400000
8663 14535 8664 1 109.50000 418.400000
8663 14535 8665 1 109.50000 418.400000
8664 14535 8665 1 109.50000 418.400000
2810 14536 7035 1 109.50000 418.400000
2810 14536 8668 1 109.50000 418.400000
2810 14536 10862 1 109.50000 418.400000
7035 14536 8668 1 109.50000 418.400000
7035 14536 10862 1 109.50000 418.400000
8668 14536 10862 1 109.50000 418.400000
2931 14537 4113 1 109.50000 418.400000
2931 14537 7501 1 109.50000 418.400000
2931 14537 8669 1 109.50000 418.400000
4113 14537 7501 1 109.50000 418.400000
4113 14537 8669 1 109.50000 418.400000
7501 14537 8669 1 109.50000 418.400000
771 14538 4490 1 109.50000 418.400000
771 14538 8670 1 109.50000 418.400000
771 14538 8671 1 109.50000 418.400000
4490 14538 8670 1 109.50000 418.400000
4490 14538 8671 1 109.50000 418.400000
8670 14538 8671 1 109.50000 418.400000
2387 14539 4945 1 109.50000 418.400000
2387 14539 5421 1 109.50000 418.400000
2387 14539 8484 1 109.50000 418.400000
4945 14539 5421 1 109.50000 418.400000
4945 14539 8484 1 109.50000 418.400000
5421 14539 8484 1 109.50000 418.400000
3478 14540 7440 1 109.50000 418.400000
3478 14540 8672 1 109.50000 418.400000
3478 14540 11162 1 109.50000 418.400000
7440 14540 8672 1 109.50000 418.400000
7440 14540 11162 1 109.50000 418.400000
8672 14540 11162 1 109.50000 418.400000
2137 14541 2853 1 109.50000 418.400000
2137 14541 8673 1 109.50000 418.400000
2137 14541 8674 1 109.50000 418.400000
2853 14541 8673 1 109.50000 418.400000
2853 14541 8674 1 109.50000 418.400000
8673 14541 8674 1 109.50000 418.400000
832 14542 8476 1 109.50000 418.400000
832 14542 8528 1 109.50000 418.400000
832 14542 8628 1 109.50000 418.400000
8476 14542 8528 1 109.50000 418.400000
8476 14542 8628 1 109.50000 418.400000
8528 14542 8628 1 109.50000 418.400000
7612 14543 8675 1 109.50000 418.400000
7612 14543 8676 1 109.50000 418.400000
7612 14543 8677 1 109.50000 418.400000
8675 14543 8676 1 109.50000 418.400000
8675 14543 8677 1 109.50000 418.400000
8676 14543 8677 1 109.50000 418.400000
2856 14544 6536 1 109.50000 418.400000
2856 14544 8594 1 109.50000 418.400000
2856 14544 8678 1 109.50000 418.400000
6536 14544 8594 1 109.50000 418.400000
6536 14544 8678 1 109.50000 418.400000
8594 14544 8678 1 109.50000 418.400000
1506 14545 2943 1 109.50000 418.400000
1506 14545 8680 1 109.50000 418.400000
1506 14545 10884 1 109.50000 418.400000
2943 14545 8680 1 109.50000 418.400000
2943 14545 10884 1 109.50000 418.400000
8680 14545 10884 1 109.50000 418.400000
8681 14546 8682 1 109.50000 418.400000
8681 14546 8683 1 109.50000 418.400000
8681 14546 8684 1 109.50000 418.400000
8682 14546 8683 1 109.50000 418.400000
8682 14546 8684 1 109.50000 418.400000
8683 14546 8684 1 109.50000 418.400000
5028 14547 5781 1 109.50000 418.400000
5028 14547 5932 1 109.50000 418.400000
5028 14547 8685 1 109.50000 418.400000
5781 14547 5932 1 109.50000 418.400000
5781 14547 8685 1 109.50000 418.400000
5932 14547 8685 1 109.50000 418.400000
6935 14548 8686 1 109.50000 418.400000
6935 14548 8687 1 109.50000 418.400000
6935 14548 9384 1 109.50000 418.400000
8686 14548 8687 1 109.50000 418.400000
8686 14548 9384 1 109.50000 418.400000
8687 14548 9384 1 109.50000 418.400000
37 14549 5203 1 109.50000 418.400000
37 14549 8688 1 109.50000 418.400000
37 14549 8689 1 109.50000 418.400000
5203 14549 8688 1 109.50000 418.400000
5203 14549 8689 1 109.50000 418.400000
8688 14549 8689 1 109.50000 418.400000
1832 14550 7406 1 109.50000 418.400000
1832 14550 7799 1 109.50000 418.400000
1832 14550 8690 1 109.50000 418.400000
7406 14550 7799 1 109.50000 418.400000
7406 14550 8690 1 109.50000 418.400000
7799 14550 8690 1 109.50000 418.400000
8691 14551 8692 1 109.50000 418.400000
8691 14551 8693 1 109.50000 418.400000
8691 14551 8694 1 109.50000 418.400000
8692 14551 8693 1 109.50000 418.400000
8692 14551 8694 1 109.50000 418.400000
8693 14551 8694 1 109.50000 418.400000
747 14552 7297 1 109.50000 418.400000
747 14552 8211 1 109.50000 418.400000
747 14552 8695 1 109.50000 418.400000
7297 14552 8211 1 109.50000 418.400000
7297 14552 8695 1 109.50000 418.400000
8211 14552 8695 1 109.50000 418.400000
3833 14553 5545 1 109.50000 418.400000
3833 14553 8696 1 109.50000 418.400000
3833 14553 9940 1 109.50000 418.400000
5545 14553 8696 1 109.50000 418.400000
5545 14553 9940 1 109.50000 418.400000
8696 14553 9940 1 109.50000 418.400000
5304 14554 6528 1 109.50000 418.400000
5304 14554 7394 1 109.50000 418.400000
5304 14554 8697 1 109.50000 418.400000
6528 14554 7394 1 109.50000 418.400000
6528 14554 8697 1 109.50000 418.400000
7394 14554 8697 1 109.50000 418.400000
402 14555 6739 1 109.50000 418.400000
402 14555 8698 1 109.50000 418.400000
402 14555 8699 1 109.50000 418.400000
6739 14555 8698 1 109.50000 418.400000
6739 14555 8699 1 109.50000 418.400000
8698 14555 8699 1 109.50000 418.400000
6600 14556 8700 1 109.50000 418.400000
6600 14556 8701 1 109.50000 418.400000
6600 14556 11169 1 109.50000 418.400000
8700 14556 8701 1 109.50000 418.400000
8700 14556 11169 1 109.50000 418.400000
8701 14556 11169 1 109.50000 418.400000
649 14557 1639 1 109.50000 418.400000
649 14557 8702 1 109.50000 418.400000
649 14557 8703 1 109.50000 418.400000
1639 14557 8702 1 109.50000 418.400000
1639 14557 8703 1 109.50000 418.400000
8702 14557 8703 1 109.50000 418.400000
1798 14558 6143 1 109.50000 418.400000
1798 14558 8704 1 109.50000 418.400000
1798 14558 8705 1 109.50000 418.400000
6143 14558 8704 1 109.50000 418.400000
6143 14558 8705 1 109.50000 418.400000
8704 14558 8705 1 109.50000 418.400000
3482 14559 3579 1 109.50000 418.400000
3482 14559 8504 1 109.50000 418.400000
3482 14559 8706 1 109.50000 418.400000
3579 14559 8504 1 109.50000 418.400000
3579 14559 8706 1 109.50000 418.400000
8504 14559 8706 1 109.50000 418.400000
1398 14560 3999 1 109.50000 418.400000
1398 14560 6183 1 109.50000 418.400000
1398 14560 7603 1 109.50000 418.400000
3999 14560 6183 1 109.50000 418.400000
3999 14560 7603 1 109.50000 418.400000
6183 14560 7603 1 109.50000 418.400000
4249 14561 8707 1 109.50000 418.400000
4249 14561 8708 1 109.50000 418.400000
4249 14561 8709 1 109.50000 418.400000
8707 14561 8708 1 109.50000 418.400000
8707 14561 8709 1 109.50000 418.400000
8708 14561 8709 1 109.50000 418.400000
7706 14562 7905 1 109.50000 418.400000
7706 14562 8710 1 109.50000 418.400000
7706 14562 8711 1 109.50000 418.400000
7905 14562 8710 1 109.50000 418.400000
7905 14562 8711 1 109.50000 418.400000
8710 14562 8711 1 109.50000 418.400000
3113 14563 4742 1 109.50000 418.400000
3113 14563 7215 1 109.50000 418.400000
3113 14563 8712 1 109.50000 418.400000
4742 14563 7215 1 109.50000 418.400000
4742 14563 8712 1 109.50000 418.400000
7215 14563 8712 1 109.50000 418.400000
20 14564 1035 1 109.50000 418.400000
20 14564 8713 1 109.50000 418.400000
20 14564 8714 1 109.50000 418.400000
1035 14564 8713 1 109.50000 418.400000
1035 14564 8714 1 109.50000 418.400000
8713 14564 8714 1 109.50000 418.400000
2874 14565 6910 1 109.50000 418.400000
2874 14565 7025 1 109.50000 418.400000
2874 14565 8715 1 109.50000 418.400000
6910 14565 7025 1 109.50000 418.400000
6910 14565 8715 1 109.50000 418.400000
7025 14565 8715 1 109.50000 418.400000
3118 14566 8716 1 109.50000 418.400000
3118 14566 8717 1 109.50000 418.400000
3118 14566 8718 1 109.50000 418.400000
8716 14566 8717 1 109.50000 418.400000
8716 14566 8718 1 109.50000 418.400000
8717 14566 8718 1 109.50000 418.400000
706 14567 5985 1 109.50000 418.400000
706 14567 8719 1 109.50000 418.400000
706 14567 8720 1 109.50000 418.400000
5985 14567 8719 1 109.50000 418.400000
5985 14567 8720 1 109.50000 418.400000
8719 14567 8720 1 109.50000 418.400000
381 14568 5281 1 109.50000 418.400000
381 14568 8721 1 109.50000 418.400000
381 14568 8722 1 109.50000 418.400000
5281 14568 8721 1 109.50000 418.400000
5281 14568 8722 1 109.50000 418.400000
8721 14568 8722 1 109.50000 418.400000
2622 14569 8723 1 109.50000 418.400000
2622 14569 8724 1 109.50000 418.400000
2622 14569 8725 1 109.50000 418.400000
8723 14569 8724 1 109.50000 418.400000
8723 14569 8725 1 109.50000 418.400000
8724 14569 8725 1 109.50000 418.400000
2936 14570 8227 1 109.50000 418.400000
2936 14570 8726 1 109.50000 418.400000
2936 14570 8727 1 109.50000 418.400000
8227 14570 8726 1 109.50000 418.400000
8227 14570 8727 1 109.50000 418.400000
8726 14570 8727 1 109.50000 418.400000
3641 14571 8728 1 109.50000 418.400000
3641 14571 8729 1 109.50000 418.400000
3641 14571 8730 1 109.50000 418.400000
8728 14571 8729 1 109.50000 418.400000
8728 14571 8730 1 109.50000 418.400000
8729 14571 8730 1 109.50000 418.400000
3518 14572 8731 1 109.50000 418.400000
3518 14572 8732 1 109.50000 418.400000
3518 14572 11353 1 109.50000 418.400000
8731 14572 8732 1 109.50000 418.400000
8731 14572 11353 1 109.50000 418.400000
8732 14572 11353 1 109.50000 418.400000
1814 14573 7104 1 109.50000 418.400000
1814 14573 8287 1 109.50000 418.400000
1814 14573 8733 1 109.50000 418.400000
7104 14573 8287 1 109.50000 418.400000
7104 14573 8733 1 109.50000 418.400000
8287 14573 8733 1 109.50000 418.400000
967 14574 6867 1 109.50000 418.400000
967 14574 6869 1 109.50000 418.400000
967 14574 8734 1 109.50000 418.400000
6867 14574 6869 1 109.50000 418.400000
6867 14574 8734 1 109.50000 418.400000
6869 14574 8734 1 109.50000 418.400000
2655 14575 2844 1 109.50000 418.400000
2655 14575 8579 1 109.50000 418.400000
2655 14575 8736 1 109.50000 418.400000
2844 14575 8579 1 109.50000 418.400000
2844 14575 8736 1 109.50000 418.400000
8579 14575 8736 1 109.50000 418.400000
411 14576 7570 1 109.50000 418.400000
411 14576 7571 1 109.50000 418.400000
411 14576 8737 1 109.50000 418.400000
7570 14576 7571 1 109.50000 418.400000
7570 14576 8737 1 109.50000 418.400000
7571 14576 8737 1 109.50000 418.400000
7511 14577 8738 1 109.50000 418.400000
7511 14577 8739 1 109.50000 418.400000
7511 14577 8740 1 109.50000 418.400000
8738 14577 8739 1 109.50000 418.400000
8738 14577 8740 1 109.50000 418.400000
8739 14577 8740 1 109.50000 418.400000
5110 14578 7513 1 109.50000 418.400000
5110 14578 7514 1 109.50000 418.400000
5110 14578 8741 1 109.50000 418.400000
7513 14578 7514 1 109.50000 418.400000
7513 14578 8741 1 109.50000 418.400000
7514 14578 8741 1 109.50000 418.400000
3764 14579 7088 1 109.50000 418.400000
3764 14579 8742 1 109.50000 418.400000
3764 14579 8743 1 109.50000 418.400000
7088 14579 8742 1 109.50000 418.400000
7088 14579 8743 1 109.50000 418.400000
8742 14579 8743 1 109.50000 418.400000
486 14580 7797 1 109.50000 418.400000
486 14580 8744 1 109.50000 418.400000
486 14580 8745 1 109.50000 418.400000
7797 14580 8744 1 109.50000 418.400000
7797 14580 8745 1 109.50000 418.400000
8744 14580 8745 1 109.50000 418.400000
3397 14581 8419 1 109.50000 418.400000
3397 14581 8746 1 109.50000 418.400000
3397 14581 10677 1 109.50000 418.400000
8419 14581 8746 1 109.50000 418.400000
8419 14581 10677 1 109.50000 418.400000
8746 14581 10677 1 109.50000 418.400000
653 14582 3264 1 109.50000 418.400000
653 14582 7669 1 109.50000 418.400000
653 14582 8711 1 109.50000 418.400000
3264 14582 7669 1 109.50000 418.400000
3264 14582 8711 1 109.50000 418.400000
7669 14582 8711 1 109.50000 418.400000
2674 14583 8747 1 109.50000 418.400000
2674 14583 8748 1 109.50000 418.400000
2674 14583 8749 1 109.50000 418.400000
8747 14583 8748 1 109.50000 418.400000
8747 14583 8749 1 109.50000 418.400000
8748 14583 8749 1 109.50000 418.400000
618 14584 3405 1 109.50000 418.400000
618 14584 4704 1 109.50000 418.400000
618 14584 8750 1 109.50000 418.400000
3405 14584 4704 1 109.50000 418.400000
3405 14584 8750 1 109.50000 418.400000
4704 14584 8750 1 109.50000 418.400000
2391 14585 4154 1 109.50000 418.400000
2391 14585 4731 1 109.50000 418.400000
2391 14585 8751 1 109.50000 418.400000
4154 14585 4731 1 109.50000 418.400000
4154 14585 8751 1 109.50000 418.400000
4731 14585 8751 1 109.50000 418.400000
2061 14586 4164 1 109.50000 418.400000
2061 14586 8752 1 109.50000 418.400000
2061 14586 8753 1 109.50000 418.400000
4164 14586 8752 1 109.50000 418.400000
4164 14586 8753 1 109.50000 418.400000
8752 14586 8753 1 109.50000 418.400000
5650 14587 8754 1 109.50000 418.400000
5650 14587 8755 1 109.50000 418.400000
5650 14587 8756 1 109.50000 418.400000
8754 14587 8755 1 109.50000 418.400000
8754 14587 8756 1 109.50000 418.400000
8755 14587 8756 1 109.50000 418.400000
2772 14588 6264 1 109.50000 418.400000
2772 14588 6709 1 109.50000 418.400000
2772 14588 6946 1 109.50000 418.400000
6264 14588 6709 1 109.50000 418.400000
6264 14588 6946 1 109.50000 418.400000
6709 14588 6946 1 109.50000 418.400000
4563 14589 5495 1 109.50000 418.400000
4563 14589 8752 1 109.50000 418.400000
4563 14589 8757 1 109.50000 418.400000
5495 14589 8752 1 109.50000 418.400000
5495 14589 8757 1 109.50000 418.400000
8752 14589 8757 1 109.50000 418.400000
1280 14590 2321 1 109.50000 418.400000
1280 14590 8758 1 109.50000 418.400000
1280 14590 8759 1 109.50000 418.400000
2321 14590 8758 1 109.50000 418.400000
2321 14590 8759 1 109.50000 418.400000
8758 14590 8759 1 109.50000 418.400000
2009 14591 5572 1 109.50000 418.400000
2009 14591 6924 1 109.50000 418.400000
2009 14591 11267 1 109.50000 418.400000
5572 14591 6924 1 109.50000 418.400000
5572 14591 11267 1 109.50000 418.400000
6924 14591 11267 1 109.50000 418.400000
6932 14592 8760 1 109.50000 418.400000
6932 14592 8761 1 109.50000 418.400000
6932 14592 11182 1 109.50000 418.400000
8760 14592 8761 1 109.50000 418.400000
8760 14592 11182 1 109.50000 418.400000
8761 14592 11182 1 109.50000 418.400000
1486 14593 3674 1 109.50000 418.400000
1486 14593 8031 1 109.50000 418.400000
1486 14593 8762 1 109.50000 418.400000
3674 14593 8031 1 109.50000 418.400000
3674 14593 8762 1 109.50000 418.400000
8031 14593 8762 1 109.50000 418.400000
1469 14594 7938 1 109.50000 418.400000
1469 14594 8545 1 109.50000 418.400000
1469 14594 8763 1 109.50000 418.400000
7938 14594 8545 1 109.50000 418.400000
7938 14594 8763 1 109.50000 418.400000
8545 14594 8763 1 109.50000 418.400000
7496 14595 8175 1 109.50000 418.400000
7496 14595 8764 1 109.50000 418.400000
7496 14595 8765 1 109.50000 418.400000
8175 14595 8764 1 109.50000 418.400000
8175 14595 8765 1 109.50000 418.400000
8764 14595 8765 1 109.50000 418.400000
1686 14596 8093 1 109.50000 418.400000
1686 14596 11306 1 109.50000 418.400000
1686 14596 11588 1 109.50000 418.400000
8093 14596 11306 1 109.50000 418.400000
8093 14596 11588 1 109.50000 418.400000
11306 14596 11588 1 109.50000 418.400000
6458 14597 6893 1 109.50000 418.400000
6458 14597 8766 1 109.50000 418.400000
6458 14597 8767 1 109.50000 418.400000
6893 14597 8766 1 109.50000 418.400000
6893 14597 8767 1 109.50000 418.400000
8766 14597 8767 1 109.50000 418.400000
4397 14598 4461 1 109.50000 418.400000
4397 14598 8768 1 109.50000 418.400000
4397 14598 8769 1 109.50000 418.400000
4461 14598 8768 1 109.50000 418.400000
4461 14598 8769 1 109.50000 418.400000
8768 14598 8769 1 109.50000 418.400000
6048 14599 6550 1 109.50000 418.400000
6048 14599 8770 1 109.50000 418.400000
6048 14599 8771 1 109.50000 418.400000
6550 14599 8770 1 109.50000 418.400000
6550 14599 8771 1 109.50000 418.400000
8770 14599 8771 1 109.50000 418.400000
318 14600 4157 1 109.50000 418.400000
318 14600 6701 1 109.50000 418.400000
318 14600 8747 1 109.50000 418.400000
4157 14600 6701 1 109.50000 418.400000
4157 14600 8747 1 109.50000 418.400000
6701 14600 8747 1 109.50000 418.400000
5284 14601 5492 1 109.50000 418.400000
5284 14601 8764 1 109.50000 418.400000
5284 14601 8772 1 109.50000 418.400000
5492 14601 8764 1 109.50000 418.400000
5492 14601 8772 1 109.50000 418.400000
8764 14601 8772 1 109.50000 418.400000
2187 14602 4069 1 109.50000 418.400000
2187 14602 8773 1 109.50000 418.400000
2187 14602 8774 1 109.50000 418.400000
4069 14602 8773 1 109.50000 418.400000
4069 14602 8774 1 109.50000 418.400000
8773 14602 8774 1 109.50000 418.400000
33 14603 1850 1 109.50000 418.400000
33 14603 8775 1 109.50000 418.400000
33 14603 8776 1 109.50000 418.400000
1850 14603 8775 1 109.50000 418.400000
1850 14603 8776 1 109.50000 418.400000
8775 14603 8776 1 109.50000 418.400000
4330 14604 6695 1 109.50000 418.400000
4330 14604 8777 1 109.50000 418.400000
4330 14604 11441 1 109.50000 418.400000
6695 14604 8777 1 109.50000 418.400000
6695 14604 11441 1 109.50000 418.400000
8777 14604 11441 1 109.50000 418.400000
1879 14605 7414 1 109.50000 418.400000
1879 14605 8778 1 109.50000 418.400000
1879 14605 8779 1 109.50000 418.400000
7414 14605 8778 1 109.50000 418.400000
7414 14605 8779 1 109.50000 418.400000
8778 14605 8779 1 109.50000 418.400000
2786 14606 8780 1 109.50000 418.400000
2786 14606 8781 1 109.50000 418.400000
2786 14606 8782 1 109.50000 418.400000
8780 14606 8781 1 109.50000 418.400000
8780 14606 8782 1 109.50000 418.400000
8781 14606 8782 1 109.50000 418.400000
429 14607 5607 1 109.50000 418.400000
429 14607 8783 1 109.50000 418.400000
429 14607 8784 1 109.50000 418.400000
5607 14607 8783 1 109.50000 418.400000
5607 14607 8784 1 109.50000 418.400000
8783 14607 8784 1 109.50000 418.400000
3006 14608 5305 1 109.50000 418.400000
3006 14608 6641 1 109.50000 418.400000
3006 14608 8785 1 109.50000 418.400000
5305 14608 6641 1 109.50000 418.400000
5305 14608 8785 1 109.50000 418.400000
6641 14608 8785 1 109.50000 418.400000
3067 14609 5005 1 109.50000 418.400000
3067 14609 8786 1 109.50000 418.400000
3067 14609 8787 1 109.50000 418.400000
5005 14609 8786 1 109.50000 418.400000
5005 14609 8787 1 109.50000 418.400000
8786 14609 8787 1 109.50000 418.400000
5212 14610 8674 1 109.50000 418.400000
5212 14610 8788 1 109.50000 418.400000
5212 14610 8789 1 109.50000 418.400000
8674 14610 8788 1 109.50000 418.400000
8674 14610 8789 1 109.50000 418.400000
8788 14610 8789 1 109.50000 418.400000
2763 14611 8790 1 109.50000 418.400000
2763 14611 8791 1 109.50000 418.400000
2763 14611 8792 1 109.50000 418.400000
8790 14611 8791 1 109.50000 418.400000
8790 14611 8792 1 109.50000 418.400000
8791 14611 8792 1 109.50000 418.400000
4645 14612 8793 1 109.50000 418.400000
4645 14612 8794 1 109.50000 418.400000
4645 14612 11234 1 109.50000 418.400000
8793 14612 8794 1 109.50000 418.400000
8793 14612 11234 1 109.50000 418.400000
8794 14612 11234 1 109.50000 418.400000
5631 14613 5674 1 109.50000 418.400000
5631 14613 6092 1 109.50000 418.400000
5631 14613 8795 1 109.50000 418.400000
5674 14613 6092 1 109.50000 418.400000
5674 14613 8795 1 109.50000 418.400000
6092 14613 8795 1 109.50000 418.400000
3610 14614 6521 1 109.50000 418.400000
3610 14614 8796 1 109.50000 418.400000
3610 14614 8797 1 109.50000 418.400000
6521 14614 8796 1 109.50000 418.400000
6521 14614 8797 1 109.50000 418.400000
8796 14614 8797 1 109.50000 418.400000
4932 14615 6306 1 109.50000 418.400000
4932 14615 8798 1 109.50000 418.400000
4932 14615 8799 1 109.50000 418.400000
6306 14615 8798 1 109.50000 418.400000
6306 14615 8799 1 109.50000 418.400000
8798 14615 8799 1 109.50000 418.400000
7555 14616 8800 1 109.50000 418.400000
7555 14616 8801 1 109.50000 418.400000
7555 14616 8802 1 109.50000 418.400000
8800 14616 8801 1 109.50000 418.400000
8800 14616 8802 1 109.50000 418.400000
8801 14616 8802 1 109.50000 418.400000
215 14617 6196 1 109.50000 418.400000
215 14617 8803 1 109.50000 418.400000
215 14617 8804 1 109.50000 418.400000
6196 14617 8803 1 109.50000 418.400000
6196 14617 8804 1 109.50000 418.400000
8803 14617 8804 1 109.50000 418.400000
1954 14618 8805 1 109.50000 418.400000
1954 14618 8806 1 109.50000 418.400000
1954 14618 8807 1 109.50000 418.400000
8805 14618 8806 1 109.50000 418.400000
8805 14618 8807 1 109.50000 418.400000
8806 14618 8807 1 109.50000 418.400000
5615 14619 5670 1 109.50000 418.400000
5615 14619 5821 1 109.50000 418.400000
5615 14619 8808 1 109.50000 418.400000
5670 14619 5821 1 109.50000 418.400000
5670 14619 8808 1 109.50000 418.400000
5821 14619 8808 1 109.50000 418.400000
8804 14620 8809 1 109.50000 418.400000
8804 14620 8810 1 109.50000 418.400000
8804 14620 8811 1 109.50000 418.400000
8809 14620 8810 1 109.50000 418.400000
8809 14620 8811 1 109.50000 418.400000
8810 14620 8811 1 109.50000 418.400000
5206 14621 5207 1 109.50000 418.400000
5206 14621 6503 1 109.50000 418.400000
5206 14621 8812 1 109.50000 418.400000
5207 14621 6503 1 109.50000 418.400000
5207 14621 8812 1 109.50000 418.400000
6503 14621 8812 1 109.50000 418.400000
7218 14622 8371 1 109.50000 418.400000
7218 14622 8813 1 109.50000 418.400000
7218 14622 11144 1 109.50000 418.400000
8371 14622 8813 1 109.50000 418.400000
8371 14622 11144 1 109.50000 418.400000
8813 14622 11144 1 109.50000 418.400000
3838 14623 4964 1 109.50000 418.400000
3838 14623 6719 1 109.50000 418.400000
3838 14623 8814 1 109.50000 418.400000
4964 14623 6719 1 109.50000 418.400000
4964 14623 8814 1 109.50000 418.400000
6719 14623 8814 1 109.50000 418.400000
4899 14624 4900 1 109.50000 418.400000
4899 14624 7224 1 109.50000 418.400000
4899 14624 8816 1 109.50000 418.400000
4900 14624 7224 1 109.50000 418.400000
4900 14624 8816 1 109.50000 418.400000
7224 14624 8816 1 109.50000 418.400000
5338 14625 6780 1 109.50000 418.400000
5338 14625 6781 1 109.50000 418.400000
5338 14625 8817 1 109.50000 418.400000
6780 14625 6781 1 109.50000 418.400000
6780 14625 8817 1 109.50000 418.400000
6781 14625 8817 1 109.50000 418.400000
7548 14626 8818 1 109.50000 418.400000
7548 14626 8819 1 109.50000 418.400000
7548 14626 9922 1 109.50000 418.400000
8818 14626 8819 1 109.50000 418.400000
8818 14626 9922 1 109.50000 418.400000
8819 14626 9922 1 109.50000 418.400000
4684 14627 5275 1 109.50000 418.400000
4684 14627 7412 1 109.50000 418.400000
4684 14627 8820 1 109.50000 418.400000
5275 14627 7412 1 109.50000 418.400000
5275 14627 8820 1 109.50000 418.400000
7412 14627 8820 1 109.50000 418.400000
5182 14628 8821 1 109.50000 418.400000
5182 14628 11143 1 109.50000 418.400000
5182 14628 11253 1 109.50000 418.400000
8821 14628 11143 1 109.50000 418.400000
8821 14628 11253 1 109.50000 418.400000
11143 14628 11253 1 109.50000 418.400000
7450 14629 8823 1 109.50000 418.400000
7450 14629 8824 1 109.50000 418.400000
7450 14629 11006 1 109.50000 418.400000
8823 14629 8824 1 109.50000 418.400000
8823 14629 11006 1 109.50000 418.400000
8824 14629 11006 1 109.50000 418.400000
5315 14630 5813 1 109.50000 418.400000
5315 14630 8307 1 109.50000 418.400000
5315 14630 8825 1 109.50000 418.400000
5813 14630 8307 1 109.50000 418.400000
5813 14630 8825 1 109.50000 418.400000
8307 14630 8825 1 109.50000 418.400000
3210 14631 7543 1 109.50000 418.400000
3210 14631 8666 1 109.50000 418.400000
3210 14631 8667 1 109.50000 418.400000
7543 14631 8666 1 109.50000 418.400000
7543 14631 8667 1 109.50000 418.400000
8666 14631 8667 1 109.50000 418.400000
2605 14632 4304 1 109.50000 418.400000
2605 14632 11247 1 109.50000 418.400000
2605 14632 11379 1 109.50000 418.400000
4304 14632 11247 1 109.50000 418.400000
4304 14632 11379 1 109.50000 418.400000
11247 14632 11379 1 109.50000 418.400000
325 14633 4040 1 109.50000 418.400000
325 14633 6439 1 109.50000 418.400000
325 14633 8642 1 109.50000 418.400000
4040 14633 6439 1 109.50000 418.400000
4040 14633 8642 1 109.50000 418.400000
6439 14633 8642 1 109.50000 418.400000
47 14634 217 1 109.50000 418.400000
47 14634 7159 1 109.50000 418.400000
47 14634 7470 1 109.50000 418.400000
217 14634 7159 1 109.50000 418.400000
217 14634 7470 1 109.50000 418.400000
7159 14634 7470 1 109.50000 418.400000
3461 14635 8827 1 109.50000 418.400000
3461 14635 8828 1 109.50000 418.400000
3461 14635 8829 1 109.50000 418.400000
8827 14635 8828 1 109.50000 418.400000
8827 14635 8829 1 109.50000 418.400000
8828 14635 8829 1 109.50000 418.400000
1007 14636 6259 1 109.50000 418.400000
1007 14636 6357 1 109.50000 418.400000
1007 14636 8830 1 109.50000 418.400000
6259 14636 6357 1 109.50000 418.400000
6259 14636 8830 1 109.50000 418.400000
6357 14636 8830 1 109.50000 418.400000
8831 14637 8832 1 109.50000 418.400000
8831 14637 8833 1 109.50000 418.400000
8831 14637 8834 1 109.50000 418.400000
8832 14637 8833 1 109.50000 418.400000
8832 14637 8834 1 109.50000 418.400000
8833 14637 8834 1 109.50000 418.400000
3020 14638 5070 1 109.50000 418.400000
3020 14638 5323 1 109.50000 418.400000
3020 14638 8835 1 109.50000 418.400000
5070 14638 5323 1 109.50000 418.400000
5070 14638 8835 1 109.50000 418.400000
5323 14638 8835 1 109.50000 418.400000
1606 14639 3257 1 109.50000 418.400000
1606 14639 4614 1 109.50000 418.400000
1606 14639 8836 1 109.50000 418.400000
3257 14639 4614 1 109.50000 418.400000
3257 14639 8836 1 109.50000 418.400000
4614 14639 8836 1 109.50000 418.400000
1094 14640 4980 1 109.50000 418.400000
1094 14640 5957 1 109.50000 418.400000
1094 14640 8837 1 109.50000 418.400000
4980 14640 5957 1 109.50000 418.400000
4980 14640 8837 1 109.50000 418.400000
5957 14640 8837 1 109.50000 418.400000
1254 14641 8838 1 109.50000 418.400000
1254 14641 8839 1 109.50000 418.400000
1254 14641 8840 1 109.50000 418.400000
8838 14641 8839 1 109.50000 418.400000
8838 14641 8840 1 109.50000 418.400000
8839 14641 8840 1 109.50000 418.400000
6131 14642 6636 1 109.50000 418.400000
6131 14642 8841 1 109.50000 418.400000
6131 14642 8842 1 109.50000 418.400000
6636 14642 8841 1 109.50000 418.400000
6636 14642 8842 1 109.50000 418.400000
8841 14642 8842 1 109.50000 418.400000
7892 14643 8094 1 109.50000 418.400000
7892 14643 8843 1 109.50000 418.400000
7892 14643 8844 1 109.50000 418.400000
8094 14643 8843 1 109.50000 418.400000
8094 14643 8844 1 109.50000 418.400000
8843 14643 8844 1 109.50000 418.400000
1482 14644 4548 1 109.50000 418.400000
1482 14644 8845 1 109.50000 418.400000
1482 14644 8846 1 109.50000 418.400000
4548 14644 8845 1 109.50000 418.400000
4548 14644 8846 1 109.50000 418.400000
8845 14644 8846 1 109.50000 418.400000
5208 14645 6167 1 109.50000 418.400000
5208 14645 6170 1 109.50000 418.400000
5208 14645 8847 1 109.50000 418.400000
6167 14645 6170 1 109.50000 418.400000
6167 14645 8847 1 109.50000 418.400000
6170 14645 8847 1 109.50000 418.400000
3756 14646 4192 1 109.50000 418.400000
3756 14646 5933 1 109.50000 418.400000
3756 14646 8849 1 109.50000 418.400000
4192 14646 5933 1 109.50000 418.400000
4192 14646 8849 1 109.50000 418.400000
5933 14646 8849 1 109.50000 418.400000
1768 14647 4525 1 109.50000 418.400000
1768 14647 5084 1 109.50000 418.400000
1768 14647 8850 1 109.50000 418.400000
4525 14647 5084 1 109.50000 418.400000
4525 14647 8850 1 109.50000 418.400000
5084 14647 8850 1 109.50000 418.400000
4701 14648 7064 1 109.50000 418.400000
4701 14648 11399 1 109.50000 418.400000
4701 14648 11439 1 109.50000 418.400000
7064 14648 11399 1 109.50000 418.400000
7064 14648 11439 1 109.50000 418.400000
11399 14648 11439 1 109.50000 418.400000
397 14649 8852 1 109.50000 418.400000
397 14649 8853 1 109.50000 418.400000
397 14649 8854 1 109.50000 418.400000
8852 14649 8853 1 109.50000 418.400000
8852 14649 8854 1 109.50000 418.400000
8853 14649 8854 1 109.50000 418.400000
1774 14650 7441 1 109.50000 418.400000
1774 14650 8198 1 109.50000 418.400000
1774 14650 11546 1 109.50000 418.400000
7441 14650 8198 1 109.50000 418.400000
7441 14650 11546 1 109.50000 418.400000
8198 14650 11546 1 109.50000 418.400000
4347 14651 5629 1 109.50000 418.400000
4347 14651 8856 1 109.50000 418.400000
4347 14651 8857 1 109.50000 418.400000
5629 14651 8856 1 109.50000 418.400000
5629 14651 8857 1 109.50000 418.400000
8856 14651 8857 1 109.50000 418.400000
2873 14652 8858 1 109.50000 418.400000
2873 14652 8859 1 109.50000 418.400000
2873 14652 8860 1 109.50000 418.400000
8858 14652 8859 1 109.50000 418.400000
8858 14652 8860 1 109.50000 418.400000
8859 14652 8860 1 109.50000 418.400000
252 14653 8861 1 109.50000 418.400000
252 14653 8862 1 109.50000 418.400000
252 14653 8863 1 109.50000 418.400000
8861 14653 8862 1 109.50000 418.400000
8861 14653 8863 1 109.50000 418.400000
8862 14653 8863 1 109.50000 418.400000
4894 14654 8864 1 109.50000 418.400000
4894 14654 8865 1 109.50000 418.400000
4894 14654 11513 1 109.50000 418.400000
8864 14654 8865 1 109.50000 418.400000
8864 14654 11513 1 109.50000 418.400000
8865 14654 11513 1 109.50000 418.400000
8866 14655 8867 1 109.50000 418.400000
8866 14655 11155 1 109.50000 418.400000
8866 14655 11210 1 109.50000 418.400000
8867 14655 11155 1 109.50000 418.400000
8867 14655 11210 1 109.50000 418.400000
11155 14655 11210 1 109.50000 418.400000
3112 14656 5160 1 109.50000 418.400000
3112 14656 6426 1 109.50000 418.400000
3112 14656 8868 1 109.50000 418.400000
5160 14656 6426 1 109.50000 418.400000
5160 14656 8868 1 109.50000 418.400000
6426 14656 8868 1 109.50000 418.400000
5491 14657 7325 1 109.50000 418.400000
5491 14657 8870 1 109.50000 418.400000
5491 14657 8871 1 109.50000 418.400000
7325 14657 8870 1 109.50000 418.400000
7325 14657 8871 1 109.50000 418.400000
8870 14657 8871 1 109.50000 418.400000
199 14658 3306 1 109.50000 418.400000
199 14658 6686 1 109.50000 418.400000
199 14658 7402 1 109.50000 418.400000
3306 14658 6686 1 109.50000 418.400000
3306 14658 7402 1 109.50000 418.400000
6686 14658 7402 1 109.50000 418.400000
3392 14659 3781 1 109.50000 418.400000
3392 14659 5083 1 109.50000 418.400000
3392 14659 8872 1 109.50000 418.400000
3781 14659 5083 1 109.50000 418.400000
3781 14659 8872 1 109.50000 418.400000
5083 14659 8872 1 109.50000 418.400000
8873 14660 8874 1 109.50000 418.400000
8873 14660 8875 1 109.50000 418.400000
8873 14660 11602 1 109.50000 418.400000
8874 14660 8875 1 109.50000 418.400000
8874 14660 11602 1 109.50000 418.400000
8875 14660 11602 1 109.50000 418.400000
799 14661 1269 1 109.50000 418.400000
799 14661 8876 1 109.50000 418.400000
799 14661 11453 1 109.50000 418.400000
1269 14661 8876 1 109.50000 418.400000
1269 14661 11453 1 109.50000 418.400000
8876 14661 11453 1 109.50000 418.400000
3525 14662 5307 1 109.50000 418.400000
3525 14662 8877 1 109.50000 418.400000
3525 14662 11606 1 109.50000 418.400000
5307 14662 8877 1 109.50000 418.400000
5307 14662 11606 1 109.50000 418.400000
8877 14662 11606 1 109.50000 418.400000
4674 14663 8878 1 109.50000 418.400000
4674 14663 8879 1 109.50000 418.400000
4674 14663 11459 1 109.50000 418.400000
8878 14663 8879 1 109.50000 418.400000
8878 14663 11459 1 109.50000 418.400000
8879 14663 11459 1 109.50000 418.400000
830 14664 1868 1 109.50000 418.400000
830 14664 3991 1 109.50000 418.400000
830 14664 8880 1 109.50000 418.400000
1868 14664 3991 1 109.50000 418.400000
1868 14664 8880 1 109.50000 418.400000
3991 14664 8880 1 109.50000 418.400000
1096 14665 1610 1 109.50000 418.400000
1096 14665 8881 1 109.50000 418.400000
1096 14665 8882 1 109.50000 418.400000
1610 14665 8881 1 109.50000 418.400000
1610 14665 8882 1 109.50000 418.400000
8881 14665 8882 1 109.50000 418.400000
3251 14666 5609 1 109.50000 418.400000
3251 14666 6254 1 109.50000 418.400000
3251 14666 8883 1 109.50000 418.400000
5609 14666 6254 1 109.50000 418.400000
5609 14666 8883 1 109.50000 418.400000
6254 14666 8883 1 109.50000 418.400000
3646 14667 5053 1 109.50000 418.400000
3646 14667 8884 1 109.50000 418.400000
3646 14667 8885 1 109.50000 418.400000
5053 14667 8884 1 109.50000 418.400000
5053 14667 8885 1 109.50000 418.400000
8884 14667 8885 1 109.50000 418.400000
2807 14668 3049 1 109.50000 418.400000
2807 14668 8886 1 109.50000 418.400000
2807 14668 8887 1 109.50000 418.400000
3049 14668 8886 1 109.50000 418.400000
3049 14668 8887 1 109.50000 418.400000
8886 14668 8887 1 109.50000 418.400000
3506 14669 3966 1 109.50000 418.400000
3506 14669 4918 1 109.50000 418.400000
3506 14669 7059 1 109.50000 418.400000
3966 14669 4918 1 109.50000 418.400000
3966 14669 7059 1 109.50000 418.400000
4918 14669 7059 1 109.50000 418.400000
2534 14670 8888 1 109.50000 418.400000
2534 14670 8889 1 109.50000 418.400000
2534 14670 8890 1 109.50000 418.400000
8888 14670 8889 1 109.50000 418.400000
8888 14670 8890 1 109.50000 418.400000
8889 14670 8890 1 109.50000 418.400000
5154 14671 7487 1 109.50000 418.400000
5154 14671 8891 1 109.50000 418.400000
5154 14671 8892 1 109.50000 418.400000
7487 14671 8891 1 109.50000 418.400000
7487 14671 8892 1 109.50000 418.400000
8891 14671 8892 1 109.50000 418.400000
3723 14672 7214 1 109.50000 418.400000
3723 14672 7216 1 109.50000 418.400000
3723 14672 8893 1 109.50000 418.400000
7214 14672 7216 1 109.50000 418.400000
7214 14672 8893 1 109.50000 418.400000
7216 14672 8893 1 109.50000 418.400000
2693 14673 5978 1 109.50000 418.400000
2693 14673 6190 1 109.50000 418.400000
2693 14673 8895 1 109.50000 418.400000
5978 14673 6190 1 109.50000 418.400000
5978 14673 8895 1 109.50000 418.400000
6190 14673 8895 1 109.50000 418.400000
8075 14674 8896 1 109.50000 418.400000
8075 14674 8897 1 109.50000 418.400000
8075 14674 8898 1 109.50000 418.400000
8896 14674 8897 1 109.50000 418.400000
8896 14674 8898 1 109.50000 418.400000
8897 14674 8898 1 109.50000 418.400000
1817 14675 5732 1 109.50000 418.400000
1817 14675 8631 1 109.50000 418.400000
1817 14675 8899 1 109.50000 418.400000
5732 14675 8631 1 109.50000 418.400000
5732 14675 8899 1 109.50000 418.400000
8631 14675 8899 1 109.50000 418.400000
4960 14676 7053 1 109.50000 418.400000
4960 14676 8900 1 109.50000 418.400000
4960 14676 8901 1 109.50000 418.400000
7053 14676 8900 1 109.50000 418.400000
7053 14676 8901 1 109.50000 418.400000
8900 14676 8901 1 109.50000 418.400000
2360 14677 7922 1 109.50000 418.400000
2360 14677 8902 1 109.50000 418.400000
2360 14677 8903 1 109.50000 418.400000
7922 14677 8902 1 109.50000 418.400000
7922 14677 8903 1 109.50000 418.400000
8902 14677 8903 1 109.50000 418.400000
7653 14678 8904 1 109.50000 418.400000
7653 14678 8905 1 109.50000 418.400000
7653 14678 8906 1 109.50000 418.400000
8904 14678 8905 1 109.50000 418.400000
8904 14678 8906 1 109.50000 418.400000
8905 14678 8906 1 109.50000 418.400000
1753 14679 1759 1 109.50000 418.400000
1753 14679 7369 1 109.50000 418.400000
1753 14679 8907 1 109.50000 418.400000
1759 14679 7369 1 109.50000 418.400000
1759 14679 8907 1 109.50000 418.400000
7369 14679 8907 1 109.50000 418.400000
6836 14680 8237 1 109.50000 418.400000
6836 14680 8908 1 109.50000 418.400000
6836 14680 11407 1 109.50000 418.400000
8237 14680 8908 1 109.50000 418.400000
8237 14680 11407 1 109.50000 418.400000
8908 14680 11407 1 109.50000 418.400000
4256 14681 5014 1 109.50000 418.400000
4256 14681 5746 1 109.50000 418.400000
4256 14681 8285 1 109.50000 418.400000
5014 14681 5746 1 109.50000 418.400000
5014 14681 8285 1 109.50000 418.400000
5746 14681 8285 1 109.50000 418.400000
1339 14682 3998 1 109.50000 418.400000
1339 14682 8909 1 109.50000 418.400000
1339 14682 8910 1 109.50000 418.400000
3998 14682 8909 1 109.50000 418.400000
3998 14682 8910 1 109.50000 418.400000
8909 14682 8910 1 109.50000 418.400000
7576 14683 8334 1 109.50000 418.400000
7576 14683 8911 1 109.50000 418.400000
7576 14683 8912 1 109.50000 418.400000
8334 14683 8911 1 109.50000 418.400000
8334 14683 8912 1 109.50000 418.400000
8911 14683 8912 1 109.50000 418.400000
3494 14684 5256 1 109.50000 418.400000
3494 14684 8913 1 109.50000 418.400000
3494 14684 11439 1 109.50000 418.400000
5256 14684 8913 1 109.50000 418.400000
5256 14684 11439 1 109.50000 418.400000
8913 14684 11439 1 109.50000 418.400000
5971 14685 8755 1 109.50000 418.400000
5971 14685 8914 1 109.50000 418.400000
5971 14685 8915 1 109.50000 418.400000
8755 14685 8914 1 109.50000 418.400000
8755 14685 8915 1 109.50000 418.400000
8914 14685 8915 1 109.50000 418.400000
304 14686 3553 1 109.50000 418.400000
304 14686 5890 1 109.50000 418.400000
304 14686 8917 1 109.50000 418.400000
3553 14686 5890 1 109.50000 418.400000
3553 14686 8917 1 109.50000 418.400000
5890 14686 8917 1 109.50000 418.400000
4123 14687 8918 1 109.50000 418.400000
4123 14687 8919 1 109.50000 418.400000
4123 14687 8920 1 109.50000 418.400000
8918 14687 8919 1 109.50000 418.400000
8918 14687 8920 1 109.50000 418.400000
8919 14687 8920 1 109.50000 418.400000
4568 14688 6156 1 109.50000 418.400000
4568 14688 8921 1 109.50000 418.400000
4568 14688 8922 1 109.50000 418.400000
6156 14688 8921 1 109.50000 418.400000
6156 14688 8922 1 109.50000 418.400000
8921 14688 8922 1 109.50000 418.400000
3922 14689 3923 1 109.50000 418.400000
3922 14689 8923 1 109.50000 418.400000
3922 14689 11516 1 109.50000 418.400000
3923 14689 8923 1 109.50000 418.400000
3923 14689 11516 1 109.50000 418.400000
8923 14689 11516 1 109.50000 418.400000
1939 14690 2165 1 109.50000 418.400000
1939 14690 7449 1 109.50000 418.400000
1939 14690 11320 1 109.50000 418.400000
2165 14690 7449 1 109.50000 418.400000
2165 14690 11320 1 109.50000 418.400000
7449 14690 11320 1 109.50000 418.400000
6205 14691 8924 1 109.50000 418.400000
6205 14691 8925 1 109.50000 418.400000
6205 14691 8926 1 109.50000 418.400000
8924 14691 8925 1 109.50000 418.400000
8924 14691 8926 1 109.50000 418.400000
8925 14691 8926 1 109.50000 418.400000
7510 14692 8407 1 109.50000 418.400000
7510 14692 8927 1 109.50000 418.400000
7510 14692 11359 1 109.50000 418.400000
8407 14692 8927 1 109.50000 418.400000
8407 14692 11359 1 109.50000 418.400000
8927 14692 11359 1 109.50000 418.400000
788 14693 3608 1 109.50000 418.400000
788 14693 4974 1 109.50000 418.400000
788 14693 8929 1 109.50000 418.400000
3608 14693 4974 1 109.50000 418.400000
3608 14693 8929 1 109.50000 418.400000
4974 14693 8929 1 109.50000 418.400000
8930 14694 8931 1 109.50000 418.400000
8930 14694 8932 1 109.50000 418.400000
8930 14694 8933 1 109.50000 418.400000
8931 14694 8932 1 109.50000 418.400000
8931 14694 8933 1 109.50000 418.400000
8932 14694 8933 1 109.50000 418.400000
1253 14695 6609 1 109.50000 418.400000
1253 14695 8934 1 109.50000 418.400000
1253 14695 8935 1 109.50000 418.400000
6609 14695 8934 1 109.50000 418.400000
6609 14695 8935 1 109.50000 418.400000
8934 14695 8935 1 109.50000 418.400000
1164 14696 5514 1 109.50000 418.400000
1164 14696 7958 1 109.50000 418.400000
1164 14696 8936 1 109.50000 418.400000
5514 14696 7958 1 109.50000 418.400000
5514 14696 8936 1 109.50000 418.400000
7958 14696 8936 1 109.50000 418.400000
3476 14697 5828 1 109.50000 418.400000
3476 14697 8937 1 109.50000 418.400000
3476 14697 8938 1 109.50000 418.400000
5828 14697 8937 1 109.50000 418.400000
5828 14697 8938 1 109.50000 418.400000
8937 14697 8938 1 109.50000 418.400000
2579 14698 7057 1 109.50000 418.400000
2579 14698 7903 1 109.50000 418.400000
2579 14698 8939 1 109.50000 418.400000
7057 14698 7903 1 109.50000 418.400000
7057 14698 8939 1 109.50000 418.400000
7903 14698 8939 1 109.50000 418.400000
2705 14699 7558 1 109.50000 418.400000
2705 14699 7584 1 109.50000 418.400000
2705 14699 8940 1 109.50000 418.400000
7558 14699 7584 1 109.50000 418.400000
7558 14699 8940 1 109.50000 418.400000
7584 14699 8940 1 109.50000 418.400000
2954 14700 5970 1 109.50000 418.400000
2954 14700 5973 1 109.50000 418.400000
2954 14700 8941 1 109.50000 418.400000
5970 14700 5973 1 109.50000 418.400000
5970 14700 8941 1 109.50000 418.400000
5973 14700 8941 1 109.50000 418.400000
8943 14701 8944 1 109.50000 418.400000
8943 14701 8945 1 109.50000 418.400000
8943 14701 8946 1 109.50000 418.400000
8944 14701 8945 1 109.50000 418.400000
8944 14701 8946 1 109.50000 418.400000
8945 14701 8946 1 109.50000 418.400000
1695 14702 2785 1 109.50000 418.400000
1695 14702 8947 1 109.50000 418.400000
1695 14702 8948 1 109.50000 418.400000
2785 14702 8947 1 109.50000 418.400000
2785 14702 8948 1 109.50000 418.400000
8947 14702 8948 1 109.50000 418.400000
8949 14703 8950 1 109.50000 418.400000
8949 14703 8951 1 109.50000 418.400000
8949 14703 8952 1 109.50000 418.400000
8950 14703 8951 1 109.50000 418.400000
8950 14703 8952 1 109.50000 418.400000
8951 14703 8952 1 109.50000 418.400000
1740 14704 2379 1 109.50000 418.400000
1740 14704 4546 1 109.50000 418.400000
1740 14704 8953 1 109.50000 418.400000
2379 14704 4546 1 109.50000 418.400000
2379 14704 8953 1 109.50000 418.400000
4546 14704 8953 1 109.50000 418.400000
2876 14705 8954 1 109.50000 418.400000
2876 14705 8955 1 109.50000 418.400000
2876 14705 8956 1 109.50000 418.400000
8954 14705 8955 1 109.50000 418.400000
8954 14705 8956 1 109.50000 418.400000
8955 14705 8956 1 109.50000 418.400000
7989 14706 8957 1 109.50000 418.400000
7989 14706 8958 1 109.50000 418.400000
7989 14706 8959 1 109.50000 418.400000
8957 14706 8958 1 109.50000 418.400000
8957 14706 8959 1 109.50000 418.400000
8958 14706 8959 1 109.50000 418.400000
2650 14707 5326 1 109.50000 418.400000
2650 14707 5363 1 109.50000 418.400000
2650 14707 5382 1 109.50000 418.400000
5326 14707 5363 1 109.50000 418.400000
5326 14707 5382 1 109.50000 418.400000
5363 14707 5382 1 109.50000 418.400000
424 14708 638 1 109.50000 418.400000
424 14708 5150 1 109.50000 418.400000
424 14708 8960 1 109.50000 418.400000
638 14708 5150 1 109.50000 418.400000
638 14708 8960 1 109.50000 418.400000
5150 14708 8960 1 109.50000 418.400000
7288 14709 8084 1 109.50000 418.400000
7288 14709 8961 1 109.50000 418.400000
7288 14709 11151 1 109.50000 418.400000
8084 14709 8961 1 109.50000 418.400000
8084 14709 11151 1 109.50000 418.400000
8961 14709 11151 1 109.50000 418.400000
8962 14710 9672 1 109.50000 418.400000
8962 14710 11393 1 109.50000 418.400000
8962 14710 11547 1 109.50000 418.400000
9672 14710 11393 1 109.50000 418.400000
9672 14710 11547 1 109.50000 418.400000
11393 14710 11547 1 109.50000 418.400000
1465 14711 5851 1 109.50000 418.400000
1465 14711 8248 1 109.50000 418.400000
1465 14711 8963 1 109.50000 418.400000
5851 14711 8248 1 109.50000 418.400000
5851 14711 8963 1 109.50000 418.400000
8248 14711 8963 1 109.50000 418.400000
8129 14712 8964 1 109.50000 418.400000
8129 14712 8965 1 109.50000 418.400000
8129 14712 8966 1 109.50000 418.400000
8964 14712 8965 1 109.50000 418.400000
8964 14712 8966 1 109.50000 418.400000
8965 14712 8966 1 109.50000 418.400000
1729 14713 3174 1 109.50000 418.400000
1729 14713 8960 1 109.50000 418.400000
1729 14713 8967 1 109.50000 418.400000
3174 14713 8960 1 109.50000 418.400000
3174 14713 8967 1 109.50000 418.400000
8960 14713 8967 1 109.50000 418.400000
7224 14714 7225 1 109.50000 418.400000
7224 14714 8968 1 109.50000 418.400000
7224 14714 8969 1 109.50000 418.400000
7225 14714 8968 1 109.50000 418.400000
7225 14714 8969 1 109.50000 418.400000
8968 14714 8969 1 109.50000 418.400000
1518 14715 3058 1 109.50000 418.400000
1518 14715 4201 1 109.50000 418.400000
1518 14715 7266 1 109.50000 418.400000
3058 14715 4201 1 109.50000 418.400000
3058 14715 7266 1 109.50000 418.400000
4201 14715 7266 1 109.50000 418.400000
4732 14716 8971 1 109.50000 418.400000
4732 14716 8972 1 109.50000 418.400000
4732 14716 8973 1 109.50000 418.400000
8971 14716 8972 1 109.50000 418.400000
8971 14716 8973 1 109.50000 418.400000
8972 14716 8973 1 109.50000 418.400000
4172 14717 8974 1 109.50000 418.400000
4172 14717 11298 1 109.50000 418.400000
4172 14717 11477 1 109.50000 418.400000
8974 14717 11298 1 109.50000 418.400000
8974 14717 11477 1 109.50000 418.400000
11298 14717 11477 1 109.50000 418.400000
2800 14718 2802 1 109.50000 418.400000
2800 14718 8977 1 109.50000 418.400000
2800 14718 8978 1 109.50000 418.400000
2802 14718 8977 1 109.50000 418.400000
2802 14718 8978 1 109.50000 418.400000
8977 14718 8978 1 109.50000 418.400000
8385 14719 8979 1 109.50000 418.400000
8385 14719 8980 1 109.50000 418.400000
8385 14719 8981 1 109.50000 418.400000
8979 14719 8980 1 109.50000 418.400000
8979 14719 8981 1 109.50000 418.400000
8980 14719 8981 1 109.50000 418.400000
5624 14720 5936 1 109.50000 418.400000
5624 14720 8982 1 109.50000 418.400000
5624 14720 8983 1 109.50000 418.400000
5936 14720 8982 1 109.50000 418.400000
5936 14720 8983 1 109.50000 418.400000
8982 14720 8983 1 109.50000 418.400000
2666 14721 5800 1 109.50000 418.400000
2666 14721 8984 1 109.50000 418.400000
2666 14721 8985 1 109.50000 418.400000
5800 14721 8984 1 109.50000 418.400000
5800 14721 8985 1 109.50000 418.400000
8984 14721 8985 1 109.50000 418.400000
1200 14722 1304 1 109.50000 418.400000
1200 14722 1305 1 109.50000 418.400000
1200 14722 3190 1 109.50000 418.400000
1304 14722 1305 1 109.50000 418.400000
1304 14722 3190 1 109.50000 418.400000
1305 14722 3190 1 109.50000 418.400000
8016 14723 8987 1 109.50000 418.400000
8016 14723 8988 1 109.50000 418.400000
8016 14723 8989 1 109.50000 418.400000
8987 14723 8988 1 109.50000 418.400000
8987 14723 8989 1 109.50000 418.400000
8988 14723 8989 1 109.50000 418.400000
5863 14724 6075 1 109.50000 418.400000
5863 14724 7049 1 109.50000 418.400000
5863 14724 7504 1 109.50000 418.400000
6075 14724 7049 1 109.50000 418.400000
6075 14724 7504 1 109.50000 418.400000
7049 14724 7504 1 109.50000 418.400000
849 14725 4266 1 109.50000 418.400000
849 14725 8991 1 109.50000 418.400000
849 14725 8992 1 109.50000 418.400000
4266 14725 8991 1 109.50000 418.400000
4266 14725 8992 1 109.50000 418.400000
8991 14725 8992 1 109.50000 418.400000
702 14726 8527 1 109.50000 418.400000
702 14726 8993 1 109.50000 418.400000
702 14726 8994 1 109.50000 418.400000
8527 14726 8993 1 109.50000 418.400000
8527 14726 8994 1 109.50000 418.400000
8993 14726 8994 1 109.50000 418.400000
1098 14727 6160 1 109.50000 418.400000
1098 14727 8549 1 109.50000 418.400000
1098 14727 8995 1 109.50000 418.400000
6160 14727 8549 1 109.50000 418.400000
6160 14727 8995 1 109.50000 418.400000
8549 14727 8995 1 109.50000 418.400000
6256 14728 6258 1 109.50000 418.400000
6256 14728 6884 1 109.50000 418.400000
6256 14728 8271 1 109.50000 418.400000
6258 14728 6884 1 109.50000 418.400000
6258 14728 8271 1 109.50000 418.400000
6884 14728 8271 1 109.50000 418.400000
6973 14729 7356 1 109.50000 418.400000
6973 14729 8996 1 109.50000 418.400000
6973 14729 8997 1 109.50000 418.400000
7356 14729 8996 1 109.50000 418.400000
7356 14729 8997 1 109.50000 418.400000
8996 14729 8997 1 109.50000 418.400000
6074 14730 7503 1 109.50000 418.400000
6074 14730 8282 1 109.50000 418.400000
6074 14730 8283 1 109.50000 418.400000
7503 14730 8282 1 109.50000 418.400000
7503 14730 8283 1 109.50000 418.400000
8282 14730 8283 1 109.50000 418.400000
5926 14731 8196 1 109.50000 418.400000
5926 14731 8999 1 109.50000 418.400000
5926 14731 9000 1 109.50000 418.400000
8196 14731 8999 1 109.50000 418.400000
8196 14731 9000 1 109.50000 418.400000
8999 14731 9000 1 109.50000 418.400000
5555 14732 9002 1 109.50000 418.400000
5555 14732 9003 1 109.50000 418.400000
5555 14732 9004 1 109.50000 418.400000
9002 14732 9003 1 109.50000 418.400000
9002 14732 9004 1 109.50000 418.400000
9003 14732 9004 1 109.50000 418.400000
3983 14733 5833 1 109.50000 418.400000
3983 14733 9005 1 109.50000 418.400000
3983 14733 11196 1 109.50000 418.400000
5833 14733 9005 1 109.50000 418.400000
5833 14733 11196 1 109.50000 418.400000
9005 14733 11196 1 109.50000 418.400000
1347 14734 9006 1 109.50000 418.400000
1347 14734 9007 1 109.50000 418.400000
1347 14734 9008 1 109.50000 418.400000
9006 14734 9007 1 109.50000 418.400000
9006 14734 9008 1 109.50000 418.400000
9007 14734 9008 1 109.50000 418.400000
2132 14735 6633 1 109.50000 418.400000
2132 14735 8827 1 109.50000 418.400000
2132 14735 9009 1 109.50000 418.400000
6633 14735 8827 1 109.50000 418.400000
6633 14735 9009 1 109.50000 418.400000
8827 14735 9009 1 109.50000 418.400000
75 14736 9011 1 109.50000 418.400000
75 14736 9012 1 109.50000 418.400000
75 14736 11561 1 109.50000 418.400000
9011 14736 9012 1 109.50000 418.400000
9011 14736 11561 1 109.50000 418.400000
9012 14736 11561 1 109.50000 418.400000
4356 14737 6106 1 109.50000 418.400000
4356 14737 9013 1 109.50000 418.400000
4356 14737 9014 1 109.50000 418.400000
6106 14737 9013 1 109.50000 418.400000
6106 14737 9014 1 109.50000 418.400000
9013 14737 9014 1 109.50000 418.400000
8252 14738 9015 1 109.50000 418.400000
8252 14738 9017 1 109.50000 418.400000
8252 14738 10315 1 109.50000 418.400000
9015 14738 9017 1 109.50000 418.400000
9015 14738 10315 1 109.50000 418.400000
9017 14738 10315 1 109.50000 418.400000
549 14739 3741 1 109.50000 418.400000
549 14739 7803 1 109.50000 418.400000
549 14739 9018 1 109.50000 418.400000
3741 14739 7803 1 109.50000 418.400000
3741 14739 9018 1 109.50000 418.400000
7803 14739 9018 1 109.50000 418.400000
2438 14740 3891 1 109.50000 418.400000
2438 14740 6184 1 109.50000 418.400000
2438 14740 9019 1 109.50000 418.400000
3891 14740 6184 1 109.50000 418.400000
3891 14740 9019 1 109.50000 418.400000
6184 14740 9019 1 109.50000 418.400000
3902 14741 4470 1 109.50000 418.400000
3902 14741 9020 1 109.50000 418.400000
3902 14741 9021 1 109.50000 418.400000
4470 14741 9020 1 109.50000 418.400000
4470 14741 9021 1 109.50000 418.400000
9020 14741 9021 1 109.50000 418.400000
5559 14742 8071 1 109.50000 418.400000
5559 14742 9022 1 109.50000 418.400000
5559 14742 9023 1 109.50000 418.400000
8071 14742 9022 1 109.50000 418.400000
8071 14742 9023 1 109.50000 418.400000
9022 14742 9023 1 109.50000 418.400000
5344 14743 9024 1 109.50000 418.400000
5344 14743 9025 1 109.50000 418.400000
5344 14743 11229 1 109.50000 418.400000
9024 14743 9025 1 109.50000 418.400000
9024 14743 11229 1 109.50000 418.400000
9025 14743 11229 1 109.50000 418.400000
7936 14744 9026 1 109.50000 418.400000
7936 14744 9027 1 109.50000 418.400000
7936 14744 9028 1 109.50000 418.400000
9026 14744 9027 1 109.50000 418.400000
9026 14744 9028 1 109.50000 418.400000
9027 14744 9028 1 109.50000 418.400000
7045 14745 8941 1 109.50000 418.400000
7045 14745 9029 1 109.50000 418.400000
7045 14745 9030 1 109.50000 418.400000
8941 14745 9029 1 109.50000 418.400000
8941 14745 9030 1 109.50000 418.400000
9029 14745 9030 1 109.50000 418.400000
3544 14746 9031 1 109.50000 418.400000
3544 14746 9032 1 109.50000 418.400000
3544 14746 9033 1 109.50000 418.400000
9031 14746 9032 1 109.50000 418.400000
9031 14746 9033 1 109.50000 418.400000
9032 14746 9033 1 109.50000 418.400000
1328 14747 4875 1 109.50000 418.400000
1328 14747 6236 1 109.50000 418.400000
1328 14747 9034 1 109.50000 418.400000
4875 14747 6236 1 109.50000 418.400000
4875 14747 9034 1 109.50000 418.400000
6236 14747 9034 1 109.50000 418.400000
8289 14748 9035 1 109.50000 418.400000
8289 14748 11414 1 109.50000 418.400000
8289 14748 11463 1 109.50000 418.400000
9035 14748 11414 1 109.50000 418.400000
9035 14748 11463 1 109.50000 418.400000
11414 14748 11463 1 109.50000 418.400000
4535 14749 5828 1 109.50000 418.400000
4535 14749 5829 1 109.50000 418.400000
4535 14749 6960 1 109.50000 418.400000
5828 14749 5829 1 109.50000 418.400000
5828 14749 6960 1 109.50000 418.400000
5829 14749 6960 1 109.50000 418.400000
1466 14750 3017 1 109.50000 418.400000
1466 14750 9036 1 109.50000 418.400000
1466 14750 9037 1 109.50000 418.400000
3017 14750 9036 1 109.50000 418.400000
3017 14750 9037 1 109.50000 418.400000
9036 14750 9037 1 109.50000 418.400000
2703 14751 4770 1 109.50000 418.400000
2703 14751 9038 1 109.50000 418.400000
2703 14751 9039 1 109.50000 418.400000
4770 14751 9038 1 109.50000 418.400000
4770 14751 9039 1 109.50000 418.400000
9038 14751 9039 1 109.50000 418.400000
6485 14752 9040 1 109.50000 418.400000
6485 14752 9042 1 109.50000 418.400000
6485 14752 9043 1 109.50000 418.400000
9040 14752 9042 1 109.50000 418.400000
9040 14752 9043 1 109.50000 418.400000
9042 14752 9043 1 109.50000 418.400000
2351 14753 3317 1 109.50000 418.400000
2351 14753 5078 1 109.50000 418.400000
2351 14753 9044 1 109.50000 418.400000
3317 14753 5078 1 109.50000 418.400000
3317 14753 9044 1 109.50000 418.400000
5078 14753 9044 1 109.50000 418.400000
117 14754 6388 1 109.50000 418.400000
117 14754 8806 1 109.50000 418.400000
117 14754 9045 1 109.50000 418.400000
6388 14754 8806 1 109.50000 418.400000
6388 14754 9045 1 109.50000 418.400000
8806 14754 9045 1 109.50000 418.400000
7928 14755 8360 1 109.50000 418.400000
7928 14755 9046 1 109.50000 418.400000
7928 14755 9047 1 109.50000 418.400000
8360 14755 9046 1 109.50000 418.400000
8360 14755 9047 1 109.50000 418.400000
9046 14755 9047 1 109.50000 418.400000
3443 14756 8413 1 109.50000 418.400000
3443 14756 9048 1 109.50000 418.400000
3443 14756 11504 1 109.50000 418.400000
8413 14756 9048 1 109.50000 418.400000
8413 14756 11504 1 109.50000 418.400000
9048 14756 11504 1 109.50000 418.400000
2288 14757 5838 1 109.50000 418.400000
2288 14757 9049 1 109.50000 418.400000
2288 14757 9050 1 109.50000 418.400000
5838 14757 9049 1 109.50000 418.400000
5838 14757 9050 1 109.50000 418.400000
9049 14757 9050 1 109.50000 418.400000
6365 14758 8381 1 109.50000 418.400000
6365 14758 9051 1 109.50000 418.400000
6365 14758 9052 1 109.50000 418.400000
8381 14758 9051 1 109.50000 418.400000
8381 14758 9052 1 109.50000 418.400000
9051 14758 9052 1 109.50000 418.400000
2811 14759 5037 1 109.50000 418.400000
2811 14759 7070 1 109.50000 418.400000
2811 14759 9053 1 109.50000 418.400000
5037 14759 7070 1 109.50000 418.400000
5037 14759 9053 1 109.50000 418.400000
7070 14759 9053 1 109.50000 418.400000
722 14760 724 1 109.50000 418.400000
722 14760 2383 1 109.50000 418.400000
722 14760 4214 1 109.50000 418.400000
724 14760 2383 1 109.50000 418.400000
724 14760 4214 1 109.50000 418.400000
2383 14760 4214 1 109.50000 418.400000
5602 14761 7375 1 109.50000 418.400000
5602 14761 8530 1 109.50000 418.400000
5602 14761 9056 1 109.50000 418.400000
7375 14761 8530 1 109.50000 418.400000
7375 14761 9056 1 109.50000 418.400000
8530 14761 9056 1 109.50000 418.400000
6793 14762 9057 1 109.50000 418.400000
6793 14762 9058 1 109.50000 418.400000
6793 14762 9059 1 109.50000 418.400000
9057 14762 9058 1 109.50000 418.400000
9057 14762 9059 1 109.50000 418.400000
9058 14762 9059 1 109.50000 418.400000
7061 14763 7063 1 109.50000 418.400000
7061 14763 8913 1 109.50000 418.400000
7061 14763 9060 1 109.50000 418.400000
7063 14763 8913 1 109.50000 418.400000
7063 14763 9060 1 109.50000 418.400000
8913 14763 9060 1 109.50000 418.400000
6875 14764 9062 1 109.50000 418.400000
6875 14764 9063 1 109.50000 418.400000
6875 14764 9064 1 109.50000 418.400000
9062 14764 9063 1 109.50000 418.400000
9062 14764 9064 1 109.50000 418.400000
9063 14764 9064 1 109.50000 418.400000
1177 14765 2276 1 109.50000 418.400000
1177 14765 6421 1 109.50000 418.400000
1177 14765 9065 1 109.50000 418.400000
2276 14765 6421 1 109.50000 418.400000
2276 14765 9065 1 109.50000 418.400000
6421 14765 9065 1 109.50000 418.400000
1182 14766 2335 1 109.50000 418.400000
1182 14766 6774 1 109.50000 418.400000
1182 14766 9066 1 109.50000 418.400000
2335 14766 6774 1 109.50000 418.400000
2335 14766 9066 1 109.50000 418.400000
6774 14766 9066 1 109.50000 418.400000
5133 14767 9067 1 109.50000 418.400000
5133 14767 11213 1 109.50000 418.400000
5133 14767 11429 1 109.50000 418.400000
9067 14767 11213 1 109.50000 418.400000
9067 14767 11429 1 109.50000 418.400000
11213 14767 11429 1 109.50000 418.400000
3968 14768 6918 1 109.50000 418.400000
3968 14768 9068 1 109.50000 418.400000
3968 14768 10459 1 109.50000 418.400000
6918 14768 9068 1 109.50000 418.400000
6918 14768 10459 1 109.50000 418.400000
9068 14768 10459 1 109.50000 418.400000
4484 14769 4989 1 109.50000 418.400000
4484 14769 9070 1 109.50000 418.400000
4484 14769 9071 1 109.50000 418.400000
4989 14769 9070 1 109.50000 418.400000
4989 14769 9071 1 109.50000 418.400000
9070 14769 9071 1 109.50000 418.400000
4760 14770 4761 1 109.50000 418.400000
4760 14770 8148 1 109.50000 418.400000
4760 14770 9072 1 109.50000 418.400000
4761 14770 8148 1 109.50000 418.400000
4761 14770 9072 1 109.50000 418.400000
8148 14770 9072 1 109.50000 418.400000
4672 14771 5901 1 109.50000 418.400000
4672 14771 9074 1 109.50000 418.400000
4672 14771 9075 1 109.50000 418.400000
5901 14771 9074 1 109.50000 418.400000
5901 14771 9075 1 109.50000 418.400000
9074 14771 9075 1 109.50000 418.400000
9076 14772 9077 1 109.50000 418.400000
9076 14772 9078 1 109.50000 418.400000
9076 14772 9079 1 109.50000 418.400000
9077 14772 9078 1 109.50000 418.400000
9077 14772 9079 1 109.50000 418.400000
9078 14772 9079 1 109.50000 418.400000
4904 14773 9080 1 109.50000 418.400000
4904 14773 9081 1 109.50000 418.400000
4904 14773 9083 1 109.50000 418.400000
9080 14773 9081 1 109.50000 418.400000
9080 14773 9083 1 109.50000 418.400000
9081 14773 9083 1 109.50000 418.400000
5795 14774 7269 1 109.50000 418.400000
5795 14774 8397 1 109.50000 418.400000
5795 14774 9084 1 109.50000 418.400000
7269 14774 8397 1 109.50000 418.400000
7269 14774 9084 1 109.50000 418.400000
8397 14774 9084 1 109.50000 418.400000
3734 14775 5329 1 109.50000 418.400000
3734 14775 6336 1 109.50000 418.400000
3734 14775 6337 1 109.50000 418.400000
5329 14775 6336 1 109.50000 418.400000
5329 14775 6337 1 109.50000 418.400000
6336 14775 6337 1 109.50000 418.400000
6165 14776 6620 1 109.50000 418.400000
6165 14776 6622 1 109.50000 418.400000
6165 14776 9086 1 109.50000 418.400000
6620 14776 6622 1 109.50000 418.400000
6620 14776 9086 1 109.50000 418.400000
6622 14776 9086 1 109.50000 418.400000
453 14777 1519 1 109.50000 418.400000
453 14777 7381 1 109.50000 418.400000
453 14777 9087 1 109.50000 418.400000
1519 14777 7381 1 109.50000 418.400000
1519 14777 9087 1 109.50000 418.400000
7381 14777 9087 1 109.50000 418.400000
435 14778 9091 1 109.50000 418.400000
435 14778 9092 1 109.50000 418.400000
435 14778 9093 1 109.50000 418.400000
9091 14778 9092 1 109.50000 418.400000
9091 14778 9093 1 109.50000 418.400000
9092 14778 9093 1 109.50000 418.400000
5546 14779 9093 1 109.50000 418.400000
5546 14779 9094 1 109.50000 418.400000
5546 14779 9095 1 109.50000 418.400000
9093 14779 9094 1 109.50000 418.400000
9093 14779 9095 1 109.50000 418.400000
9094 14779 9095 1 109.50000 418.400000
6499 14780 9081 1 109.50000 418.400000
6499 14780 9096 1 109.50000 418.400000
6499 14780 9097 1 109.50000 418.400000
9081 14780 9096 1 109.50000 418.400000
9081 14780 9097 1 109.50000 418.400000
9096 14780 9097 1 109.50000 418.400000
3605 14781 8424 1 109.50000 418.400000
3605 14781 9099 1 109.50000 418.400000
3605 14781 9100 1 109.50000 418.400000
8424 14781 9099 1 109.50000 418.400000
8424 14781 9100 1 109.50000 418.400000
9099 14781 9100 1 109.50000 418.400000
5564 14782 6312 1 109.50000 418.400000
5564 14782 9101 1 109.50000 418.400000
5564 14782 9102 1 109.50000 418.400000
6312 14782 9101 1 109.50000 418.400000
6312 14782 9102 1 109.50000 418.400000
9101 14782 9102 1 109.50000 418.400000
74 14783 9103 1 109.50000 418.400000
74 14783 9104 1 109.50000 418.400000
74 14783 11428 1 109.50000 418.400000
9103 14783 9104 1 109.50000 418.400000
9103 14783 11428 1 109.50000 418.400000
9104 14783 11428 1 109.50000 418.400000
7202 14784 9105 1 109.50000 418.400000
7202 14784 9106 1 109.50000 418.400000
7202 14784 9107 1 109.50000 418.400000
9105 14784 9106 1 109.50000 418.400000
9105 14784 9107 1 109.50000 418.400000
9106 14784 9107 1 109.50000 418.400000
4428 14785 7498 1 109.50000 418.400000
4428 14785 7518 1 109.50000 418.400000
4428 14785 9108 1 109.50000 418.400000
7498 14785 7518 1 109.50000 418.400000
7498 14785 9108 1 109.50000 418.400000
7518 14785 9108 1 109.50000 418.400000
6708 14786 8322 1 109.50000 418.400000
6708 14786 9060 1 109.50000 418.400000
6708 14786 9109 1 109.50000 418.400000
8322 14786 9060 1 109.50000 418.400000
8322 14786 9109 1 109.50000 418.400000
9060 14786 9109 1 109.50000 418.400000
6174 14787 7712 1 109.50000 418.400000
6174 14787 9110 1 109.50000 418.400000
6174 14787 9112 1 109.50000 418.400000
7712 14787 9110 1 109.50000 418.400000
7712 14787 9112 1 109.50000 418.400000
9110 14787 9112 1 109.50000 418.400000
5942 14788 6487 1 109.50000 418.400000
5942 14788 6488 1 109.50000 418.400000
5942 14788 9113 1 109.50000 418.400000
6487 14788 6488 1 109.50000 418.400000
6487 14788 9113 1 109.50000 418.400000
6488 14788 9113 1 109.50000 418.400000
4219 14789 9114 1 109.50000 418.400000
4219 14789 9115 1 109.50000 418.400000
4219 14789 9116 1 109.50000 418.400000
9114 14789 9115 1 109.50000 418.400000
9114 14789 9116 1 109.50000 418.400000
9115 14789 9116 1 109.50000 418.400000
7786 14790 9117 1 109.50000 418.400000
7786 14790 9118 1 109.50000 418.400000
7786 14790 9120 1 109.50000 418.400000
9117 14790 9118 1 109.50000 418.400000
9117 14790 9120 1 109.50000 418.400000
9118 14790 9120 1 109.50000 418.400000
7724 14791 8033 1 109.50000 418.400000
7724 14791 9121 1 109.50000 418.400000
7724 14791 9122 1 109.50000 418.400000
8033 14791 9121 1 109.50000 418.400000
8033 14791 9122 1 109.50000 418.400000
9121 14791 9122 1 109.50000 418.400000
5042 14792 9123 1 109.50000 418.400000
5042 14792 9124 1 109.50000 418.400000
5042 14792 9125 1 109.50000 418.400000
9123 14792 9124 1 109.50000 418.400000
9123 14792 9125 1 109.50000 418.400000
9124 14792 9125 1 109.50000 418.400000
3205 14793 9107 1 109.50000 418.400000
3205 14793 9127 1 109.50000 418.400000
3205 14793 9128 1 109.50000 418.400000
9107 14793 9127 1 109.50000 418.400000
9107 14793 9128 1 109.50000 418.400000
9127 14793 9128 1 109.50000 418.400000
1192 14794 5619 1 109.50000 418.400000
1192 14794 5625 1 109.50000 418.400000
1192 14794 7699 1 109.50000 418.400000
5619 14794 5625 1 109.50000 418.400000
5619 14794 7699 1 109.50000 418.400000
5625 14794 7699 1 109.50000 418.400000
1378 14795 4375 1 109.50000 418.400000
1378 14795 8737 1 109.50000 418.400000
1378 14795 9129 1 109.50000 418.400000
4375 14795 8737 1 109.50000 418.400000
4375 14795 9129 1 109.50000 418.400000
8737 14795 9129 1 109.50000 418.400000
9130 14796 9131 1 109.50000 418.400000
9130 14796 9132 1 109.50000 418.400000
9130 14796 9133 1 109.50000 418.400000
9131 14796 9132 1 109.50000 418.400000
9131 14796 9133 1 109.50000 418.400000
9132 14796 9133 1 109.50000 418.400000
1621 14797 2525 1 109.50000 418.400000
1621 14797 7275 1 109.50000 418.400000
1621 14797 8699 1 109.50000 418.400000
2525 14797 7275 1 109.50000 418.400000
2525 14797 8699 1 109.50000 418.400000
7275 14797 8699 1 109.50000 418.400000
3326 14798 3328 1 109.50000 418.400000
3326 14798 4686 1 109.50000 418.400000
3326 14798 4893 1 109.50000 418.400000
3328 14798 4686 1 109.50000 418.400000
3328 14798 4893 1 109.50000 418.400000
4686 14798 4893 1 109.50000 418.400000
1334 14799 3691 1 109.50000 418.400000
1334 14799 9135 1 109.50000 418.400000
1334 14799 9136 1 109.50000 418.400000
3691 14799 9135 1 109.50000 418.400000
3691 14799 9136 1 109.50000 418.400000
9135 14799 9136 1 109.50000 418.400000
1445 14800 7010 1 109.50000 418.400000
1445 14800 9137 1 109.50000 418.400000
1445 14800 9138 1 109.50000 418.400000
7010 14800 9137 1 109.50000 418.400000
7010 14800 9138 1 109.50000 418.400000
9137 14800 9138 1 109.50000 418.400000
2827 14801 5097 1 109.50000 418.400000
2827 14801 7206 1 109.50000 418.400000
2827 14801 9141 1 109.50000 418.400000
5097 14801 7206 1 109.50000 418.400000
5097 14801 9141 1 109.50000 418.400000
7206 14801 9141 1 109.50000 418.400000
2076 14802 8157 1 109.50000 418.400000
2076 14802 9019 1 109.50000 418.400000
2076 14802 9142 1 109.50000 418.400000
8157 14802 9019 1 109.50000 418.400000
8157 14802 9142 1 109.50000 418.400000
9019 14802 9142 1 109.50000 418.400000
3880 14803 9143 1 109.50000 418.400000
3880 14803 9144 1 109.50000 418.400000
3880 14803 11566 1 109.50000 418.400000
9143 14803 9144 1 109.50000 418.400000
9143 14803 11566 1 109.50000 418.400000
9144 14803 11566 1 109.50000 418.400000
367 14804 7898 1 109.50000 418.400000
367 14804 8366 1 109.50000 418.400000
367 14804 9145 1 109.50000 418.400000
7898 14804 8366 1 109.50000 418.400000
7898 14804 9145 1 109.50000 418.400000
8366 14804 9145 1 109.50000 418.400000
2881 14805 3960 1 109.50000 418.400000
2881 14805 7867 1 109.50000 418.400000
2881 14805 7993 1 109.50000 418.400000
3960 14805 7867 1 109.50000 418.400000
3960 14805 7993 1 109.50000 418.400000
7867 14805 7993 1 109.50000 418.400000
2489 14806 5655 1 109.50000 418.400000
2489 14806 8753 1 109.50000 418.400000
2489 14806 9148 1 109.50000 418.400000
5655 14806 8753 1 109.50000 418.400000
5655 14806 9148 1 109.50000 418.400000
8753 14806 9148 1 109.50000 418.400000
5605 14807 9149 1 109.50000 418.400000
5605 14807 9150 1 109.50000 418.400000
5605 14807 9151 1 109.50000 418.400000
9149 14807 9150 1 109.50000 418.400000
9149 14807 9151 1 109.50000 418.400000
9150 14807 9151 1 109.50000 418.400000
7420 14808 9152 1 109.50000 418.400000
7420 14808 9153 1 109.50000 418.400000
7420 14808 9154 1 109.50000 418.400000
9152 14808 9153 1 109.50000 418.400000
9152 14808 9154 1 109.50000 418.400000
9153 14808 9154 1 109.50000 418.400000
4625 14809 5562 1 109.50000 418.400000
4625 14809 7334 1 109.50000 418.400000
4625 14809 9155 1 109.50000 418.400000
5562 14809 7334 1 109.50000 418.400000
5562 14809 9155 1 109.50000 418.400000
7334 14809 9155 1 109.50000 418.400000
1505 14810 3583 1 109.50000 418.400000
1505 14810 9156 1 109.50000 418.400000
1505 14810 9157 1 109.50000 418.400000
3583 14810 9156 1 109.50000 418.400000
3583 14810 9157 1 109.50000 418.400000
9156 14810 9157 1 109.50000 418.400000
2505 14811 2507 1 109.50000 418.400000
2505 14811 5438 1 109.50000 418.400000
2505 14811 9158 1 109.50000 418.400000
2507 14811 5438 1 109.50000 418.400000
2507 14811 9158 1 109.50000 418.400000
5438 14811 9158 1 109.50000 418.400000
7748 14812 9160 1 109.50000 418.400000
7748 14812 9161 1 109.50000 418.400000
7748 14812 9162 1 109.50000 418.400000
9160 14812 9161 1 109.50000 418.400000
9160 14812 9162 1 109.50000 418.400000
9161 14812 9162 1 109.50000 418.400000
3431 14813 9163 1 109.50000 418.400000
3431 14813 9164 1 109.50000 418.400000
3431 14813 9165 1 109.50000 418.400000
9163 14813 9164 1 109.50000 418.400000
9163 14813 9165 1 109.50000 418.400000
9164 14813 9165 1 109.50000 418.400000
8258 14814 8871 1 109.50000 418.400000
8258 14814 9166 1 109.50000 418.400000
8258 14814 9167 1 109.50000 418.400000
8871 14814 9166 1 109.50000 418.400000
8871 14814 9167 1 109.50000 418.400000
9166 14814 9167 1 109.50000 418.400000
6073 14815 6173 1 109.50000 418.400000
6073 14815 9168 1 109.50000 418.400000
6073 14815 11398 1 109.50000 418.400000
6173 14815 9168 1 109.50000 418.400000
6173 14815 11398 1 109.50000 418.400000
9168 14815 11398 1 109.50000 418.400000
2163 14816 4480 1 109.50000 418.400000
2163 14816 5434 1 109.50000 418.400000
2163 14816 9110 1 109.50000 418.400000
4480 14816 5434 1 109.50000 418.400000
4480 14816 9110 1 109.50000 418.400000
5434 14816 9110 1 109.50000 418.400000
351 14817 1775 1 109.50000 418.400000
351 14817 2869 1 109.50000 418.400000
351 14817 9169 1 109.50000 418.400000
1775 14817 2869 1 109.50000 418.400000
1775 14817 9169 1 109.50000 418.400000
2869 14817 9169 1 109.50000 418.400000
1058 14818 6661 1 109.50000 418.400000
1058 14818 7014 1 109.50000 418.400000
1058 14818 9084 1 109.50000 418.400000
6661 14818 7014 1 109.50000 418.400000
6661 14818 9084 1 109.50000 418.400000
7014 14818 9084 1 109.50000 418.400000
3911 14819 8395 1 109.50000 418.400000
3911 14819 9170 1 109.50000 418.400000
3911 14819 9171 1 109.50000 418.400000
8395 14819 9170 1 109.50000 418.400000
8395 14819 9171 1 109.50000 418.400000
9170 14819 9171 1 109.50000 418.400000
786 14820 2180 1 109.50000 418.400000
786 14820 3607 1 109.50000 418.400000
786 14820 9173 1 109.50000 418.400000
2180 14820 3607 1 109.50000 418.400000
2180 14820 9173 1 109.50000 418.400000
3607 14820 9173 1 109.50000 418.400000
6253 14821 7246 1 109.50000 418.400000
6253 14821 9176 1 109.50000 418.400000
6253 14821 9177 1 109.50000 418.400000
7246 14821 9176 1 109.50000 418.400000
7246 14821 9177 1 109.50000 418.400000
9176 14821 9177 1 109.50000 418.400000
7495 14822 7857 1 109.50000 418.400000
7495 14822 8721 1 109.50000 418.400000
7495 14822 9178 1 109.50000 418.400000
7857 14822 8721 1 109.50000 418.400000
7857 14822 9178 1 109.50000 418.400000
8721 14822 9178 1 109.50000 418.400000
8105 14823 8106 1 109.50000 418.400000
8105 14823 9179 1 109.50000 418.400000
8105 14823 9181 1 109.50000 418.400000
8106 14823 9179 1 109.50000 418.400000
8106 14823 9181 1 109.50000 418.400000
9179 14823 9181 1 109.50000 418.400000
888 14824 8499 1 109.50000 418.400000
888 14824 9182 1 109.50000 418.400000
888 14824 10755 1 109.50000 418.400000
8499 14824 9182 1 109.50000 418.400000
8499 14824 10755 1 109.50000 418.400000
9182 14824 10755 1 109.50000 418.400000
4467 14825 7166 1 109.50000 418.400000
4467 14825 7779 1 109.50000 418.400000
4467 14825 8461 1 109.50000 418.400000
7166 14825 7779 1 109.50000 418.400000
7166 14825 8461 1 109.50000 418.400000
7779 14825 8461 1 109.50000 418.400000
4434 14826 6199 1 109.50000 418.400000
4434 14826 9183 1 109.50000 418.400000
4434 14826 9184 1 109.50000 418.400000
6199 14826 9183 1 109.50000 418.400000
6199 14826 9184 1 109.50000 418.400000
9183 14826 9184 1 109.50000 418.400000
1647 14827 6689 1 109.50000 418.400000
1647 14827 8503 1 109.50000 418.400000
1647 14827 9185 1 109.50000 418.400000
6689 14827 8503 1 109.50000 418.400000
6689 14827 9185 1 109.50000 418.400000
8503 14827 9185 1 109.50000 418.400000
2001 14828 2545 1 109.50000 418.400000
2001 14828 7946 1 109.50000 418.400000
2001 14828 8034 1 109.50000 418.400000
2545 14828 7946 1 109.50000 418.400000
2545 14828 8034 1 109.50000 418.400000
7946 14828 8034 1 109.50000 418.400000
2910 14829 4299 1 109.50000 418.400000
2910 14829 5482 1 109.50000 418.400000
2910 14829 9186 1 109.50000 418.400000
4299 14829 5482 1 109.50000 418.400000
4299 14829 9186 1 109.50000 418.400000
5482 14829 9186 1 109.50000 418.400000
4999 14830 5713 1 109.50000 418.400000
4999 14830 7644 1 109.50000 418.400000
4999 14830 9187 1 109.50000 418.400000
5713 14830 7644 1 109.50000 418.400000
5713 14830 9187 1 109.50000 418.400000
7644 14830 9187 1 109.50000 418.400000
5584 14831 7481 1 109.50000 418.400000
5584 14831 8765 1 109.50000 418.400000
5584 14831 9188 1 109.50000 418.400000
7481 14831 8765 1 109.50000 418.400000
7481 14831 9188 1 109.50000 418.400000
8765 14831 9188 1 109.50000 418.400000
9189 14832 9190 1 109.50000 418.400000
9189 14832 9191 1 109.50000 418.400000
9189 14832 11511 1 109.50000 418.400000
9190 14832 9191 1 109.50000 418.400000
9190 14832 11511 1 109.50000 418.400000
9191 14832 11511 1 109.50000 418.400000
3018 14833 3390 1 109.50000 418.400000
3018 14833 8539 1 109.50000 418.400000
3018 14833 9192 1 109.50000 418.400000
3390 14833 8539 1 109.50000 418.400000
3390 14833 9192 1 109.50000 418.400000
8539 14833 9192 1 109.50000 418.400000
3540 14834 9193 1 109.50000 418.400000
3540 14834 11140 1 109.50000 418.400000
3540 14834 11177 1 109.50000 418.400000
9193 14834 11140 1 109.50000 418.400000
9193 14834 11177 1 109.50000 418.400000
11140 14834 11177 1 109.50000 418.400000
598 14835 9194 1 109.50000 418.400000
598 14835 11411 1 109.50000 418.400000
598 14835 11553 1 109.50000 418.400000
9194 14835 11411 1 109.50000 418.400000
9194 14835 11553 1 109.50000 418.400000
11411 14835 11553 1 109.50000 418.400000
4691 14836 5963 1 109.50000 418.400000
4691 14836 5965 1 109.50000 418.400000
4691 14836 11157 1 109.50000 418.400000
5963 14836 5965 1 109.50000 418.400000
5963 14836 11157 1 109.50000 418.400000
5965 14836 11157 1 109.50000 418.400000
2159 14837 6561 1 109.50000 418.400000
2159 14837 8370 1 109.50000 418.400000
2159 14837 9195 1 109.50000 418.400000
6561 14837 8370 1 109.50000 418.400000
6561 14837 9195 1 109.50000 418.400000
8370 14837 9195 1 109.50000 418.400000
5531 14838 8263 1 109.50000 418.400000
5531 14838 9196 1 109.50000 418.400000
5531 14838 9197 1 109.50000 418.400000
8263 14838 9196 1 109.50000 418.400000
8263 14838 9197 1 109.50000 418.400000
9196 14838 9197 1 109.50000 418.400000
4827 14839 9198 1 109.50000 418.400000
4827 14839 9199 1 109.50000 418.400000
4827 14839 9200 1 109.50000 418.400000
9198 14839 9199 1 109.50000 418.400000
9198 14839 9200 1 109.50000 418.400000
9199 14839 9200 1 109.50000 418.400000
5375 14840 7144 1 109.50000 418.400000
5375 14840 9201 1 109.50000 418.400000
5375 14840 9202 1 109.50000 418.400000
7144 14840 9201 1 109.50000 418.400000
7144 14840 9202 1 109.50000 418.400000
9201 14840 9202 1 109.50000 418.400000
2977 14841 8293 1 109.50000 418.400000
2977 14841 9203 1 109.50000 418.400000
2977 14841 9204 1 109.50000 418.400000
8293 14841 9203 1 109.50000 418.400000
8293 14841 9204 1 109.50000 418.400000
9203 14841 9204 1 109.50000 418.400000
1522 14842 5271 1 109.50000 418.400000
1522 14842 9205 1 109.50000 418.400000
1522 14842 9206 1 109.50000 418.400000
5271 14842 9205 1 109.50000 418.400000
5271 14842 9206 1 109.50000 418.400000
9205 14842 9206 1 109.50000 418.400000
398 14843 400 1 109.50000 418.400000
398 14843 2911 1 109.50000 418.400000
398 14843 6209 1 109.50000 418.400000
400 14843 2911 1 109.50000 418.400000
400 14843 6209 1 109.50000 418.400000
2911 14843 6209 1 109.50000 418.400000
778 14844 9207 1 109.50000 418.400000
778 14844 9208 1 109.50000 418.400000
778 14844 9209 1 109.50000 418.400000
9207 14844 9208 1 109.50000 418.400000
9207 14844 9209 1 109.50000 418.400000
9208 14844 9209 1 109.50000 418.400000
597 14845 9210 1 109.50000 418.400000
597 14845 9211 1 109.50000 418.400000
597 14845 9212 1 109.50000 418.400000
9210 14845 9211 1 109.50000 418.400000
9210 14845 9212 1 109.50000 418.400000
9211 14845 9212 1 109.50000 418.400000
3187 14846 5684 1 109.50000 418.400000
3187 14846 5911 1 109.50000 418.400000
3187 14846 9213 1 109.50000 418.400000
5684 14846 5911 1 109.50000 418.400000
5684 14846 9213 1 109.50000 418.400000
5911 14846 9213 1 109.50000 418.400000
2071 14847 5035 1 109.50000 418.400000
2071 14847 5076 1 109.50000 418.400000
2071 14847 9214 1 109.50000 418.400000
5035 14847 5076 1 109.50000 418.400000
5035 14847 9214 1 109.50000 418.400000
5076 14847 9214 1 109.50000 418.400000
6185 14848 9215 1 109.50000 418.400000
6185 14848 9362 1 109.50000 418.400000
6185 14848 10920 1 109.50000 418.400000
9215 14848 9362 1 109.50000 418.400000
9215 14848 10920 1 109.50000 418.400000
9362 14848 10920 1 109.50000 418.400000
3597 14849 8501 1 109.50000 418.400000
3597 14849 8777 1 109.50000 418.400000
3597 14849 9218 1 109.50000 418.400000
8501 14849 8777 1 109.50000 418.400000
8501 14849 9218 1 109.50000 418.400000
8777 14849 9218 1 109.50000 418.400000
2782 14850 6255 1 109.50000 418.400000
2782 14850 8254 1 109.50000 418.400000
2782 14850 9219 1 109.50000 418.400000
6255 14850 8254 1 109.50000 418.400000
6255 14850 9219 1 109.50000 418.400000
8254 14850 9219 1 109.50000 418.400000
3319 14851 6208 1 109.50000 418.400000
3319 14851 9220 1 109.50000 418.400000
3319 14851 9221 1 109.50000 418.400000
6208 14851 9220 1 109.50000 418.400000
6208 14851 9221 1 109.50000 418.400000
9220 14851 9221 1 109.50000 418.400000
1311 14852 1320 1 109.50000 418.400000
1311 14852 6637 1 109.50000 418.400000
1311 14852 9222 1 109.50000 418.400000
1320 14852 6637 1 109.50000 418.400000
1320 14852 9222 1 109.50000 418.400000
6637 14852 9222 1 109.50000 418.400000
1902 14853 1905 1 109.50000 418.400000
1902 14853 9223 1 109.50000 418.400000
1902 14853 9224 1 109.50000 418.400000
1905 14853 9223 1 109.50000 418.400000
1905 14853 9224 1 109.50000 418.400000
9223 14853 9224 1 109.50000 418.400000
4335 14854 4788 1 109.50000 418.400000
4335 14854 6777 1 109.50000 418.400000
4335 14854 9225 1 109.50000 418.400000
4788 14854 6777 1 109.50000 418.400000
4788 14854 9225 1 109.50000 418.400000
6777 14854 9225 1 109.50000 418.400000
2750 14855 8051 1 109.50000 418.400000
2750 14855 9226 1 109.50000 418.400000
2750 14855 9227 1 109.50000 418.400000
8051 14855 9226 1 109.50000 418.400000
8051 14855 9227 1 109.50000 418.400000
9226 14855 9227 1 109.50000 418.400000
6797 14856 7227 1 109.50000 418.400000
6797 14856 8066 1 109.50000 418.400000
6797 14856 9228 1 109.50000 418.400000
7227 14856 8066 1 109.50000 418.400000
7227 14856 9228 1 109.50000 418.400000
8066 14856 9228 1 109.50000 418.400000
1034 14857 4378 1 109.50000 418.400000
1034 14857 11236 1 109.50000 418.400000
1034 14857 11354 1 109.50000 418.400000
4378 14857 11236 1 109.50000 418.400000
4378 14857 11354 1 109.50000 418.400000
11236 14857 11354 1 109.50000 418.400000
1477 14858 9229 1 109.50000 418.400000
1477 14858 9230 1 109.50000 418.400000
1477 14858 9231 1 109.50000 418.400000
9229 14858 9230 1 109.50000 418.400000
9229 14858 9231 1 109.50000 418.400000
9230 14858 9231 1 109.50000 418.400000
2084 14859 3816 1 109.50000 418.400000
2084 14859 5748 1 109.50000 418.400000
2084 14859 7106 1 109.50000 418.400000
3816 14859 5748 1 109.50000 418.400000
3816 14859 7106 1 109.50000 418.400000
5748 14859 7106 1 109.50000 418.400000
906 14860 909 1 109.50000 418.400000
906 14860 6923 1 109.50000 418.400000
906 14860 6924 1 109.50000 418.400000
909 14860 6923 1 109.50000 418.400000
909 14860 6924 1 109.50000 418.400000
6923 14860 6924 1 109.50000 418.400000
5125 14861 6770 1 109.50000 418.400000
5125 14861 9232 1 109.50000 418.400000
5125 14861 9233 1 109.50000 418.400000
6770 14861 9232 1 109.50000 418.400000
6770 14861 9233 1 109.50000 418.400000
9232 14861 9233 1 109.50000 418.400000
386 14862 4588 1 109.50000 418.400000
386 14862 8021 1 109.50000 418.400000
386 14862 9219 1 109.50000 418.400000
4588 14862 8021 1 109.50000 418.400000
4588 14862 9219 1 109.50000 418.400000
8021 14862 9219 1 109.50000 418.400000
455 14863 5669 1 109.50000 418.400000
455 14863 9234 1 109.50000 418.400000
455 14863 9235 1 109.50000 418.400000
5669 14863 9234 1 109.50000 418.400000
5669 14863 9235 1 109.50000 418.400000
9234 14863 9235 1 109.50000 418.400000
616 14864 8056 1 109.50000 418.400000
616 14864 9236 1 109.50000 418.400000
616 14864 9237 1 109.50000 418.400000
8056 14864 9236 1 109.50000 418.400000
8056 14864 9237 1 109.50000 418.400000
9236 14864 9237 1 109.50000 418.400000
4622 14865 5687 1 109.50000 418.400000
4622 14865 9238 1 109.50000 418.400000
4622 14865 9239 1 109.50000 418.400000
5687 14865 9238 1 109.50000 418.400000
5687 14865 9239 1 109.50000 418.400000
9238 14865 9239 1 109.50000 418.400000
2168 14866 9240 1 109.50000 418.400000
2168 14866 9241 1 109.50000 418.400000
2168 14866 9242 1 109.50000 418.400000
9240 14866 9241 1 109.50000 418.400000
9240 14866 9242 1 109.50000 418.400000
9241 14866 9242 1 109.50000 418.400000
5098 14867 7235 1 109.50000 418.400000
5098 14867 9243 1 109.50000 418.400000
5098 14867 9244 1 109.50000 418.400000
7235 14867 9243 1 109.50000 418.400000
7235 14867 9244 1 109.50000 418.400000
9243 14867 9244 1 109.50000 418.400000
3412 14868 9245 1 109.50000 418.400000
3412 14868 9246 1 109.50000 418.400000
3412 14868 9247 1 109.50000 418.400000
9245 14868 9246 1 109.50000 418.400000
9245 14868 9247 1 109.50000 418.400000
9246 14868 9247 1 109.50000 418.400000
7040 14869 9248 1 109.50000 418.400000
7040 14869 9249 1 109.50000 418.400000
7040 14869 9250 1 109.50000 418.400000
9248 14869 9249 1 109.50000 418.400000
9248 14869 9250 1 109.50000 418.400000
9249 14869 9250 1 109.50000 418.400000
2503 14870 8525 1 109.50000 418.400000
2503 14870 9251 1 109.50000 418.400000
2503 14870 9252 1 109.50000 418.400000
8525 14870 9251 1 109.50000 418.400000
8525 14870 9252 1 109.50000 418.400000
9251 14870 9252 1 109.50000 418.400000
4421 14871 6606 1 109.50000 418.400000
4421 14871 7682 1 109.50000 418.400000
4421 14871 9253 1 109.50000 418.400000
6606 14871 7682 1 109.50000 418.400000
6606 14871 9253 1 109.50000 418.400000
7682 14871 9253 1 109.50000 418.400000
6350 14872 6380 1 109.50000 418.400000
6350 14872 9254 1 109.50000 418.400000
6350 14872 11585 1 109.50000 418.400000
6380 14872 9254 1 109.50000 418.400000
6380 14872 11585 1 109.50000 418.400000
9254 14872 11585 1 109.50000 418.400000
6044 14873 7352 1 109.50000 418.400000
6044 14873 9255 1 109.50000 418.400000
6044 14873 9256 1 109.50000 418.400000
7352 14873 9255 1 109.50000 418.400000
7352 14873 9256 1 109.50000 418.400000
9255 14873 9256 1 109.50000 418.400000
472 14874 5524 1 109.50000 418.400000
472 14874 9257 1 109.50000 418.400000
472 14874 9258 1 109.50000 418.400000
5524 14874 9257 1 109.50000 418.400000
5524 14874 9258 1 109.50000 418.400000
9257 14874 9258 1 109.50000 418.400000
5757 14875 7292 1 109.50000 418.400000
5757 14875 9259 1 109.50000 418.400000
5757 14875 9260 1 109.50000 418.400000
7292 14875 9259 1 109.50000 418.400000
7292 14875 9260 1 109.50000 418.400000
9259 14875 9260 1 109.50000 418.400000
4716 14876 4892 1 109.50000 418.400000
4716 14876 9261 1 109.50000 418.400000
4716 14876 9262 1 109.50000 418.400000
4892 14876 9261 1 109.50000 418.400000
4892 14876 9262 1 109.50000 418.400000
9261 14876 9262 1 109.50000 418.400000
9263 14877 9264 1 109.50000 418.400000
9263 14877 11391 1 109.50000 418.400000
9263 14877 11440 1 109.50000 418.400000
9264 14877 11391 1 109.50000 418.400000
9264 14877 11440 1 109.50000 418.400000
11391 14877 11440 1 109.50000 418.400000
2096 14878 6192 1 109.50000 418.400000
2096 14878 9249 1 109.50000 418.400000
2096 14878 9265 1 109.50000 418.400000
6192 14878 9249 1 109.50000 418.400000
6192 14878 9265 1 109.50000 418.400000
9249 14878 9265 1 109.50000 418.400000
302 14879 3673 1 109.50000 418.400000
302 14879 7089 1 109.50000 418.400000
302 14879 9063 1 109.50000 418.400000
3673 14879 7089 1 109.50000 418.400000
3673 14879 9063 1 109.50000 418.400000
7089 14879 9063 1 109.50000 418.400000
5069 14880 7625 1 109.50000 418.400000
5069 14880 11234 1 109.50000 418.400000
5069 14880 11570 1 109.50000 418.400000
7625 14880 11234 1 109.50000 418.400000
7625 14880 11570 1 109.50000 418.400000
11234 14880 11570 1 109.50000 418.400000
1207 14881 3332 1 109.50000 418.400000
1207 14881 11252 1 109.50000 418.400000
1207 14881 11262 1 109.50000 418.400000
3332 14881 11252 1 109.50000 418.400000
3332 14881 11262 1 109.50000 418.400000
11252 14881 11262 1 109.50000 418.400000
6857 14882 9266 1 109.50000 418.400000
6857 14882 9267 1 109.50000 418.400000
6857 14882 9268 1 109.50000 418.400000
9266 14882 9267 1 109.50000 418.400000
9266 14882 9268 1 109.50000 418.400000
9267 14882 9268 1 109.50000 418.400000
1889 14883 7433 1 109.50000 418.400000
1889 14883 9269 1 109.50000 418.400000
1889 14883 11456 1 109.50000 418.400000
7433 14883 9269 1 109.50000 418.400000
7433 14883 11456 1 109.50000 418.400000
9269 14883 11456 1 109.50000 418.400000
3919 14884 6397 1 109.50000 418.400000
3919 14884 9012 1 109.50000 418.400000
3919 14884 9270 1 109.50000 418.400000
6397 14884 9012 1 109.50000 418.400000
6397 14884 9270 1 109.50000 418.400000
9012 14884 9270 1 109.50000 418.400000
7044 14885 9272 1 109.50000 418.400000
7044 14885 9273 1 109.50000 418.400000
7044 14885 9274 1 109.50000 418.400000
9272 14885 9273 1 109.50000 418.400000
9272 14885 9274 1 109.50000 418.400000
9273 14885 9274 1 109.50000 418.400000
1219 14886 4551 1 109.50000 418.400000
1219 14886 5837 1 109.50000 418.400000
1219 14886 9275 1 109.50000 418.400000
4551 14886 5837 1 109.50000 418.400000
4551 14886 9275 1 109.50000 418.400000
5837 14886 9275 1 109.50000 418.400000
4515 14887 8601 1 109.50000 418.400000
4515 14887 9276 1 109.50000 418.400000
4515 14887 11301 1 109.50000 418.400000
8601 14887 9276 1 109.50000 418.400000
8601 14887 11301 1 109.50000 418.400000
9276 14887 11301 1 109.50000 418.400000
184 14888 278 1 109.50000 418.400000
184 14888 3009 1 109.50000 418.400000
184 14888 9277 1 109.50000 418.400000
278 14888 3009 1 109.50000 418.400000
278 14888 9277 1 109.50000 418.400000
3009 14888 9277 1 109.50000 418.400000
3573 14889 4475 1 109.50000 418.400000
3573 14889 7572 1 109.50000 418.400000
3573 14889 9278 1 109.50000 418.400000
4475 14889 7572 1 109.50000 418.400000
4475 14889 9278 1 109.50000 418.400000
7572 14889 9278 1 109.50000 418.400000
265 14890 9279 1 109.50000 418.400000
265 14890 9280 1 109.50000 418.400000
265 14890 9281 1 109.50000 418.400000
9279 14890 9280 1 109.50000 418.400000
9279 14890 9281 1 109.50000 418.400000
9280 14890 9281 1 109.50000 418.400000
1997 14891 2669 1 109.50000 418.400000
1997 14891 8796 1 109.50000 418.400000
1997 14891 9282 1 109.50000 418.400000
2669 14891 8796 1 109.50000 418.400000
2669 14891 9282 1 109.50000 418.400000
8796 14891 9282 1 109.50000 418.400000
1454 14892 2473 1 109.50000 418.400000
1454 14892 4854 1 109.50000 418.400000
1454 14892 5444 1 109.50000 418.400000
2473 14892 4854 1 109.50000 418.400000
2473 14892 5444 1 109.50000 418.400000
4854 14892 5444 1 109.50000 418.400000
3101 14893 7657 1 109.50000 418.400000
3101 14893 9284 1 109.50000 418.400000
3101 14893 11464 1 109.50000 418.400000
7657 14893 9284 1 109.50000 418.400000
7657 14893 11464 1 109.50000 418.400000
9284 14893 11464 1 109.50000 418.400000
354 14894 1839 1 109.50000 418.400000
354 14894 6493 1 109.50000 418.400000
354 14894 9285 1 109.50000 418.400000
1839 14894 6493 1 109.50000 418.400000
1839 14894 9285 1 109.50000 418.400000
6493 14894 9285 1 109.50000 418.400000
3220 14895 8389 1 109.50000 418.400000
3220 14895 9286 1 109.50000 418.400000
3220 14895 11173 1 109.50000 418.400000
8389 14895 9286 1 109.50000 418.400000
8389 14895 11173 1 109.50000 418.400000
9286 14895 11173 1 109.50000 418.400000
6460 14896 7333 1 109.50000 418.400000
6460 14896 9287 1 109.50000 418.400000
6460 14896 9288 1 109.50000 418.400000
7333 14896 9287 1 109.50000 418.400000
7333 14896 9288 1 109.50000 418.400000
9287 14896 9288 1 109.50000 418.400000
7392 14897 9289 1 109.50000 418.400000
7392 14897 9290 1 109.50000 418.400000
7392 14897 9291 1 109.50000 418.400000
9289 14897 9290 1 109.50000 418.400000
9289 14897 9291 1 109.50000 418.400000
9290 14897 9291 1 109.50000 418.400000
1359 14898 9213 1 109.50000 418.400000
1359 14898 9292 1 109.50000 418.400000
1359 14898 9293 1 109.50000 418.400000
9213 14898 9292 1 109.50000 418.400000
9213 14898 9293 1 109.50000 418.400000
9292 14898 9293 1 109.50000 418.400000
4747 14899 7608 1 109.50000 418.400000
4747 14899 8320 1 109.50000 418.400000
4747 14899 8835 1 109.50000 418.400000
7608 14899 8320 1 109.50000 418.400000
7608 14899 8835 1 109.50000 418.400000
8320 14899 8835 1 109.50000 418.400000
1682 14900 4350 1 109.50000 418.400000
1682 14900 6725 1 109.50000 418.400000
1682 14900 9294 1 109.50000 418.400000
4350 14900 6725 1 109.50000 418.400000
4350 14900 9294 1 109.50000 418.400000
6725 14900 9294 1 109.50000 418.400000
604 14901 6948 1 109.50000 418.400000
604 14901 9295 1 109.50000 418.400000
604 14901 9296 1 109.50000 418.400000
6948 14901 9295 1 109.50000 418.400000
6948 14901 9296 1 109.50000 418.400000
9295 14901 9296 1 109.50000 418.400000
2593 14902 9297 1 109.50000 418.400000
2593 14902 9298 1 109.50000 418.400000
2593 14902 9299 1 109.50000 418.400000
9297 14902 9298 1 109.50000 418.400000
9297 14902 9299 1 109.50000 418.400000
9298 14902 9299 1 109.50000 418.400000
2978 14903 6429 1 109.50000 418.400000
2978 14903 9300 1 109.50000 418.400000
2978 14903 9301 1 109.50000 418.400000
6429 14903 9300 1 109.50000 418.400000
6429 14903 9301 1 109.50000 418.400000
9300 14903 9301 1 109.50000 418.400000
1851 14904 8192 1 109.50000 418.400000
1851 14904 9302 1 109.50000 418.400000
1851 14904 9303 1 109.50000 418.400000
8192 14904 9302 1 109.50000 418.400000
8192 14904 9303 1 109.50000 418.400000
9302 14904 9303 1 109.50000 418.400000
5768 14905 8204 1 109.50000 418.400000
5768 14905 9280 1 109.50000 418.400000
5768 14905 9304 1 109.50000 418.400000
8204 14905 9280 1 109.50000 418.400000
8204 14905 9304 1 109.50000 418.400000
9280 14905 9304 1 109.50000 418.400000
793 14906 9305 1 109.50000 418.400000
793 14906 9306 1 109.50000 418.400000
793 14906 9307 1 109.50000 418.400000
9305 14906 9306 1 109.50000 418.400000
9305 14906 9307 1 109.50000 418.400000
9306 14906 9307 1 109.50000 418.400000
3272 14907 7165 1 109.50000 418.400000
3272 14907 8890 1 109.50000 418.400000
3272 14907 9308 1 109.50000 418.400000
7165 14907 8890 1 109.50000 418.400000
7165 14907 9308 1 109.50000 418.400000
8890 14907 9308 1 109.50000 418.400000
857 14908 6099 1 109.50000 418.400000
857 14908 8573 1 109.50000 418.400000
857 14908 8701 1 109.50000 418.400000
6099 14908 8573 1 109.50000 418.400000
6099 14908 8701 1 109.50000 418.400000
8573 14908 8701 1 109.50000 418.400000
1842 14909 3856 1 109.50000 418.400000
1842 14909 8779 1 109.50000 418.400000
1842 14909 9309 1 109.50000 418.400000
3856 14909 8779 1 109.50000 418.400000
3856 14909 9309 1 109.50000 418.400000
8779 14909 9309 1 109.50000 418.400000
3985 14910 6083 1 109.50000 418.400000
3985 14910 9310 1 109.50000 418.400000
3985 14910 9311 1 109.50000 418.400000
6083 14910 9310 1 109.50000 418.400000
6083 14910 9311 1 109.50000 418.400000
9310 14910 9311 1 109.50000 418.400000
8168 14911 9312 1 109.50000 418.400000
8168 14911 9313 1 109.50000 418.400000
8168 14911 9314 1 109.50000 418.400000
9312 14911 9313 1 109.50000 418.400000
9312 14911 9314 1 109.50000 418.400000
9313 14911 9314 1 109.50000 418.400000
2664 14912 7415 1 109.50000 418.400000
2664 14912 8216 1 109.50000 418.400000
2664 14912 8217 1 109.50000 418.400000
7415 14912 8216 1 109.50000 418.400000
7415 14912 8217 1 109.50000 418.400000
8216 14912 8217 1 109.50000 418.400000
5511 14913 8695 1 109.50000 418.400000
5511 14913 9315 1 109.50000 418.400000
5511 14913 9316 1 109.50000 418.400000
8695 14913 9315 1 109.50000 418.400000
8695 14913 9316 1 109.50000 418.400000
9315 14913 9316 1 109.50000 418.400000
1965 14914 2371 1 109.50000 418.400000
1965 14914 3102 1 109.50000 418.400000
1965 14914 9317 1 109.50000 418.400000
2371 14914 3102 1 109.50000 418.400000
2371 14914 9317 1 109.50000 418.400000
3102 14914 9317 1 109.50000 418.400000
6301 14915 7641 1 109.50000 418.400000
6301 14915 8868 1 109.50000 418.400000
6301 14915 9085 1 109.50000 418.400000
7641 14915 8868 1 109.50000 418.400000
7641 14915 9085 1 109.50000 418.400000
8868 14915 9085 1 109.50000 418.400000
1400 14916 6249 1 109.50000 418.400000
1400 14916 6542 1 109.50000 418.400000
1400 14916 8857 1 109.50000 418.400000
6249 14916 6542 1 109.50000 418.400000
6249 14916 8857 1 109.50000 418.400000
6542 14916 8857 1 109.50000 418.400000
6085 14917 9318 1 109.50000 418.400000
6085 14917 9319 1 109.50000 418.400000
6085 14917 9320 1 109.50000 418.400000
9318 14917 9319 1 109.50000 418.400000
9318 14917 9320 1 109.50000 418.400000
9319 14917 9320 1 109.50000 418.400000
6546 14918 7320 1 109.50000 418.400000
6546 14918 9321 1 109.50000 418.400000
6546 14918 9322 1 109.50000 418.400000
7320 14918 9321 1 109.50000 418.400000
7320 14918 9322 1 109.50000 418.400000
9321 14918 9322 1 109.50000 418.400000
3070 14919 5523 1 109.50000 418.400000
3070 14919 5603 1 109.50000 418.400000
3070 14919 9323 1 109.50000 418.400000
5523 14919 5603 1 109.50000 418.400000
5523 14919 9323 1 109.50000 418.400000
5603 14919 9323 1 109.50000 418.400000
1084 14920 8891 1 109.50000 418.400000
1084 14920 9324 1 109.50000 418.400000
1084 14920 9325 1 109.50000 418.400000
8891 14920 9324 1 109.50000 418.400000
8891 14920 9325 1 109.50000 418.400000
9324 14920 9325 1 109.50000 418.400000
7339 14921 7448 1 109.50000 418.400000
7339 14921 7743 1 109.50000 418.400000
7339 14921 9138 1 109.50000 418.400000
7448 14921 7743 1 109.50000 418.400000
7448 14921 9138 1 109.50000 418.400000
7743 14921 9138 1 109.50000 418.400000
3130 14922 3349 1 109.50000 418.400000
3130 14922 9326 1 109.50000 418.400000
3130 14922 9327 1 109.50000 418.400000
3349 14922 9326 1 109.50000 418.400000
3349 14922 9327 1 109.50000 418.400000
9326 14922 9327 1 109.50000 418.400000
1532 14923 5265 1 109.50000 418.400000
1532 14923 7158 1 109.50000 418.400000
1532 14923 9328 1 109.50000 418.400000
5265 14923 7158 1 109.50000 418.400000
5265 14923 9328 1 109.50000 418.400000
7158 14923 9328 1 109.50000 418.400000
6034 14924 6464 1 109.50000 418.400000
6034 14924 8089 1 109.50000 418.400000
6034 14924 9330 1 109.50000 418.400000
6464 14924 8089 1 109.50000 418.400000
6464 14924 9330 1 109.50000 418.400000
8089 14924 9330 1 109.50000 418.400000
9244 14925 9331 1 109.50000 418.400000
9244 14925 9332 1 109.50000 418.400000
9244 14925 9333 1 109.50000 418.400000
9331 14925 9332 1 109.50000 418.400000
9331 14925 9333 1 109.50000 418.400000
9332 14925 9333 1 109.50000 418.400000
5594 14926 7703 1 109.50000 418.400000
5594 14926 9334 1 109.50000 418.400000
5594 14926 9335 1 109.50000 418.400000
7703 14926 9334 1 109.50000 418.400000
7703 14926 9335 1 109.50000 418.400000
9334 14926 9335 1 109.50000 418.400000
1900 14927 3915 1 109.50000 418.400000
1900 14927 8036 1 109.50000 418.400000
1900 14927 9336 1 109.50000 418.400000
3915 14927 8036 1 109.50000 418.400000
3915 14927 9336 1 109.50000 418.400000
8036 14927 9336 1 109.50000 418.400000
8452 14928 8989 1 109.50000 418.400000
8452 14928 9337 1 109.50000 418.400000
8452 14928 9338 1 109.50000 418.400000
8989 14928 9337 1 109.50000 418.400000
8989 14928 9338 1 109.50000 418.400000
9337 14928 9338 1 109.50000 418.400000
1114 14929 4138 1 109.50000 418.400000
1114 14929 8377 1 109.50000 418.400000
1114 14929 9339 1 109.50000 418.400000
4138 14929 8377 1 109.50000 418.400000
4138 14929 9339 1 109.50000 418.400000
8377 14929 9339 1 109.50000 418.400000
4962 14930 9340 1 109.50000 418.400000
4962 14930 9341 1 109.50000 418.400000
4962 14930 10737 1 109.50000 418.400000
9340 14930 9341 1 109.50000 418.400000
9340 14930 10737 1 109.50000 418.400000
9341 14930 10737 1 109.50000 418.400000
831 14931 1680 1 109.50000 418.400000
831 14931 9342 1 109.50000 418.400000
831 14931 9343 1 109.50000 418.400000
1680 14931 9342 1 109.50000 418.400000
1680 14931 9343 1 109.50000 418.400000
9342 14931 9343 1 109.50000 418.400000
2618 14932 2805 1 109.50000 418.400000
2618 14932 9344 1 109.50000 418.400000
2618 14932 9345 1 109.50000 418.400000
2805 14932 9344 1 109.50000 418.400000
2805 14932 9345 1 109.50000 418.400000
9344 14932 9345 1 109.50000 418.400000
3675 14933 4035 1 109.50000 418.400000
3675 14933 7034 1 109.50000 418.400000
3675 14933 9346 1 109.50000 418.400000
4035 14933 7034 1 109.50000 418.400000
4035 14933 9346 1 109.50000 418.400000
7034 14933 9346 1 109.50000 418.400000
3621 14934 6193 1 109.50000 418.400000
3621 14934 7327 1 109.50000 418.400000
3621 14934 9347 1 109.50000 418.400000
6193 14934 7327 1 109.50000 418.400000
6193 14934 9347 1 109.50000 418.400000
7327 14934 9347 1 109.50000 418.400000
8368 14935 9054 1 109.50000 418.400000
8368 14935 9348 1 109.50000 418.400000
8368 14935 11563 1 109.50000 418.400000
9054 14935 9348 1 109.50000 418.400000
9054 14935 11563 1 109.50000 418.400000
9348 14935 11563 1 109.50000 418.400000
886 14936 6635 1 109.50000 418.400000
886 14936 9151 1 109.50000 418.400000
886 14936 9349 1 109.50000 418.400000
6635 14936 9151 1 109.50000 418.400000
6635 14936 9349 1 109.50000 418.400000
9151 14936 9349 1 109.50000 418.400000
4173 14937 7977 1 109.50000 418.400000
4173 14937 8976 1 109.50000 418.400000
4173 14937 9350 1 109.50000 418.400000
7977 14937 8976 1 109.50000 418.400000
7977 14937 9350 1 109.50000 418.400000
8976 14937 9350 1 109.50000 418.400000
1607 14938 5689 1 109.50000 418.400000
1607 14938 9351 1 109.50000 418.400000
1607 14938 9352 1 109.50000 418.400000
5689 14938 9351 1 109.50000 418.400000
5689 14938 9352 1 109.50000 418.400000
9351 14938 9352 1 109.50000 418.400000
49 14939 766 1 109.50000 418.400000
49 14939 5432 1 109.50000 418.400000
49 14939 9354 1 109.50000 418.400000
766 14939 5432 1 109.50000 418.400000
766 14939 9354 1 109.50000 418.400000
5432 14939 9354 1 109.50000 418.400000
6212 14940 8623 1 109.50000 418.400000
6212 14940 9355 1 109.50000 418.400000
6212 14940 9356 1 109.50000 418.400000
8623 14940 9355 1 109.50000 418.400000
8623 14940 9356 1 109.50000 418.400000
9355 14940 9356 1 109.50000 418.400000
666 14941 1511 1 109.50000 418.400000
666 14941 3824 1 109.50000 418.400000
666 14941 9357 1 109.50000 418.400000
1511 14941 3824 1 109.50000 418.400000
1511 14941 9357 1 109.50000 418.400000
3824 14941 9357 1 109.50000 418.400000
6980 14942 7277 1 109.50000 418.400000
6980 14942 9358 1 109.50000 418.400000
6980 14942 9360 1 109.50000 418.400000
7277 14942 9358 1 109.50000 418.400000
7277 14942 9360 1 109.50000 418.400000
9358 14942 9360 1 109.50000 418.400000
2533 14943 4472 1 109.50000 418.400000
2533 14943 6972 1 109.50000 418.400000
2533 14943 9361 1 109.50000 418.400000
4472 14943 6972 1 109.50000 418.400000
4472 14943 9361 1 109.50000 418.400000
6972 14943 9361 1 109.50000 418.400000
6539 14944 6757 1 109.50000 418.400000
6539 14944 8948 1 109.50000 418.400000
6539 14944 9216 1 109.50000 418.400000
6757 14944 8948 1 109.50000 418.400000
6757 14944 9216 1 109.50000 418.400000
8948 14944 9216 1 109.50000 418.400000
2767 14945 7872 1 109.50000 418.400000
2767 14945 9363 1 109.50000 418.400000
2767 14945 9364 1 109.50000 418.400000
7872 14945 9363 1 109.50000 418.400000
7872 14945 9364 1 109.50000 418.400000
9363 14945 9364 1 109.50000 418.400000
6996 14946 9365 1 109.50000 418.400000
6996 14946 9366 1 109.50000 418.400000
6996 14946 9367 1 109.50000 418.400000
9365 14946 9366 1 109.50000 418.400000
9365 14946 9367 1 109.50000 418.400000
9366 14946 9367 1 109.50000 418.400000
6453 14947 6631 1 109.50000 418.400000
6453 14947 9368 1 109.50000 418.400000
6453 14947 9369 1 109.50000 418.400000
6631 14947 9368 1 109.50000 418.400000
6631 14947 9369 1 109.50000 418.400000
9368 14947 9369 1 109.50000 418.400000
7410 14948 7901 1 109.50000 418.400000
7410 14948 7919 1 109.50000 418.400000
7410 14948 9370 1 109.50000 418.400000
7901 14948 7919 1 109.50000 418.400000
7901 14948 9370 1 109.50000 418.400000
7919 14948 9370 1 109.50000 418.400000
236 14949 6964 1 109.50000 418.400000
236 14949 9371 1 109.50000 418.400000
236 14949 9372 1 109.50000 418.400000
6964 14949 9371 1 109.50000 418.400000
6964 14949 9372 1 109.50000 418.400000
9371 14949 9372 1 109.50000 418.400000
963 14950 2448 1 109.50000 418.400000
963 14950 6846 1 109.50000 418.400000
963 14950 9373 1 109.50000 418.400000
2448 14950 6846 1 109.50000 418.400000
2448 14950 9373 1 109.50000 418.400000
6846 14950 9373 1 109.50000 418.400000
3449 14951 5026 1 109.50000 418.400000
3449 14951 9374 1 109.50000 418.400000
3449 14951 10082 1 109.50000 418.400000
5026 14951 9374 1 109.50000 418.400000
5026 14951 10082 1 109.50000 418.400000
9374 14951 10082 1 109.50000 418.400000
2783 14952 8277 1 109.50000 418.400000
2783 14952 9376 1 109.50000 418.400000
2783 14952 9377 1 109.50000 418.400000
8277 14952 9376 1 109.50000 418.400000
8277 14952 9377 1 109.50000 418.400000
9376 14952 9377 1 109.50000 418.400000
42 14953 9378 1 109.50000 418.400000
42 14953 9379 1 109.50000 418.400000
42 14953 9777 1 109.50000 418.400000
9378 14953 9379 1 109.50000 418.400000
9378 14953 9777 1 109.50000 418.400000
9379 14953 9777 1 109.50000 418.400000
3812 14954 3815 1 109.50000 418.400000
3812 14954 9380 1 109.50000 418.400000
3812 14954 9381 1 109.50000 418.400000
3815 14954 9380 1 109.50000 418.400000
3815 14954 9381 1 109.50000 418.400000
9380 14954 9381 1 109.50000 418.400000
6779 14955 9382 1 109.50000 418.400000
6779 14955 9383 1 109.50000 418.400000
6779 14955 9485 1 109.50000 418.400000
9382 14955 9383 1 109.50000 418.400000
9382 14955 9485 1 109.50000 418.400000
9383 14955 9485 1 109.50000 418.400000
845 14956 3628 1 109.50000 418.400000
845 14956 5348 1 109.50000 418.400000
845 14956 11568 1 109.50000 418.400000
3628 14956 5348 1 109.50000 418.400000
3628 14956 11568 1 109.50000 418.400000
5348 14956 11568 1 109.50000 418.400000
5715 14957 6813 1 109.50000 418.400000
5715 14957 7665 1 109.50000 418.400000
5715 14957 9384 1 109.50000 418.400000
6813 14957 7665 1 109.50000 418.400000
6813 14957 9384 1 109.50000 418.400000
7665 14957 9384 1 109.50000 418.400000
8203 14958 9385 1 109.50000 418.400000
8203 14958 9386 1 109.50000 418.400000
8203 14958 9387 1 109.50000 418.400000
9385 14958 9386 1 109.50000 418.400000
9385 14958 9387 1 109.50000 418.400000
9386 14958 9387 1 109.50000 418.400000
1789 14959 8357 1 109.50000 418.400000
1789 14959 9389 1 109.50000 418.400000
1789 14959 9390 1 109.50000 418.400000
8357 14959 9389 1 109.50000 418.400000
8357 14959 9390 1 109.50000 418.400000
9389 14959 9390 1 109.50000 418.400000
5241 14960 6703 1 109.50000 418.400000
5241 14960 6704 1 109.50000 418.400000
5241 14960 9391 1 109.50000 418.400000
6703 14960 6704 1 109.50000 418.400000
6703 14960 9391 1 109.50000 418.400000
6704 14960 9391 1 109.50000 418.400000
4935 14961 5939 1 109.50000 418.400000
4935 14961 8441 1 109.50000 418.400000
4935 14961 9392 1 109.50000 418.400000
5939 14961 8441 1 109.50000 418.400000
5939 14961 9392 1 109.50000 418.400000
8441 14961 9392 1 109.50000 418.400000
7067 14962 9393 1 109.50000 418.400000
7067 14962 9394 1 109.50000 418.400000
7067 14962 9395 1 109.50000 418.400000
9393 14962 9394 1 109.50000 418.400000
9393 14962 9395 1 109.50000 418.400000
9394 14962 9395 1 109.50000 418.400000
5470 14963 6472 1 109.50000 418.400000
5470 14963 8797 1 109.50000 418.400000
5470 14963 9396 1 109.50000 418.400000
6472 14963 8797 1 109.50000 418.400000
6472 14963 9396 1 109.50000 418.400000
8797 14963 9396 1 109.50000 418.400000
663 14964 2803 1 109.50000 418.400000
663 14964 5494 1 109.50000 418.400000
663 14964 7731 1 109.50000 418.400000
2803 14964 5494 1 109.50000 418.400000
2803 14964 7731 1 109.50000 418.400000
5494 14964 7731 1 109.50000 418.400000
2722 14965 9397 1 109.50000 418.400000
2722 14965 9398 1 109.50000 418.400000
2722 14965 9399 1 109.50000 418.400000
9397 14965 9398 1 109.50000 418.400000
9397 14965 9399 1 109.50000 418.400000
9398 14965 9399 1 109.50000 418.400000
2225 14966 4310 1 109.50000 418.400000
2225 14966 5569 1 109.50000 418.400000
2225 14966 9400 1 109.50000 418.400000
4310 14966 5569 1 109.50000 418.400000
4310 14966 9400 1 109.50000 418.400000
5569 14966 9400 1 109.50000 418.400000
4296 14967 6111 1 109.50000 418.400000
4296 14967 7651 1 109.50000 418.400000
4296 14967 9401 1 109.50000 418.400000
6111 14967 7651 1 109.50000 418.400000
6111 14967 9401 1 109.50000 418.400000
7651 14967 9401 1 109.50000 418.400000
7784 14968 7785 1 109.50000 418.400000
7784 14968 9402 1 109.50000 418.400000
7784 14968 9403 1 109.50000 418.400000
7785 14968 9402 1 109.50000 418.400000
7785 14968 9403 1 109.50000 418.400000
9402 14968 9403 1 109.50000 418.400000
3545 14969 7622 1 109.50000 418.400000
3545 14969 8481 1 109.50000 418.400000
3545 14969 9404 1 109.50000 418.400000
7622 14969 8481 1 109.50000 418.400000
7622 14969 9404 1 109.50000 418.400000
8481 14969 9404 1 109.50000 418.400000
2292 14970 4925 1 109.50000 418.400000
2292 14970 7393 1 109.50000 418.400000
2292 14970 8660 1 109.50000 418.400000
4925 14970 7393 1 109.50000 418.400000
4925 14970 8660 1 109.50000 418.400000
7393 14970 8660 1 109.50000 418.400000
1907 14971 4440 1 109.50000 418.400000
1907 14971 4843 1 109.50000 418.400000
1907 14971 8652 1 109.50000 418.400000
4440 14971 4843 1 109.50000 418.400000
4440 14971 8652 1 109.50000 418.400000
4843 14971 8652 1 109.50000 418.400000
1270 14972 1321 1 109.50000 418.400000
1270 14972 7295 1 109.50000 418.400000
1270 14972 9406 1 109.50000 418.400000
1321 14972 7295 1 109.50000 418.400000
1321 14972 9406 1 109.50000 418.400000
7295 14972 9406 1 109.50000 418.400000
7640 14973 8356 1 109.50000 418.400000
7640 14973 9407 1 109.50000 418.400000
7640 14973 9408 1 109.50000 418.400000
8356 14973 9407 1 109.50000 418.400000
8356 14973 9408 1 109.50000 418.400000
9407 14973 9408 1 109.50000 418.400000
195 14974 3958 1 109.50000 418.400000
195 14974 7728 1 109.50000 418.400000
195 14974 9409 1 109.50000 418.400000
3958 14974 7728 1 109.50000 418.400000
3958 14974 9409 1 109.50000 418.400000
7728 14974 9409 1 109.50000 418.400000
288 14975 4007 1 109.50000 418.400000
288 14975 9410 1 109.50000 418.400000
288 14975 9411 1 109.50000 418.400000
4007 14975 9410 1 109.50000 418.400000
4007 14975 9411 1 109.50000 418.400000
9410 14975 9411 1 109.50000 418.400000
3452 14976 5127 1 109.50000 418.400000
3452 14976 9412 1 109.50000 418.400000
3452 14976 9413 1 109.50000 418.400000
5127 14976 9412 1 109.50000 418.400000
5127 14976 9413 1 109.50000 418.400000
9412 14976 9413 1 109.50000 418.400000
3361 14977 4473 1 109.50000 418.400000
3361 14977 8001 1 109.50000 418.400000
3361 14977 9414 1 109.50000 418.400000
4473 14977 8001 1 109.50000 418.400000
4473 14977 9414 1 109.50000 418.400000
8001 14977 9414 1 109.50000 418.400000
9415 14978 9416 1 109.50000 418.400000
9415 14978 9417 1 109.50000 418.400000
9415 14978 9418 1 109.50000 418.400000
9416 14978 9417 1 109.50000 418.400000
9416 14978 9418 1 109.50000 418.400000
9417 14978 9418 1 109.50000 418.400000
2508 14979 2668 1 109.50000 418.400000
2508 14979 7837 1 109.50000 418.400000
2508 14979 9419 1 109.50000 418.400000
2668 14979 7837 1 109.50000 418.400000
2668 14979 9419 1 109.50000 418.400000
7837 14979 9419 1 109.50000 418.400000
5895 14980 9420 1 109.50000 418.400000
5895 14980 9421 1 109.50000 418.400000
5895 14980 9422 1 109.50000 418.400000
9420 14980 9421 1 109.50000 418.400000
9420 14980 9422 1 109.50000 418.400000
9421 14980 9422 1 109.50000 418.400000
2889 14981 9423 1 109.50000 418.400000
2889 14981 9424 1 109.50000 418.400000
2889 14981 9425 1 109.50000 418.400000
9423 14981 9424 1 109.50000 418.400000
9423 14981 9425 1 109.50000 418.400000
9424 14981 9425 1 109.50000 418.400000
3792 14982 5682 1 109.50000 418.400000
3792 14982 7683 1 109.50000 418.400000
3792 14982 9426 1 109.50000 418.400000
5682 14982 7683 1 109.50000 418.400000
5682 14982 9426 1 109.50000 418.400000
7683 14982 9426 1 109.50000 418.400000
1582 14983 4289 1 109.50000 418.400000
1582 14983 6292 1 109.50000 418.400000
1582 14983 9427 1 109.50000 418.400000
4289 14983 6292 1 109.50000 418.400000
4289 14983 9427 1 109.50000 418.400000
6292 14983 9427 1 109.50000 418.400000
881 14984 7866 1 109.50000 418.400000
881 14984 9428 1 109.50000 418.400000
881 14984 9429 1 109.50000 418.400000
7866 14984 9428 1 109.50000 418.400000
7866 14984 9429 1 109.50000 418.400000
9428 14984 9429 1 109.50000 418.400000
5504 14985 9430 1 109.50000 418.400000
5504 14985 11276 1 109.50000 418.400000
5504 14985 11556 1 109.50000 418.400000
9430 14985 11276 1 109.50000 418.400000
9430 14985 11556 1 109.50000 418.400000
11276 14985 11556 1 109.50000 418.400000
7507 14986 7508 1 109.50000 418.400000
7507 14986 8392 1 109.50000 418.400000
7507 14986 9431 1 109.50000 418.400000
7508 14986 8392 1 109.50000 418.400000
7508 14986 9431 1 109.50000 418.400000
8392 14986 9431 1 109.50000 418.400000
2434 14987 9432 1 109.50000 418.400000
2434 14987 9433 1 109.50000 418.400000
2434 14987 9567 1 109.50000 418.400000
9432 14987 9433 1 109.50000 418.400000
9432 14987 9567 1 109.50000 418.400000
9433 14987 9567 1 109.50000 418.400000
4233 14988 7371 1 109.50000 418.400000
4233 14988 7384 1 109.50000 418.400000
4233 14988 9434 1 109.50000 418.400000
7371 14988 7384 1 109.50000 418.400000
7371 14988 9434 1 109.50000 418.400000
7384 14988 9434 1 109.50000 418.400000
1191 14989 4169 1 109.50000 418.400000
1191 14989 9435 1 109.50000 418.400000
1191 14989 9436 1 109.50000 418.400000
4169 14989 9435 1 109.50000 418.400000
4169 14989 9436 1 109.50000 418.400000
9435 14989 9436 1 109.50000 418.400000
703 14990 1322 1 109.50000 418.400000
703 14990 1804 1 109.50000 418.400000
703 14990 9437 1 109.50000 418.400000
1322 14990 1804 1 109.50000 418.400000
1322 14990 9437 1 109.50000 418.400000
1804 14990 9437 1 109.50000 418.400000
713 14991 2250 1 109.50000 418.400000
713 14991 3931 1 109.50000 418.400000
713 14991 5756 1 109.50000 418.400000
2250 14991 3931 1 109.50000 418.400000
2250 14991 5756 1 109.50000 418.400000
3931 14991 5756 1 109.50000 418.400000
6984 14992 8131 1 109.50000 418.400000
6984 14992 9438 1 109.50000 418.400000
6984 14992 9439 1 109.50000 418.400000
8131 14992 9438 1 109.50000 418.400000
8131 14992 9439 1 109.50000 418.400000
9438 14992 9439 1 109.50000 418.400000
1778 14993 5868 1 109.50000 418.400000
1778 14993 7445 1 109.50000 418.400000
1778 14993 9440 1 109.50000 418.400000
5868 14993 7445 1 109.50000 418.400000
5868 14993 9440 1 109.50000 418.400000
7445 14993 9440 1 109.50000 418.400000
5235 14994 9094 1 109.50000 418.400000
5235 14994 9250 1 109.50000 418.400000
5235 14994 9441 1 109.50000 418.400000
9094 14994 9250 1 109.50000 418.400000
9094 14994 9441 1 109.50000 418.400000
9250 14994 9441 1 109.50000 418.400000
5122 14995 8886 1 109.50000 418.400000
5122 14995 9442 1 109.50000 418.400000
5122 14995 9443 1 109.50000 418.400000
8886 14995 9442 1 109.50000 418.400000
8886 14995 9443 1 109.50000 418.400000
9442 14995 9443 1 109.50000 418.400000
3042 14996 7664 1 109.50000 418.400000
3042 14996 7726 1 109.50000 418.400000
3042 14996 9444 1 109.50000 418.400000
7664 14996 7726 1 109.50000 418.400000
7664 14996 9444 1 109.50000 418.400000
7726 14996 9444 1 109.50000 418.400000
9227 14997 9445 1 109.50000 418.400000
9227 14997 9446 1 109.50000 418.400000
9227 14997 9447 1 109.50000 418.400000
9445 14997 9446 1 109.50000 418.400000
9445 14997 9447 1 109.50000 418.400000
9446 14997 9447 1 109.50000 418.400000
6726 14998 9448 1 109.50000 418.400000
6726 14998 9449 1 109.50000 418.400000
6726 14998 9450 1 109.50000 418.400000
9448 14998 9449 1 109.50000 418.400000
9448 14998 9450 1 109.50000 418.400000
9449 14998 9450 1 109.50000 418.400000
2968 14999 7698 1 109.50000 418.400000
2968 14999 8410 1 109.50000 418.400000
2968 14999 9451 1 109.50000 418.400000
7698 14999 8410 1 109.50000 418.400000
7698 14999 9451 1 109.50000 418.400000
8410 14999 9451 1 109.50000 418.400000
6608 15000 7332 1 109.50000 418.400000
6608 15000 9453 1 109.50000 418.400000
6608 15000 9454 1 109.50000 418.400000
7332 15000 9453 1 109.50000 418.400000
7332 15000 9454 1 109.50000 418.400000
9453 15000 9454 1 109.50000 418.400000
1429 15001 5558 1 109.50000 418.400000
1429 15001 7840 1 109.50000 418.400000
1429 15001 9455 1 109.50000 418.400000
5558 15001 7840 1 109.50000 418.400000
5558 15001 9455 1 109.50000 418.400000
7840 15001 9455 1 109.50000 418.400000
9102 15002 9282 1 109.50000 418.400000
9102 15002 9412 1 109.50000 418.400000
9102 15002 9457 1 109.50000 418.400000
9282 15002 9412 1 109.50000 418.400000
9282 15002 9457 1 109.50000 418.400000
9412 15002 9457 1 109.50000 418.400000
1240 15003 2991 1 109.50000 418.400000
1240 15003 9458 1 109.50000 418.400000
1240 15003 11370 1 109.50000 418.400000
2991 15003 9458 1 109.50000 418.400000
2991 15003 11370 1 109.50000 418.400000
9458 15003 11370 1 109.50000 418.400000
4008 15004 8340 1 109.50000 418.400000
4008 15004 9459 1 109.50000 418.400000
4008 15004 9460 1 109.50000 418.400000
8340 15004 9459 1 109.50000 418.400000
8340 15004 9460 1 109.50000 418.400000
9459 15004 9460 1 109.50000 418.400000
890 15005 9461 1 109.50000 418.400000
890 15005 9462 1 109.50000 418.400000
890 15005 9463 1 109.50000 418.400000
9461 15005 9462 1 109.50000 418.400000
9461 15005 9463 1 109.50000 418.400000
9462 15005 9463 1 109.50000 418.400000
4811 15006 9464 1 109.50000 418.400000
4811 15006 11325 1 109.50000 418.400000
4811 15006 11525 1 109.50000 418.400000
9464 15006 11325 1 109.50000 418.400000
9464 15006 11525 1 109.50000 418.400000
11325 15006 11525 1 109.50000 418.400000
1658 15007 5822 1 109.50000 418.400000
1658 15007 8428 1 109.50000 418.400000
1658 15007 9466 1 109.50000 418.400000
5822 15007 8428 1 109.50000 418.400000
5822 15007 9466 1 109.50000 418.400000
8428 15007 9466 1 109.50000 418.400000
3126 15008 7774 1 109.50000 418.400000
3126 15008 9467 1 109.50000 418.400000
3126 15008 9468 1 109.50000 418.400000
7774 15008 9467 1 109.50000 418.400000
7774 15008 9468 1 109.50000 418.400000
9467 15008 9468 1 109.50000 418.400000
4344 15009 9469 1 109.50000 418.400000
4344 15009 9470 1 109.50000 418.400000
4344 15009 9471 1 109.50000 418.400000
9469 15009 9470 1 109.50000 418.400000
9469 15009 9471 1 109.50000 418.400000
9470 15009 9471 1 109.50000 418.400000
5169 15010 7083 1 109.50000 418.400000
5169 15010 8810 1 109.50000 418.400000
5169 15010 9187 1 109.50000 418.400000
7083 15010 8810 1 109.50000 418.400000
7083 15010 9187 1 109.50000 418.400000
8810 15010 9187 1 109.50000 418.400000
343 15011 2170 1 109.50000 418.400000
343 15011 6713 1 109.50000 418.400000
343 15011 9472 1 109.50000 418.400000
2170 15011 6713 1 109.50000 418.400000
2170 15011 9472 1 109.50000 418.400000
6713 15011 9472 1 109.50000 418.400000
1453 15012 9364 1 109.50000 418.400000
1453 15012 9473 1 109.50000 418.400000
1453 15012 9474 1 109.50000 418.400000
9364 15012 9473 1 109.50000 418.400000
9364 15012 9474 1 109.50000 418.400000
9473 15012 9474 1 109.50000 418.400000
6320 15013 9475 1 109.50000 418.400000
6320 15013 9476 1 109.50000 418.400000
6320 15013 9477 1 109.50000 418.400000
9475 15013 9476 1 109.50000 418.400000
9475 15013 9477 1 109.50000 418.400000
9476 15013 9477 1 109.50000 418.400000
308 15014 4996 1 109.50000 418.400000
308 15014 7456 1 109.50000 418.400000
308 15014 9478 1 109.50000 418.400000
4996 15014 7456 1 109.50000 418.400000
4996 15014 9478 1 109.50000 418.400000
7456 15014 9478 1 109.50000 418.400000
621 15015 5628 1 109.50000 418.400000
621 15015 9479 1 109.50000 418.400000
621 15015 9480 1 109.50000 418.400000
5628 15015 9479 1 109.50000 418.400000
5628 15015 9480 1 109.50000 418.400000
9479 15015 9480 1 109.50000 418.400000
2570 15016 5079 1 109.50000 418.400000
2570 15016 6736 1 109.50000 418.400000
2570 15016 9481 1 109.50000 418.400000
5079 15016 6736 1 109.50000 418.400000
5079 15016 9481 1 109.50000 418.400000
6736 15016 9481 1 109.50000 418.400000
6413 15017 6665 1 109.50000 418.400000
6413 15017 7234 1 109.50000 418.400000
6413 15017 9482 1 109.50000 418.400000
6665 15017 7234 1 109.50000 418.400000
6665 15017 9482 1 109.50000 418.400000
7234 15017 9482 1 109.50000 418.400000
1540 15018 2111 1 109.50000 418.400000
1540 15018 7620 1 109.50000 418.400000
1540 15018 9483 1 109.50000 418.400000
2111 15018 7620 1 109.50000 418.400000
2111 15018 9483 1 109.50000 418.400000
7620 15018 9483 1 109.50000 418.400000
485 15019 8616 1 109.50000 418.400000
485 15019 9383 1 109.50000 418.400000
485 15019 9484 1 109.50000 418.400000
8616 15019 9383 1 109.50000 418.400000
8616 15019 9484 1 109.50000 418.400000
9383 15019 9484 1 109.50000 418.400000
3896 15020 3977 1 109.50000 418.400000
3896 15020 8002 1 109.50000 418.400000
3896 15020 9487 1 109.50000 418.400000
3977 15020 8002 1 109.50000 418.400000
3977 15020 9487 1 109.50000 418.400000
8002 15020 9487 1 109.50000 418.400000
1067 15021 8957 1 109.50000 418.400000
1067 15021 9488 1 109.50000 418.400000
1067 15021 9489 1 109.50000 418.400000
8957 15021 9488 1 109.50000 418.400000
8957 15021 9489 1 109.50000 418.400000
9488 15021 9489 1 109.50000 418.400000
152 15022 8297 1 109.50000 418.400000
152 15022 9490 1 109.50000 418.400000
152 15022 9491 1 109.50000 418.400000
8297 15022 9490 1 109.50000 418.400000
8297 15022 9491 1 109.50000 418.400000
9490 15022 9491 1 109.50000 418.400000
4318 15023 9492 1 109.50000 418.400000
4318 15023 11189 1 109.50000 418.400000
4318 15023 11456 1 109.50000 418.400000
9492 15023 11189 1 109.50000 418.400000
9492 15023 11456 1 109.50000 418.400000
11189 15023 11456 1 109.50000 418.400000
1318 15024 8774 1 109.50000 418.400000
1318 15024 8842 1 109.50000 418.400000
1318 15024 9493 1 109.50000 418.400000
8774 15024 8842 1 109.50000 418.400000
8774 15024 9493 1 109.50000 418.400000
8842 15024 9493 1 109.50000 418.400000
5009 15025 9057 1 109.50000 418.400000
5009 15025 9452 1 109.50000 418.400000
5009 15025 9494 1 109.50000 418.400000
9057 15025 9452 1 109.50000 418.400000
9057 15025 9494 1 109.50000 418.400000
9452 15025 9494 1 109.50000 418.400000
2425 15026 3218 1 109.50000 418.400000
2425 15026 7468 1 109.50000 418.400000
2425 15026 9495 1 109.50000 418.400000
3218 15026 7468 1 109.50000 418.400000
3218 15026 9495 1 109.50000 418.400000
7468 15026 9495 1 109.50000 418.400000
1899 15027 7273 1 109.50000 418.400000
1899 15027 7591 1 109.50000 418.400000
1899 15027 9496 1 109.50000 418.400000
7273 15027 7591 1 109.50000 418.400000
7273 15027 9496 1 109.50000 418.400000
7591 15027 9496 1 109.50000 418.400000
7444 15028 8632 1 109.50000 418.400000
7444 15028 9497 1 109.50000 418.400000
7444 15028 9498 1 109.50000 418.400000
8632 15028 9497 1 109.50000 418.400000
8632 15028 9498 1 109.50000 418.400000
9497 15028 9498 1 109.50000 418.400000
3376 15029 6836 1 109.50000 418.400000
3376 15029 6837 1 109.50000 418.400000
3376 15029 9499 1 109.50000 418.400000
6836 15029 6837 1 109.50000 418.400000
6836 15029 9499 1 109.50000 418.400000
6837 15029 9499 1 109.50000 418.400000
2176 15030 9500 1 109.50000 418.400000
2176 15030 11297 1 109.50000 418.400000
2176 15030 11497 1 109.50000 418.400000
9500 15030 11297 1 109.50000 418.400000
9500 15030 11497 1 109.50000 418.400000
11297 15030 11497 1 109.50000 418.400000
7567 15031 7568 1 109.50000 418.400000
7567 15031 9230 1 109.50000 418.400000
7567 15031 11222 1 109.50000 418.400000
7568 15031 9230 1 109.50000 418.400000
7568 15031 11222 1 109.50000 418.400000
9230 15031 11222 1 109.50000 418.400000
5488 15032 9256 1 109.50000 418.400000
5488 15032 9501 1 109.50000 418.400000
5488 15032 9502 1 109.50000 418.400000
9256 15032 9501 1 109.50000 418.400000
9256 15032 9502 1 109.50000 418.400000
9501 15032 9502 1 109.50000 418.400000
2330 15033 2332 1 109.50000 418.400000
2330 15033 6201 1 109.50000 418.400000
2330 15033 11272 1 109.50000 418.400000
2332 15033 6201 1 109.50000 418.400000
2332 15033 11272 1 109.50000 418.400000
6201 15033 11272 1 109.50000 418.400000
2258 15034 6372 1 109.50000 418.400000
2258 15034 7595 1 109.50000 418.400000
2258 15034 9503 1 109.50000 418.400000
6372 15034 7595 1 109.50000 418.400000
6372 15034 9503 1 109.50000 418.400000
7595 15034 9503 1 109.50000 418.400000
2342 15035 2343 1 109.50000 418.400000
2342 15035 4493 1 109.50000 418.400000
2342 15035 9504 1 109.50000 418.400000
2343 15035 4493 1 109.50000 418.400000
2343 15035 9504 1 109.50000 418.400000
4493 15035 9504 1 109.50000 418.400000
4425 15036 9506 1 109.50000 418.400000
4425 15036 10887 1 109.50000 418.400000
4425 15036 11593 1 109.50000 418.400000
9506 15036 10887 1 109.50000 418.400000
9506 15036 11593 1 109.50000 418.400000
10887 15036 11593 1 109.50000 418.400000
1557 15037 4114 1 109.50000 418.400000
1557 15037 9507 1 109.50000 418.400000
1557 15037 9508 1 109.50000 418.400000
4114 15037 9507 1 109.50000 418.400000
4114 15037 9508 1 109.50000 418.400000
9507 15037 9508 1 109.50000 418.400000
4000 15038 5398 1 109.50000 418.400000
4000 15038 7573 1 109.50000 418.400000
4000 15038 9509 1 109.50000 418.400000
5398 15038 7573 1 109.50000 418.400000
5398 15038 9509 1 109.50000 418.400000
7573 15038 9509 1 109.50000 418.400000
4495 15039 4496 1 109.50000 418.400000
4495 15039 9511 1 109.50000 418.400000
4495 15039 9512 1 109.50000 418.400000
4496 15039 9511 1 109.50000 418.400000
4496 15039 9512 1 109.50000 418.400000
9511 15039 9512 1 109.50000 418.400000
3354 15040 3897 1 109.50000 418.400000
3354 15040 8324 1 109.50000 418.400000
3354 15040 8726 1 109.50000 418.400000
3897 15040 8324 1 109.50000 418.400000
3897 15040 8726 1 109.50000 418.400000
8324 15040 8726 1 109.50000 418.400000
9513 15041 9514 1 109.50000 418.400000
9513 15041 9515 1 109.50000 418.400000
9513 15041 9516 1 109.50000 418.400000
9514 15041 9515 1 109.50000 418.400000
9514 15041 9516 1 109.50000 418.400000
9515 15041 9516 1 109.50000 418.400000
2894 15042 2895 1 109.50000 418.400000
2894 15042 5331 1 109.50000 418.400000
2894 15042 6124 1 109.50000 418.400000
2895 15042 5331 1 109.50000 418.400000
2895 15042 6124 1 109.50000 418.400000
5331 15042 6124 1 109.50000 418.400000
3992 15043 6412 1 109.50000 418.400000
3992 15043 7243 1 109.50000 418.400000
3992 15043 9518 1 109.50000 418.400000
6412 15043 7243 1 109.50000 418.400000
6412 15043 9518 1 109.50000 418.400000
7243 15043 9518 1 109.50000 418.400000
578 15044 4001 1 109.50000 418.400000
578 15044 6675 1 109.50000 418.400000
578 15044 9519 1 109.50000 418.400000
4001 15044 6675 1 109.50000 418.400000
4001 15044 9519 1 109.50000 418.400000
6675 15044 9519 1 109.50000 418.400000
7200 15045 7301 1 109.50000 418.400000
7200 15045 9520 1 109.50000 418.400000
7200 15045 11164 1 109.50000 418.400000
7301 15045 9520 1 109.50000 418.400000
7301 15045 11164 1 109.50000 418.400000
9520 15045 11164 1 109.50000 418.400000
2762 15046 4633 1 109.50000 418.400000
2762 15046 7747 1 109.50000 418.400000
2762 15046 9521 1 109.50000 418.400000
4633 15046 7747 1 109.50000 418.400000
4633 15046 9521 1 109.50000 418.400000
7747 15046 9521 1 109.50000 418.400000
3933 15047 4850 1 109.50000 418.400000
3933 15047 5749 1 109.50000 418.400000
3933 15047 9522 1 109.50000 418.400000
4850 15047 5749 1 109.50000 418.400000
4850 15047 9522 1 109.50000 418.400000
5749 15047 9522 1 109.50000 418.400000
294 15048 6669 1 109.50000 418.400000
294 15048 9523 1 109.50000 418.400000
294 15048 9524 1 109.50000 418.400000
6669 15048 9523 1 109.50000 418.400000
6669 15048 9524 1 109.50000 418.400000
9523 15048 9524 1 109.50000 418.400000
4540 15049 8161 1 109.50000 418.400000
4540 15049 8300 1 109.50000 418.400000
4540 15049 9525 1 109.50000 418.400000
8161 15049 8300 1 109.50000 418.400000
8161 15049 9525 1 109.50000 418.400000
8300 15049 9525 1 109.50000 418.400000
8011 15050 9479 1 109.50000 418.400000
8011 15050 9526 1 109.50000 418.400000
8011 15050 11363 1 109.50000 418.400000
9479 15050 9526 1 109.50000 418.400000
9479 15050 11363 1 109.50000 418.400000
9526 15050 11363 1 109.50000 418.400000
3874 15051 9390 1 109.50000 418.400000
3874 15051 9400 1 109.50000 418.400000
3874 15051 9501 1 109.50000 418.400000
9390 15051 9400 1 109.50000 418.400000
9390 15051 9501 1 109.50000 418.400000
9400 15051 9501 1 109.50000 418.400000
1068 15052 1527 1 109.50000 418.400000
1068 15052 9527 1 109.50000 418.400000
1068 15052 9528 1 109.50000 418.400000
1527 15052 9527 1 109.50000 418.400000
1527 15052 9528 1 109.50000 418.400000
9527 15052 9528 1 109.50000 418.400000
8766 15053 9529 1 109.50000 418.400000
8766 15053 9530 1 109.50000 418.400000
8766 15053 9531 1 109.50000 418.400000
9529 15053 9530 1 109.50000 418.400000
9529 15053 9531 1 109.50000 418.400000
9530 15053 9531 1 109.50000 418.400000
1523 15054 7087 1 109.50000 418.400000
1523 15054 9533 1 109.50000 418.400000
1523 15054 9534 1 109.50000 418.400000
7087 15054 9533 1 109.50000 418.400000
7087 15054 9534 1 109.50000 418.400000
9533 15054 9534 1 109.50000 418.400000
589 15055 8784 1 109.50000 418.400000
589 15055 9426 1 109.50000 418.400000
589 15055 9535 1 109.50000 418.400000
8784 15055 9426 1 109.50000 418.400000
8784 15055 9535 1 109.50000 418.400000
9426 15055 9535 1 109.50000 418.400000
648 15056 3438 1 109.50000 418.400000
648 15056 9536 1 109.50000 418.400000
648 15056 9537 1 109.50000 418.400000
3438 15056 9536 1 109.50000 418.400000
3438 15056 9537 1 109.50000 418.400000
9536 15056 9537 1 109.50000 418.400000
3571 15057 7100 1 109.50000 418.400000
3571 15057 9538 1 109.50000 418.400000
3571 15057 9539 1 109.50000 418.400000
7100 15057 9538 1 109.50000 418.400000
7100 15057 9539 1 109.50000 418.400000
9538 15057 9539 1 109.50000 418.400000
6598 15058 7080 1 109.50000 418.400000
6598 15058 7082 1 109.50000 418.400000
6598 15058 9540 1 109.50000 418.400000
7080 15058 7082 1 109.50000 418.400000
7080 15058 9540 1 109.50000 418.400000
7082 15058 9540 1 109.50000 418.400000
9541 15059 9542 1 109.50000 418.400000
9541 15059 9543 1 109.50000 418.400000
9541 15059 9544 1 109.50000 418.400000
9542 15059 9543 1 109.50000 418.400000
9542 15059 9544 1 109.50000 418.400000
9543 15059 9544 1 109.50000 418.400000
3420 15060 3820 1 109.50000 418.400000
3420 15060 7973 1 109.50000 418.400000
3420 15060 9545 1 109.50000 418.400000
3820 15060 7973 1 109.50000 418.400000
3820 15060 9545 1 109.50000 418.400000
7973 15060 9545 1 109.50000 418.400000
962 15061 1012 1 109.50000 418.400000
962 15061 8744 1 109.50000 418.400000
962 15061 9546 1 109.50000 418.400000
1012 15061 8744 1 109.50000 418.400000
1012 15061 9546 1 109.50000 418.400000
8744 15061 9546 1 109.50000 418.400000
9547 15062 9548 1 109.50000 418.400000
9547 15062 11172 1 109.50000 418.400000
9547 15062 11251 1 109.50000 418.400000
9548 15062 11172 1 109.50000 418.400000
9548 15062 11251 1 109.50000 418.400000
11172 15062 11251 1 109.50000 418.400000
6658 15063 6825 1 109.50000 418.400000
6658 15063 7098 1 109.50000 418.400000
6658 15063 8665 1 109.50000 418.400000
6825 15063 7098 1 109.50000 418.400000
6825 15063 8665 1 109.50000 418.400000
7098 15063 8665 1 109.50000 418.400000
2485 15064 4711 1 109.50000 418.400000
2485 15064 9550 1 109.50000 418.400000
2485 15064 9551 1 109.50000 418.400000
4711 15064 9550 1 109.50000 418.400000
4711 15064 9551 1 109.50000 418.400000
9550 15064 9551 1 109.50000 418.400000
8009 15065 9552 1 109.50000 418.400000
8009 15065 9553 1 109.50000 418.400000
8009 15065 9554 1 109.50000 418.400000
9552 15065 9553 1 109.50000 418.400000
9552 15065 9554 1 109.50000 418.400000
9553 15065 9554 1 109.50000 418.400000
5295 15066 9015 1 109.50000 418.400000
5295 15066 9016 1 109.50000 418.400000
5295 15066 9555 1 109.50000 418.400000
9015 15066 9016 1 109.50000 418.400000
9015 15066 9555 1 109.50000 418.400000
9016 15066 9555 1 109.50000 418.400000
944 15067 4758 1 109.50000 418.400000
944 15067 9556 1 109.50000 418.400000
944 15067 9557 1 109.50000 418.400000
4758 15067 9556 1 109.50000 418.400000
4758 15067 9557 1 109.50000 418.400000
9556 15067 9557 1 109.50000 418.400000
6862 15068 7196 1 109.50000 418.400000
6862 15068 9559 1 109.50000 418.400000
6862 15068 9560 1 109.50000 418.400000
7196 15068 9559 1 109.50000 418.400000
7196 15068 9560 1 109.50000 418.400000
9559 15068 9560 1 109.50000 418.400000
2754 15069 2756 1 109.50000 418.400000
2754 15069 9561 1 109.50000 418.400000
2754 15069 9562 1 109.50000 418.400000
2756 15069 9561 1 109.50000 418.400000
2756 15069 9562 1 109.50000 418.400000
9561 15069 9562 1 109.50000 418.400000
5462 15070 9563 1 109.50000 418.400000
5462 15070 11385 1 109.50000 418.400000
5462 15070 11446 1 109.50000 418.400000
9563 15070 11385 1 109.50000 418.400000
9563 15070 11446 1 109.50000 418.400000
11385 15070 11446 1 109.50000 418.400000
3793 15071 6976 1 109.50000 418.400000
3793 15071 8823 1 109.50000 418.400000
3793 15071 9564 1 109.50000 418.400000
6976 15071 8823 1 109.50000 418.400000
6976 15071 9564 1 109.50000 418.400000
8823 15071 9564 1 109.50000 418.400000
7168 15072 9144 1 109.50000 418.400000
7168 15072 9565 1 109.50000 418.400000
7168 15072 9566 1 109.50000 418.400000
9144 15072 9565 1 109.50000 418.400000
9144 15072 9566 1 109.50000 418.400000
9565 15072 9566 1 109.50000 418.400000
594 15073 2960 1 109.50000 418.400000
594 15073 6107 1 109.50000 418.400000
594 15073 9432 1 109.50000 418.400000
2960 15073 6107 1 109.50000 418.400000
2960 15073 9432 1 109.50000 418.400000
6107 15073 9432 1 109.50000 418.400000
2498 15074 9568 1 109.50000 418.400000
2498 15074 11324 1 109.50000 418.400000
2498 15074 11355 1 109.50000 418.400000
9568 15074 11324 1 109.50000 418.400000
9568 15074 11355 1 109.50000 418.400000
11324 15074 11355 1 109.50000 418.400000
8899 15075 9184 1 109.50000 418.400000
8899 15075 9569 1 109.50000 418.400000
8899 15075 9570 1 109.50000 418.400000
9184 15075 9569 1 109.50000 418.400000
9184 15075 9570 1 109.50000 418.400000
9569 15075 9570 1 109.50000 418.400000
2265 15076 5723 1 109.50000 418.400000
2265 15076 8306 1 109.50000 418.400000
2265 15076 9571 1 109.50000 418.400000
5723 15076 8306 1 109.50000 418.400000
5723 15076 9571 1 109.50000 418.400000
8306 15076 9571 1 109.50000 418.400000
2835 15077 6895 1 109.50000 418.400000
2835 15077 8323 1 109.50000 418.400000
2835 15077 9487 1 109.50000 418.400000
6895 15077 8323 1 109.50000 418.400000
6895 15077 9487 1 109.50000 418.400000
8323 15077 9487 1 109.50000 418.400000
1887 15078 8132 1 109.50000 418.400000
1887 15078 9513 1 109.50000 418.400000
1887 15078 9572 1 109.50000 418.400000
8132 15078 9513 1 109.50000 418.400000
8132 15078 9572 1 109.50000 418.400000
9513 15078 9572 1 109.50000 418.400000
1380 15079 6145 1 109.50000 418.400000
1380 15079 8878 1 109.50000 418.400000
1380 15079 9573 1 109.50000 418.400000
6145 15079 8878 1 109.50000 418.400000
6145 15079 9573 1 109.50000 418.400000
8878 15079 9573 1 109.50000 418.400000
6649 15080 8232 1 109.50000 418.400000
6649 15080 9574 1 109.50000 418.400000
6649 15080 9575 1 109.50000 418.400000
8232 15080 9574 1 109.50000 418.400000
8232 15080 9575 1 109.50000 418.400000
9574 15080 9575 1 109.50000 418.400000
3928 15081 4865 1 109.50000 418.400000
3928 15081 9576 1 109.50000 418.400000
3928 15081 9577 1 109.50000 418.400000
4865 15081 9576 1 109.50000 418.400000
4865 15081 9577 1 109.50000 418.400000
9576 15081 9577 1 109.50000 418.400000
1542 15082 1707 1 109.50000 418.400000
1542 15082 6917 1 109.50000 418.400000
1542 15082 9578 1 109.50000 418.400000
1707 15082 6917 1 109.50000 418.400000
1707 15082 9578 1 109.50000 418.400000
6917 15082 9578 1 109.50000 418.400000
1051 15083 3068 1 109.50000 418.400000
1051 15083 3356 1 109.50000 418.400000
1051 15083 9579 1 109.50000 418.400000
3068 15083 3356 1 109.50000 418.400000
3068 15083 9579 1 109.50000 418.400000
3356 15083 9579 1 109.50000 418.400000
3184 15084 6126 1 109.50000 418.400000
3184 15084 11346 1 109.50000 418.400000
3184 15084 11516 1 109.50000 418.400000
6126 15084 11346 1 109.50000 418.400000
6126 15084 11516 1 109.50000 418.400000
11346 15084 11516 1 109.50000 418.400000
3981 15085 6331 1 109.50000 418.400000
3981 15085 7906 1 109.50000 418.400000
3981 15085 9580 1 109.50000 418.400000
6331 15085 7906 1 109.50000 418.400000
6331 15085 9580 1 109.50000 418.400000
7906 15085 9580 1 109.50000 418.400000
3602 15086 9581 1 109.50000 418.400000
3602 15086 9582 1 109.50000 418.400000
3602 15086 9583 1 109.50000 418.400000
9581 15086 9582 1 109.50000 418.400000
9581 15086 9583 1 109.50000 418.400000
9582 15086 9583 1 109.50000 418.400000
2734 15087 3669 1 109.50000 418.400000
2734 15087 7848 1 109.50000 418.400000
2734 15087 8593 1 109.50000 418.400000
3669 15087 7848 1 109.50000 418.400000
3669 15087 8593 1 109.50000 418.400000
7848 15087 8593 1 109.50000 418.400000
2293 15088 6511 1 109.50000 418.400000
2293 15088 8684 1 109.50000 418.400000
2293 15088 9318 1 109.50000 418.400000
6511 15088 8684 1 109.50000 418.400000
6511 15088 9318 1 109.50000 418.400000
8684 15088 9318 1 109.50000 418.400000
917 15089 8568 1 109.50000 418.400000
917 15089 9584 1 109.50000 418.400000
917 15089 9585 1 109.50000 418.400000
8568 15089 9584 1 109.50000 418.400000
8568 15089 9585 1 109.50000 418.400000
9584 15089 9585 1 109.50000 418.400000
2008 15090 2185 1 109.50000 418.400000
2008 15090 2846 1 109.50000 418.400000
2008 15090 9586 1 109.50000 418.400000
2185 15090 2846 1 109.50000 418.400000
2185 15090 9586 1 109.50000 418.400000
2846 15090 9586 1 109.50000 418.400000
166 15091 5065 1 109.50000 418.400000
166 15091 5645 1 109.50000 418.400000
166 15091 9587 1 109.50000 418.400000
5065 15091 5645 1 109.50000 418.400000
5065 15091 9587 1 109.50000 418.400000
5645 15091 9587 1 109.50000 418.400000
9000 15092 9588 1 109.50000 418.400000
9000 15092 9589 1 109.50000 418.400000
9000 15092 9590 1 109.50000 418.400000
9588 15092 9589 1 109.50000 418.400000
9588 15092 9590 1 109.50000 418.400000
9589 15092 9590 1 109.50000 418.400000
968 15093 3429 1 109.50000 418.400000
968 15093 6790 1 109.50000 418.400000
968 15093 9006 1 109.50000 418.400000
3429 15093 6790 1 109.50000 418.400000
3429 15093 9006 1 109.50000 418.400000
6790 15093 9006 1 109.50000 418.400000
1806 15094 5280 1 109.50000 418.400000
1806 15094 9591 1 109.50000 418.400000
1806 15094 9592 1 109.50000 418.400000
5280 15094 9591 1 109.50000 418.400000
5280 15094 9592 1 109.50000 418.400000
9591 15094 9592 1 109.50000 418.400000
7717 15095 8973 1 109.50000 418.400000
7717 15095 9593 1 109.50000 418.400000
7717 15095 9594 1 109.50000 418.400000
8973 15095 9593 1 109.50000 418.400000
8973 15095 9594 1 109.50000 418.400000
9593 15095 9594 1 109.50000 418.400000
3382 15096 8422 1 109.50000 418.400000
3382 15096 9595 1 109.50000 418.400000
3382 15096 9596 1 109.50000 418.400000
8422 15096 9595 1 109.50000 418.400000
8422 15096 9596 1 109.50000 418.400000
9595 15096 9596 1 109.50000 418.400000
1413 15097 8061 1 109.50000 418.400000
1413 15097 9598 1 109.50000 418.400000
1413 15097 9599 1 109.50000 418.400000
8061 15097 9598 1 109.50000 418.400000
8061 15097 9599 1 109.50000 418.400000
9598 15097 9599 1 109.50000 418.400000
109 15098 4885 1 109.50000 418.400000
109 15098 8862 1 109.50000 418.400000
109 15098 9600 1 109.50000 418.400000
4885 15098 8862 1 109.50000 418.400000
4885 15098 9600 1 109.50000 418.400000
8862 15098 9600 1 109.50000 418.400000
8658 15099 9601 1 109.50000 418.400000
8658 15099 9602 1 109.50000 418.400000
8658 15099 11496 1 109.50000 418.400000
9601 15099 9602 1 109.50000 418.400000
9601 15099 11496 1 109.50000 418.400000
9602 15099 11496 1 109.50000 418.400000
3417 15100 7460 1 109.50000 418.400000
3417 15100 9034 1 109.50000 418.400000
3417 15100 9603 1 109.50000 418.400000
7460 15100 9034 1 109.50000 418.400000
7460 15100 9603 1 109.50000 418.400000
9034 15100 9603 1 109.50000 418.400000
1464 15101 7570 1 109.50000 418.400000
1464 15101 9604 1 109.50000 418.400000
1464 15101 9605 1 109.50000 418.400000
7570 15101 9604 1 109.50000 418.400000
7570 15101 9605 1 109.50000 418.400000
9604 15101 9605 1 109.50000 418.400000
7399 15102 7490 1 109.50000 418.400000
7399 15102 9606 1 109.50000 418.400000
7399 15102 11239 1 109.50000 418.400000
7490 15102 9606 1 109.50000 418.400000
7490 15102 11239 1 109.50000 418.400000
9606 15102 11239 1 109.50000 418.400000
4408 15103 7875 1 109.50000 418.400000
4408 15103 9607 1 109.50000 418.400000
4408 15103 9608 1 109.50000 418.400000
7875 15103 9607 1 109.50000 418.400000
7875 15103 9608 1 109.50000 418.400000
9607 15103 9608 1 109.50000 418.400000
9609 15104 9969 1 109.50000 418.400000
9609 15104 11054 1 109.50000 418.400000
9609 15104 11055 1 109.50000 418.400000
9969 15104 11054 1 109.50000 418.400000
9969 15104 11055 1 109.50000 418.400000
11054 15104 11055 1 109.50000 418.400000
3454 15105 8792 1 109.50000 418.400000
3454 15105 9612 1 109.50000 418.400000
3454 15105 9613 1 109.50000 418.400000
8792 15105 9612 1 109.50000 418.400000
8792 15105 9613 1 109.50000 418.400000
9612 15105 9613 1 109.50000 418.400000
1646 15106 4088 1 109.50000 418.400000
1646 15106 9614 1 109.50000 418.400000
1646 15106 9615 1 109.50000 418.400000
4088 15106 9614 1 109.50000 418.400000
4088 15106 9615 1 109.50000 418.400000
9614 15106 9615 1 109.50000 418.400000
5764 15107 6274 1 109.50000 418.400000
5764 15107 6275 1 109.50000 418.400000
5764 15107 9511 1 109.50000 418.400000
6274 15107 6275 1 109.50000 418.400000
6274 15107 9511 1 109.50000 418.400000
6275 15107 9511 1 109.50000 418.400000
4581 15108 8521 1 109.50000 418.400000
4581 15108 9616 1 109.50000 418.400000
4581 15108 9617 1 109.50000 418.400000
8521 15108 9616 1 109.50000 418.400000
8521 15108 9617 1 109.50000 418.400000
9616 15108 9617 1 109.50000 418.400000
205 15109 207 1 109.50000 418.400000
205 15109 4963 1 109.50000 418.400000
205 15109 11486 1 109.50000 418.400000
207 15109 4963 1 109.50000 418.400000
207 15109 11486 1 109.50000 418.400000
4963 15109 11486 1 109.50000 418.400000
714 15110 715 1 109.50000 418.400000
714 15110 8692 1 109.50000 418.400000
714 15110 9618 1 109.50000 418.400000
715 15110 8692 1 109.50000 418.400000
715 15110 9618 1 109.50000 418.400000
8692 15110 9618 1 109.50000 418.400000
506 15111 2172 1 109.50000 418.400000
506 15111 2718 1 109.50000 418.400000
506 15111 9619 1 109.50000 418.400000
2172 15111 2718 1 109.50000 418.400000
2172 15111 9619 1 109.50000 418.400000
2718 15111 9619 1 109.50000 418.400000
81 15112 1307 1 109.50000 418.400000
81 15112 8914 1 109.50000 418.400000
81 15112 9620 1 109.50000 418.400000
1307 15112 8914 1 109.50000 418.400000
1307 15112 9620 1 109.50000 418.400000
8914 15112 9620 1 109.50000 418.400000
2922 15113 7019 1 109.50000 418.400000
2922 15113 7204 1 109.50000 418.400000
2922 15113 7534 1 109.50000 418.400000
7019 15113 7204 1 109.50000 418.400000
7019 15113 7534 1 109.50000 418.400000
7204 15113 7534 1 109.50000 418.400000
583 15114 3089 1 109.50000 418.400000
583 15114 3188 1 109.50000 418.400000
583 15114 5135 1 109.50000 418.400000
3089 15114 3188 1 109.50000 418.400000
3089 15114 5135 1 109.50000 418.400000
3188 15114 5135 1 109.50000 418.400000
4068 15115 7124 1 109.50000 418.400000
4068 15115 7126 1 109.50000 418.400000
4068 15115 7374 1 109.50000 418.400000
7124 15115 7126 1 109.50000 418.400000
7124 15115 7374 1 109.50000 418.400000
7126 15115 7374 1 109.50000 418.400000
1032 15116 9623 1 109.50000 418.400000
1032 15116 9624 1 109.50000 418.400000
1032 15116 9625 1 109.50000 418.400000
9623 15116 9624 1 109.50000 418.400000
9623 15116 9625 1 109.50000 418.400000
9624 15116 9625 1 109.50000 418.400000
8215 15117 8856 1 109.50000 418.400000
8215 15117 8910 1 109.50000 418.400000
8215 15117 9137 1 109.50000 418.400000
8856 15117 8910 1 109.50000 418.400000
8856 15117 9137 1 109.50000 418.400000
8910 15117 9137 1 109.50000 418.400000
9626 15118 9627 1 109.50000 418.400000
9626 15118 9628 1 109.50000 418.400000
9626 15118 9629 1 109.50000 418.400000
9627 15118 9628 1 109.50000 418.400000
9627 15118 9629 1 109.50000 418.400000
9628 15118 9629 1 109.50000 418.400000
1714 15119 6756 1 109.50000 418.400000
1714 15119 9630 1 109.50000 418.400000
1714 15119 9631 1 109.50000 418.400000
6756 15119 9630 1 109.50000 418.400000
6756 15119 9631 1 109.50000 418.400000
9630 15119 9631 1 109.50000 418.400000
2755 15120 9632 1 109.50000 418.400000
2755 15120 9634 1 109.50000 418.400000
2755 15120 10819 1 109.50000 418.400000
9632 15120 9634 1 109.50000 418.400000
9632 15120 10819 1 109.50000 418.400000
9634 15120 10819 1 109.50000 418.400000
977 15121 2450 1 109.50000 418.400000
977 15121 9635 1 109.50000 418.400000
977 15121 9636 1 109.50000 418.400000
2450 15121 9635 1 109.50000 418.400000
2450 15121 9636 1 109.50000 418.400000
9635 15121 9636 1 109.50000 418.400000
8181 15122 8463 1 109.50000 418.400000
8181 15122 9454 1 109.50000 418.400000
8181 15122 9637 1 109.50000 418.400000
8463 15122 9454 1 109.50000 418.400000
8463 15122 9637 1 109.50000 418.400000
9454 15122 9637 1 109.50000 418.400000
8997 15123 9235 1 109.50000 418.400000
8997 15123 9638 1 109.50000 418.400000
8997 15123 9639 1 109.50000 418.400000
9235 15123 9638 1 109.50000 418.400000
9235 15123 9639 1 109.50000 418.400000
9638 15123 9639 1 109.50000 418.400000
772 15124 7260 1 109.50000 418.400000
772 15124 7850 1 109.50000 418.400000
772 15124 9640 1 109.50000 418.400000
7260 15124 7850 1 109.50000 418.400000
7260 15124 9640 1 109.50000 418.400000
7850 15124 9640 1 109.50000 418.400000
3435 15125 5990 1 109.50000 418.400000
3435 15125 8703 1 109.50000 418.400000
3435 15125 9641 1 109.50000 418.400000
5990 15125 8703 1 109.50000 418.400000
5990 15125 9641 1 109.50000 418.400000
8703 15125 9641 1 109.50000 418.400000
9140 15126 9288 1 109.50000 418.400000
9140 15126 9642 1 109.50000 418.400000
9140 15126 9643 1 109.50000 418.400000
9288 15126 9642 1 109.50000 418.400000
9288 15126 9643 1 109.50000 418.400000
9642 15126 9643 1 109.50000 418.400000
9644 15127 9645 1 109.50000 418.400000
9644 15127 11195 1 109.50000 418.400000
9644 15127 11571 1 109.50000 418.400000
9645 15127 11195 1 109.50000 418.400000
9645 15127 11571 1 109.50000 418.400000
11195 15127 11571 1 109.50000 418.400000
3913 15128 7102 1 109.50000 418.400000
3913 15128 9646 1 109.50000 418.400000
3913 15128 9647 1 109.50000 418.400000
7102 15128 9646 1 109.50000 418.400000
7102 15128 9647 1 109.50000 418.400000
9646 15128 9647 1 109.50000 418.400000
6558 15129 7278 1 109.50000 418.400000
6558 15129 9648 1 109.50000 418.400000
6558 15129 11318 1 109.50000 418.400000
7278 15129 9648 1 109.50000 418.400000
7278 15129 11318 1 109.50000 418.400000
9648 15129 11318 1 109.50000 418.400000
3458 15130 4019 1 109.50000 418.400000
3458 15130 4390 1 109.50000 418.400000
3458 15130 5372 1 109.50000 418.400000
4019 15130 4390 1 109.50000 418.400000
4019 15130 5372 1 109.50000 418.400000
4390 15130 5372 1 109.50000 418.400000
6017 15131 9649 1 109.50000 418.400000
6017 15131 9650 1 109.50000 418.400000
6017 15131 9651 1 109.50000 418.400000
9649 15131 9650 1 109.50000 418.400000
9649 15131 9651 1 109.50000 418.400000
9650 15131 9651 1 109.50000 418.400000
84 15132 1388 1 109.50000 418.400000
84 15132 4400 1 109.50000 418.400000
84 15132 9652 1 109.50000 418.400000
1388 15132 4400 1 109.50000 418.400000
1388 15132 9652 1 109.50000 418.400000
4400 15132 9652 1 109.50000 418.400000
3885 15133 5130 1 109.50000 418.400000
3885 15133 9653 1 109.50000 418.400000
3885 15133 11327 1 109.50000 418.400000
5130 15133 9653 1 109.50000 418.400000
5130 15133 11327 1 109.50000 418.400000
9653 15133 11327 1 109.50000 418.400000
974 15134 4593 1 109.50000 418.400000
974 15134 6671 1 109.50000 418.400000
974 15134 9529 1 109.50000 418.400000
4593 15134 6671 1 109.50000 418.400000
4593 15134 9529 1 109.50000 418.400000
6671 15134 9529 1 109.50000 418.400000
905 15135 1534 1 109.50000 418.400000
905 15135 1719 1 109.50000 418.400000
905 15135 8768 1 109.50000 418.400000
1534 15135 1719 1 109.50000 418.400000
1534 15135 8768 1 109.50000 418.400000
1719 15135 8768 1 109.50000 418.400000
2455 15136 8091 1 109.50000 418.400000
2455 15136 9654 1 109.50000 418.400000
2455 15136 11306 1 109.50000 418.400000
8091 15136 9654 1 109.50000 418.400000
8091 15136 11306 1 109.50000 418.400000
9654 15136 11306 1 109.50000 418.400000
710 15137 3550 1 109.50000 418.400000
710 15137 8404 1 109.50000 418.400000
710 15137 9656 1 109.50000 418.400000
3550 15137 8404 1 109.50000 418.400000
3550 15137 9656 1 109.50000 418.400000
8404 15137 9656 1 109.50000 418.400000
605 15138 2683 1 109.50000 418.400000
605 15138 9657 1 109.50000 418.400000
605 15138 10521 1 109.50000 418.400000
2683 15138 9657 1 109.50000 418.400000
2683 15138 10521 1 109.50000 418.400000
9657 15138 10521 1 109.50000 418.400000
9521 15139 9658 1 109.50000 418.400000
9521 15139 9659 1 109.50000 418.400000
9521 15139 9660 1 109.50000 418.400000
9658 15139 9659 1 109.50000 418.400000
9658 15139 9660 1 109.50000 418.400000
9659 15139 9660 1 109.50000 418.400000
3769 15140 9661 1 109.50000 418.400000
3769 15140 9662 1 109.50000 418.400000
3769 15140 9663 1 109.50000 418.400000
9661 15140 9662 1 109.50000 418.400000
9661 15140 9663 1 109.50000 418.400000
9662 15140 9663 1 109.50000 418.400000
1629 15141 5897 1 109.50000 418.400000
1629 15141 9473 1 109.50000 418.400000
1629 15141 9664 1 109.50000 418.400000
5897 15141 9473 1 109.50000 418.400000
5897 15141 9664 1 109.50000 418.400000
9473 15141 9664 1 109.50000 418.400000
4808 15142 7485 1 109.50000 418.400000
4808 15142 9665 1 109.50000 418.400000
4808 15142 9666 1 109.50000 418.400000
7485 15142 9665 1 109.50000 418.400000
7485 15142 9666 1 109.50000 418.400000
9665 15142 9666 1 109.50000 418.400000
9667 15143 9668 1 109.50000 418.400000
9667 15143 9669 1 109.50000 418.400000
9667 15143 9670 1 109.50000 418.400000
9668 15143 9669 1 109.50000 418.400000
9668 15143 9670 1 109.50000 418.400000
9669 15143 9670 1 109.50000 418.400000
1745 15144 1975 1 109.50000 418.400000
1745 15144 8184 1 109.50000 418.400000
1745 15144 9671 1 109.50000 418.400000
1975 15144 8184 1 109.50000 418.400000
1975 15144 9671 1 109.50000 418.400000
8184 15144 9671 1 109.50000 418.400000
4553 15145 4556 1 109.50000 418.400000
4553 15145 9672 1 109.50000 418.400000
4553 15145 11329 1 109.50000 418.400000
4556 15145 9672 1 109.50000 418.400000
4556 15145 11329 1 109.50000 418.400000
9672 15145 11329 1 109.50000 418.400000
5152 15146 6367 1 109.50000 418.400000
5152 15146 7976 1 109.50000 418.400000
5152 15146 9674 1 109.50000 418.400000
6367 15146 7976 1 109.50000 418.400000
6367 15146 9674 1 109.50000 418.400000
7976 15146 9674 1 109.50000 418.400000
154 15147 9223 1 109.50000 418.400000
154 15147 9401 1 109.50000 418.400000
154 15147 9675 1 109.50000 418.400000
9223 15147 9401 1 109.50000 418.400000
9223 15147 9675 1 109.50000 418.400000
9401 15147 9675 1 109.50000 418.400000
768 15148 7118 1 109.50000 418.400000
768 15148 8137 1 109.50000 418.400000
768 15148 9676 1 109.50000 418.400000
7118 15148 8137 1 109.50000 418.400000
7118 15148 9676 1 109.50000 418.400000
8137 15148 9676 1 109.50000 418.400000
4586 15149 9677 1 109.50000 418.400000
4586 15149 9678 1 109.50000 418.400000
4586 15149 9679 1 109.50000 418.400000
9677 15149 9678 1 109.50000 418.400000
9677 15149 9679 1 109.50000 418.400000
9678 15149 9679 1 109.50000 418.400000
8465 15150 9680 1 109.50000 418.400000
8465 15150 9681 1 109.50000 418.400000
8465 15150 9682 1 109.50000 418.400000
9680 15150 9681 1 109.50000 418.400000
9680 15150 9682 1 109.50000 418.400000
9681 15150 9682 1 109.50000 418.400000
6533 15151 9458 1 109.50000 418.400000
6533 15151 9683 1 109.50000 418.400000
6533 15151 11247 1 109.50000 418.400000
9458 15151 9683 1 109.50000 418.400000
9458 15151 11247 1 109.50000 418.400000
9683 15151 11247 1 109.50000 418.400000
7632 15152 9131 1 109.50000 418.400000
7632 15152 9206 1 109.50000 418.400000
7632 15152 9684 1 109.50000 418.400000
9131 15152 9206 1 109.50000 418.400000
9131 15152 9684 1 109.50000 418.400000
9206 15152 9684 1 109.50000 418.400000
7139 15153 7146 1 109.50000 418.400000
7139 15153 9685 1 109.50000 418.400000
7139 15153 9686 1 109.50000 418.400000
7146 15153 9685 1 109.50000 418.400000
7146 15153 9686 1 109.50000 418.400000
9685 15153 9686 1 109.50000 418.400000
194 15154 3825 1 109.50000 418.400000
194 15154 3959 1 109.50000 418.400000
194 15154 9688 1 109.50000 418.400000
3825 15154 3959 1 109.50000 418.400000
3825 15154 9688 1 109.50000 418.400000
3959 15154 9688 1 109.50000 418.400000
5836 15155 5837 1 109.50000 418.400000
5836 15155 5838 1 109.50000 418.400000
5836 15155 9689 1 109.50000 418.400000
5837 15155 5838 1 109.50000 418.400000
5837 15155 9689 1 109.50000 418.400000
5838 15155 9689 1 109.50000 418.400000
6489 15156 9556 1 109.50000 418.400000
6489 15156 9691 1 109.50000 418.400000
6489 15156 11246 1 109.50000 418.400000
9556 15156 9691 1 109.50000 418.400000
9556 15156 11246 1 109.50000 418.400000
9691 15156 11246 1 109.50000 418.400000
1578 15157 2841 1 109.50000 418.400000
1578 15157 4140 1 109.50000 418.400000
1578 15157 9692 1 109.50000 418.400000
2841 15157 4140 1 109.50000 418.400000
2841 15157 9692 1 109.50000 418.400000
4140 15157 9692 1 109.50000 418.400000
5606 15158 5648 1 109.50000 418.400000
5606 15158 9299 1 109.50000 418.400000
5606 15158 9693 1 109.50000 418.400000
5648 15158 9299 1 109.50000 418.400000
5648 15158 9693 1 109.50000 418.400000
9299 15158 9693 1 109.50000 418.400000
5102 15159 9694 1 109.50000 418.400000
5102 15159 9695 1 109.50000 418.400000
5102 15159 10680 1 109.50000 418.400000
9694 15159 9695 1 109.50000 418.400000
9694 15159 10680 1 109.50000 418.400000
9695 15159 10680 1 109.50000 418.400000
846 15160 8240 1 109.50000 418.400000
846 15160 9696 1 109.50000 418.400000
846 15160 9697 1 109.50000 418.400000
8240 15160 9696 1 109.50000 418.400000
8240 15160 9697 1 109.50000 418.400000
9696 15160 9697 1 109.50000 418.400000
2458 15161 8915 1 109.50000 418.400000
2458 15161 9030 1 109.50000 418.400000
2458 15161 9698 1 109.50000 418.400000
8915 15161 9030 1 109.50000 418.400000
8915 15161 9698 1 109.50000 418.400000
9030 15161 9698 1 109.50000 418.400000
4509 15162 9699 1 109.50000 418.400000
4509 15162 9700 1 109.50000 418.400000
4509 15162 9701 1 109.50000 418.400000
9699 15162 9700 1 109.50000 418.400000
9699 15162 9701 1 109.50000 418.400000
9700 15162 9701 1 109.50000 418.400000
2361 15163 9702 1 109.50000 418.400000
2361 15163 9703 1 109.50000 418.400000
2361 15163 9704 1 109.50000 418.400000
9702 15163 9703 1 109.50000 418.400000
9702 15163 9704 1 109.50000 418.400000
9703 15163 9704 1 109.50000 418.400000
329 15164 8502 1 109.50000 418.400000
329 15164 9705 1 109.50000 418.400000
329 15164 9706 1 109.50000 418.400000
8502 15164 9705 1 109.50000 418.400000
8502 15164 9706 1 109.50000 418.400000
9705 15164 9706 1 109.50000 418.400000
7628 15165 7945 1 109.50000 418.400000
7628 15165 9708 1 109.50000 418.400000
7628 15165 10467 1 109.50000 418.400000
7945 15165 9708 1 109.50000 418.400000
7945 15165 10467 1 109.50000 418.400000
9708 15165 10467 1 109.50000 418.400000
3831 15166 6470 1 109.50000 418.400000
3831 15166 8834 1 109.50000 418.400000
3831 15166 9709 1 109.50000 418.400000
6470 15166 8834 1 109.50000 418.400000
6470 15166 9709 1 109.50000 418.400000
8834 15166 9709 1 109.50000 418.400000
3951 15167 9494 1 109.50000 418.400000
3951 15167 9710 1 109.50000 418.400000
3951 15167 9711 1 109.50000 418.400000
9494 15167 9710 1 109.50000 418.400000
9494 15167 9711 1 109.50000 418.400000
9710 15167 9711 1 109.50000 418.400000
7659 15168 9712 1 109.50000 418.400000
7659 15168 9713 1 109.50000 418.400000
7659 15168 10259 1 109.50000 418.400000
9712 15168 9713 1 109.50000 418.400000
9712 15168 10259 1 109.50000 418.400000
9713 15168 10259 1 109.50000 418.400000
5728 15169 9163 1 109.50000 418.400000
5728 15169 9714 1 109.50000 418.400000
5728 15169 9715 1 109.50000 418.400000
9163 15169 9714 1 109.50000 418.400000
9163 15169 9715 1 109.50000 418.400000
9714 15169 9715 1 109.50000 418.400000
3094 15170 5099 1 109.50000 418.400000
3094 15170 9716 1 109.50000 418.400000
3094 15170 9717 1 109.50000 418.400000
5099 15170 9716 1 109.50000 418.400000
5099 15170 9717 1 109.50000 418.400000
9716 15170 9717 1 109.50000 418.400000
844 15171 6717 1 109.50000 418.400000
844 15171 8526 1 109.50000 418.400000
844 15171 9718 1 109.50000 418.400000
6717 15171 8526 1 109.50000 418.400000
6717 15171 9718 1 109.50000 418.400000
8526 15171 9718 1 109.50000 418.400000
6226 15172 9719 1 109.50000 418.400000
6226 15172 9720 1 109.50000 418.400000
6226 15172 9721 1 109.50000 418.400000
9719 15172 9720 1 109.50000 418.400000
9719 15172 9721 1 109.50000 418.400000
9720 15172 9721 1 109.50000 418.400000
1237 15173 4076 1 109.50000 418.400000
1237 15173 5414 1 109.50000 418.400000
1237 15173 11576 1 109.50000 418.400000
4076 15173 5414 1 109.50000 418.400000
4076 15173 11576 1 109.50000 418.400000
5414 15173 11576 1 109.50000 418.400000
3104 15174 4081 1 109.50000 418.400000
3104 15174 7579 1 109.50000 418.400000
3104 15174 9298 1 109.50000 418.400000
4081 15174 7579 1 109.50000 418.400000
4081 15174 9298 1 109.50000 418.400000
7579 15174 9298 1 109.50000 418.400000
7133 15175 7899 1 109.50000 418.400000
7133 15175 9722 1 109.50000 418.400000
7133 15175 9723 1 109.50000 418.400000
7899 15175 9722 1 109.50000 418.400000
7899 15175 9723 1 109.50000 418.400000
9722 15175 9723 1 109.50000 418.400000
1043 15176 2382 1 109.50000 418.400000
1043 15176 9403 1 109.50000 418.400000
1043 15176 11278 1 109.50000 418.400000
2382 15176 9403 1 109.50000 418.400000
2382 15176 11278 1 109.50000 418.400000
9403 15176 11278 1 109.50000 418.400000
7707 15177 7721 1 109.50000 418.400000
7707 15177 7767 1 109.50000 418.400000
7707 15177 9724 1 109.50000 418.400000
7721 15177 7767 1 109.50000 418.400000
7721 15177 9724 1 109.50000 418.400000
7767 15177 9724 1 109.50000 418.400000
9037 15178 9437 1 109.50000 418.400000
9037 15178 9718 1 109.50000 418.400000
9037 15178 9725 1 109.50000 418.400000
9437 15178 9718 1 109.50000 418.400000
9437 15178 9725 1 109.50000 418.400000
9718 15178 9725 1 109.50000 418.400000
3323 15179 5935 1 109.50000 418.400000
3323 15179 8638 1 109.50000 418.400000
3323 15179 9726 1 109.50000 418.400000
5935 15179 8638 1 109.50000 418.400000
5935 15179 9726 1 109.50000 418.400000
8638 15179 9726 1 109.50000 418.400000
4261 15180 7346 1 109.50000 418.400000
4261 15180 9059 1 109.50000 418.400000
4261 15180 9728 1 109.50000 418.400000
7346 15180 9059 1 109.50000 418.400000
7346 15180 9728 1 109.50000 418.400000
9059 15180 9728 1 109.50000 418.400000
3465 15181 6839 1 109.50000 418.400000
3465 15181 9596 1 109.50000 418.400000
3465 15181 9730 1 109.50000 418.400000
6839 15181 9596 1 109.50000 418.400000
6839 15181 9730 1 109.50000 418.400000
9596 15181 9730 1 109.50000 418.400000
5905 15182 6873 1 109.50000 418.400000
5905 15182 9260 1 109.50000 418.400000
5905 15182 9702 1 109.50000 418.400000
6873 15182 9260 1 109.50000 418.400000
6873 15182 9702 1 109.50000 418.400000
9260 15182 9702 1 109.50000 418.400000
4121 15183 8086 1 109.50000 418.400000
4121 15183 8553 1 109.50000 418.400000
4121 15183 9731 1 109.50000 418.400000
8086 15183 8553 1 109.50000 418.400000
8086 15183 9731 1 109.50000 418.400000
8553 15183 9731 1 109.50000 418.400000
9732 15184 9733 1 109.50000 418.400000
9732 15184 9734 1 109.50000 418.400000
9732 15184 9735 1 109.50000 418.400000
9733 15184 9734 1 109.50000 418.400000
9733 15184 9735 1 109.50000 418.400000
9734 15184 9735 1 109.50000 418.400000
9351 15185 9736 1 109.50000 418.400000
9351 15185 9737 1 109.50000 418.400000
9351 15185 9738 1 109.50000 418.400000
9736 15185 9737 1 109.50000 418.400000
9736 15185 9738 1 109.50000 418.400000
9737 15185 9738 1 109.50000 418.400000
4134 15186 7739 1 109.50000 418.400000
4134 15186 8529 1 109.50000 418.400000
4134 15186 9739 1 109.50000 418.400000
7739 15186 8529 1 109.50000 418.400000
7739 15186 9739 1 109.50000 418.400000
8529 15186 9739 1 109.50000 418.400000
4177 15187 5759 1 109.50000 418.400000
4177 15187 5760 1 109.50000 418.400000
4177 15187 6978 1 109.50000 418.400000
5759 15187 5760 1 109.50000 418.400000
5759 15187 6978 1 109.50000 418.400000
5760 15187 6978 1 109.50000 418.400000
1236 15188 1554 1 109.50000 418.400000
1236 15188 6389 1 109.50000 418.400000
1236 15188 9741 1 109.50000 418.400000
1554 15188 6389 1 109.50000 418.400000
1554 15188 9741 1 109.50000 418.400000
6389 15188 9741 1 109.50000 418.400000
1681 15189 7596 1 109.50000 418.400000
1681 15189 9742 1 109.50000 418.400000
1681 15189 9743 1 109.50000 418.400000
7596 15189 9742 1 109.50000 418.400000
7596 15189 9743 1 109.50000 418.400000
9742 15189 9743 1 109.50000 418.400000
1155 15190 8974 1 109.50000 418.400000
1155 15190 9744 1 109.50000 418.400000
1155 15190 9745 1 109.50000 418.400000
8974 15190 9744 1 109.50000 418.400000
8974 15190 9745 1 109.50000 418.400000
9744 15190 9745 1 109.50000 418.400000
3348 15191 9159 1 109.50000 418.400000
3348 15191 9746 1 109.50000 418.400000
3348 15191 9747 1 109.50000 418.400000
9159 15191 9746 1 109.50000 418.400000
9159 15191 9747 1 109.50000 418.400000
9746 15191 9747 1 109.50000 418.400000
1417 15192 6270 1 109.50000 418.400000
1417 15192 7238 1 109.50000 418.400000
1417 15192 9748 1 109.50000 418.400000
6270 15192 7238 1 109.50000 418.400000
6270 15192 9748 1 109.50000 418.400000
7238 15192 9748 1 109.50000 418.400000
7686 15193 9548 1 109.50000 418.400000
7686 15193 9749 1 109.50000 418.400000
7686 15193 9750 1 109.50000 418.400000
9548 15193 9749 1 109.50000 418.400000
9548 15193 9750 1 109.50000 418.400000
9749 15193 9750 1 109.50000 418.400000
4052 15194 9751 1 109.50000 418.400000
4052 15194 9752 1 109.50000 418.400000
4052 15194 9753 1 109.50000 418.400000
9751 15194 9752 1 109.50000 418.400000
9751 15194 9753 1 109.50000 418.400000
9752 15194 9753 1 109.50000 418.400000
1790 15195 4943 1 109.50000 418.400000
1790 15195 7891 1 109.50000 418.400000
1790 15195 9754 1 109.50000 418.400000
4943 15195 7891 1 109.50000 418.400000
4943 15195 9754 1 109.50000 418.400000
7891 15195 9754 1 109.50000 418.400000
6590 15196 9246 1 109.50000 418.400000
6590 15196 9755 1 109.50000 418.400000
6590 15196 9756 1 109.50000 418.400000
9246 15196 9755 1 109.50000 418.400000
9246 15196 9756 1 109.50000 418.400000
9755 15196 9756 1 109.50000 418.400000
1090 15197 7562 1 109.50000 418.400000
1090 15197 9310 1 109.50000 418.400000
1090 15197 9540 1 109.50000 418.400000
7562 15197 9310 1 109.50000 418.400000
7562 15197 9540 1 109.50000 418.400000
9310 15197 9540 1 109.50000 418.400000
5707 15198 7296 1 109.50000 418.400000
5707 15198 7462 1 109.50000 418.400000
5707 15198 9251 1 109.50000 418.400000
7296 15198 7462 1 109.50000 418.400000
7296 15198 9251 1 109.50000 418.400000
7462 15198 9251 1 109.50000 418.400000
2261 15199 4329 1 109.50000 418.400000
2261 15199 7009 1 109.50000 418.400000
2261 15199 8618 1 109.50000 418.400000
4329 15199 7009 1 109.50000 418.400000
4329 15199 8618 1 109.50000 418.400000
7009 15199 8618 1 109.50000 418.400000
275 15200 6663 1 109.50000 418.400000
275 15200 9757 1 109.50000 418.400000
275 15200 9758 1 109.50000 418.400000
6663 15200 9757 1 109.50000 418.400000
6663 15200 9758 1 109.50000 418.400000
9757 15200 9758 1 109.50000 418.400000
3169 15201 7416 1 109.50000 418.400000
3169 15201 7693 1 109.50000 418.400000
3169 15201 7695 1 109.50000 418.400000
7416 15201 7693 1 109.50000 418.400000
7416 15201 7695 1 109.50000 418.400000
7693 15201 7695 1 109.50000 418.400000
1999 15202 7985 1 109.50000 418.400000
1999 15202 8283 1 109.50000 418.400000
1999 15202 9760 1 109.50000 418.400000
7985 15202 8283 1 109.50000 418.400000
7985 15202 9760 1 109.50000 418.400000
8283 15202 9760 1 109.50000 418.400000
1326 15203 2891 1 109.50000 418.400000
1326 15203 9598 1 109.50000 418.400000
1326 15203 9761 1 109.50000 418.400000
2891 15203 9598 1 109.50000 418.400000
2891 15203 9761 1 109.50000 418.400000
9598 15203 9761 1 109.50000 418.400000
448 15204 1622 1 109.50000 418.400000
448 15204 9762 1 109.50000 418.400000
448 15204 9763 1 109.50000 418.400000
1622 15204 9762 1 109.50000 418.400000
1622 15204 9763 1 109.50000 418.400000
9762 15204 9763 1 109.50000 418.400000
603 15205 7772 1 109.50000 418.400000
603 15205 11150 1 109.50000 418.400000
603 15205 11387 1 109.50000 418.400000
7772 15205 11150 1 109.50000 418.400000
7772 15205 11387 1 109.50000 418.400000
11150 15205 11387 1 109.50000 418.400000
9764 15206 9765 1 109.50000 418.400000
9764 15206 11319 1 109.50000 418.400000
9764 15206 11499 1 109.50000 418.400000
9765 15206 11319 1 109.50000 418.400000
9765 15206 11499 1 109.50000 418.400000
11319 15206 11499 1 109.50000 418.400000
4813 15207 8219 1 109.50000 418.400000
4813 15207 9241 1 109.50000 418.400000
4813 15207 9766 1 109.50000 418.400000
8219 15207 9241 1 109.50000 418.400000
8219 15207 9766 1 109.50000 418.400000
9241 15207 9766 1 109.50000 418.400000
2363 15208 9519 1 109.50000 418.400000
2363 15208 9767 1 109.50000 418.400000
2363 15208 9768 1 109.50000 418.400000
9519 15208 9767 1 109.50000 418.400000
9519 15208 9768 1 109.50000 418.400000
9767 15208 9768 1 109.50000 418.400000
4323 15209 9629 1 109.50000 418.400000
4323 15209 9769 1 109.50000 418.400000
4323 15209 9770 1 109.50000 418.400000
9629 15209 9769 1 109.50000 418.400000
9629 15209 9770 1 109.50000 418.400000
9769 15209 9770 1 109.50000 418.400000
6613 15210 6894 1 109.50000 418.400000
6613 15210 9771 1 109.50000 418.400000
6613 15210 9772 1 109.50000 418.400000
6894 15210 9771 1 109.50000 418.400000
6894 15210 9772 1 109.50000 418.400000
9771 15210 9772 1 109.50000 418.400000
1076 15211 4689 1 109.50000 418.400000
1076 15211 7836 1 109.50000 418.400000
1076 15211 11597 1 109.50000 418.400000
4689 15211 7836 1 109.50000 418.400000
4689 15211 11597 1 109.50000 418.400000
7836 15211 11597 1 109.50000 418.400000
1927 15212 8235 1 109.50000 418.400000
1927 15212 8686 1 109.50000 418.400000
1927 15212 9773 1 109.50000 418.400000
8235 15212 8686 1 109.50000 418.400000
8235 15212 9773 1 109.50000 418.400000
8686 15212 9773 1 109.50000 418.400000
4738 15213 9755 1 109.50000 418.400000
4738 15213 9774 1 109.50000 418.400000
4738 15213 11605 1 109.50000 418.400000
9755 15213 9774 1 109.50000 418.400000
9755 15213 11605 1 109.50000 418.400000
9774 15213 11605 1 109.50000 418.400000
574 15214 3548 1 109.50000 418.400000
574 15214 5478 1 109.50000 418.400000
574 15214 9775 1 109.50000 418.400000
3548 15214 5478 1 109.50000 418.400000
3548 15214 9775 1 109.50000 418.400000
5478 15214 9775 1 109.50000 418.400000
6871 15215 9379 1 109.50000 418.400000
6871 15215 9530 1 109.50000 418.400000
6871 15215 9776 1 109.50000 418.400000
9379 15215 9530 1 109.50000 418.400000
9379 15215 9776 1 109.50000 418.400000
9530 15215 9776 1 109.50000 418.400000
2596 15216 8430 1 109.50000 418.400000
2596 15216 9778 1 109.50000 418.400000
2596 15216 9779 1 109.50000 418.400000
8430 15216 9778 1 109.50000 418.400000
8430 15216 9779 1 109.50000 418.400000
9778 15216 9779 1 109.50000 418.400000
6902 15217 6962 1 109.50000 418.400000
6902 15217 7736 1 109.50000 418.400000
6902 15217 9780 1 109.50000 418.400000
6962 15217 7736 1 109.50000 418.400000
6962 15217 9780 1 109.50000 418.400000
7736 15217 9780 1 109.50000 418.400000
5502 15218 7941 1 109.50000 418.400000
5502 15218 9781 1 109.50000 418.400000
5502 15218 9782 1 109.50000 418.400000
7941 15218 9781 1 109.50000 418.400000
7941 15218 9782 1 109.50000 418.400000
9781 15218 9782 1 109.50000 418.400000
344 15219 9783 1 109.50000 418.400000
344 15219 9784 1 109.50000 418.400000
344 15219 9785 1 109.50000 418.400000
9783 15219 9784 1 109.50000 418.400000
9783 15219 9785 1 109.50000 418.400000
9784 15219 9785 1 109.50000 418.400000
750 15220 3381 1 109.50000 418.400000
750 15220 9044 1 109.50000 418.400000
750 15220 9786 1 109.50000 418.400000
3381 15220 9044 1 109.50000 418.400000
3381 15220 9786 1 109.50000 418.400000
9044 15220 9786 1 109.50000 418.400000
2469 15221 6734 1 109.50000 418.400000
2469 15221 9557 1 109.50000 418.400000
2469 15221 11526 1 109.50000 418.400000
6734 15221 9557 1 109.50000 418.400000
6734 15221 11526 1 109.50000 418.400000
9557 15221 11526 1 109.50000 418.400000
3963 15222 7838 1 109.50000 418.400000
3963 15222 9787 1 109.50000 418.400000
3963 15222 9788 1 109.50000 418.400000
7838 15222 9787 1 109.50000 418.400000
7838 15222 9788 1 109.50000 418.400000
9787 15222 9788 1 109.50000 418.400000
2336 15223 5239 1 109.50000 418.400000
2336 15223 6607 1 109.50000 418.400000
2336 15223 9789 1 109.50000 418.400000
5239 15223 6607 1 109.50000 418.400000
5239 15223 9789 1 109.50000 418.400000
6607 15223 9789 1 109.50000 418.400000
8000 15224 9790 1 109.50000 418.400000
8000 15224 9791 1 109.50000 418.400000
8000 15224 9792 1 109.50000 418.400000
9790 15224 9791 1 109.50000 418.400000
9790 15224 9792 1 109.50000 418.400000
9791 15224 9792 1 109.50000 418.400000
7732 15225 8725 1 109.50000 418.400000
7732 15225 11283 1 109.50000 418.400000
7732 15225 11300 1 109.50000 418.400000
8725 15225 11283 1 109.50000 418.400000
8725 15225 11300 1 109.50000 418.400000
11283 15225 11300 1 109.50000 418.400000
3402 15226 5211 1 109.50000 418.400000
3402 15226 8919 1 109.50000 418.400000
3402 15226 9237 1 109.50000 418.400000
5211 15226 8919 1 109.50000 418.400000
5211 15226 9237 1 109.50000 418.400000
8919 15226 9237 1 109.50000 418.400000
3809 15227 8912 1 109.50000 418.400000
3809 15227 9761 1 109.50000 418.400000
3809 15227 9793 1 109.50000 418.400000
8912 15227 9761 1 109.50000 418.400000
8912 15227 9793 1 109.50000 418.400000
9761 15227 9793 1 109.50000 418.400000
1386 15228 4055 1 109.50000 418.400000
1386 15228 9794 1 109.50000 418.400000
1386 15228 9795 1 109.50000 418.400000
4055 15228 9794 1 109.50000 418.400000
4055 15228 9795 1 109.50000 418.400000
9794 15228 9795 1 109.50000 418.400000
3668 15229 7846 1 109.50000 418.400000
3668 15229 9796 1 109.50000 418.400000
3668 15229 9797 1 109.50000 418.400000
7846 15229 9796 1 109.50000 418.400000
7846 15229 9797 1 109.50000 418.400000
9796 15229 9797 1 109.50000 418.400000
1370 15230 2988 1 109.50000 418.400000
1370 15230 9663 1 109.50000 418.400000
1370 15230 11462 1 109.50000 418.400000
2988 15230 9663 1 109.50000 418.400000
2988 15230 11462 1 109.50000 418.400000
9663 15230 11462 1 109.50000 418.400000
5642 15231 8702 1 109.50000 418.400000
5642 15231 9798 1 109.50000 418.400000
5642 15231 9799 1 109.50000 418.400000
8702 15231 9798 1 109.50000 418.400000
8702 15231 9799 1 109.50000 418.400000
9798 15231 9799 1 109.50000 418.400000
2322 15232 6794 1 109.50000 418.400000
2322 15232 9370 1 109.50000 418.400000
2322 15232 9428 1 109.50000 418.400000
6794 15232 9370 1 109.50000 418.400000
6794 15232 9428 1 109.50000 418.400000
9370 15232 9428 1 109.50000 418.400000
3696 15233 8678 1 109.50000 418.400000
3696 15233 9800 1 109.50000 418.400000
3696 15233 9801 1 109.50000 418.400000
8678 15233 9800 1 109.50000 418.400000
8678 15233 9801 1 109.50000 418.400000
9800 15233 9801 1 109.50000 418.400000
6054 15234 9764 1 109.50000 418.400000
6054 15234 9802 1 109.50000 418.400000
6054 15234 9803 1 109.50000 418.400000
9764 15234 9802 1 109.50000 418.400000
9764 15234 9803 1 109.50000 418.400000
9802 15234 9803 1 109.50000 418.400000
5840 15235 8426 1 109.50000 418.400000
5840 15235 8956 1 109.50000 418.400000
5840 15235 11202 1 109.50000 418.400000
8426 15235 8956 1 109.50000 418.400000
8426 15235 11202 1 109.50000 418.400000
8956 15235 11202 1 109.50000 418.400000
3488 15236 4355 1 109.50000 418.400000
3488 15236 8327 1 109.50000 418.400000
3488 15236 9804 1 109.50000 418.400000
4355 15236 8327 1 109.50000 418.400000
4355 15236 9804 1 109.50000 418.400000
8327 15236 9804 1 109.50000 418.400000
2085 15237 2603 1 109.50000 418.400000
2085 15237 4816 1 109.50000 418.400000
2085 15237 7262 1 109.50000 418.400000
2603 15237 4816 1 109.50000 418.400000
2603 15237 7262 1 109.50000 418.400000
4816 15237 7262 1 109.50000 418.400000
1823 15238 4073 1 109.50000 418.400000
1823 15238 8805 1 109.50000 418.400000
1823 15238 9805 1 109.50000 418.400000
4073 15238 8805 1 109.50000 418.400000
4073 15238 9805 1 109.50000 418.400000
8805 15238 9805 1 109.50000 418.400000
1756 15239 4773 1 109.50000 418.400000
1756 15239 6307 1 109.50000 418.400000
1756 15239 11214 1 109.50000 418.400000
4773 15239 6307 1 109.50000 418.400000
4773 15239 11214 1 109.50000 418.400000
6307 15239 11214 1 109.50000 418.400000
7742 15240 9665 1 109.50000 418.400000
7742 15240 9806 1 109.50000 418.400000
7742 15240 11470 1 109.50000 418.400000
9665 15240 9806 1 109.50000 418.400000
9665 15240 11470 1 109.50000 418.400000
9806 15240 11470 1 109.50000 418.400000
949 15241 951 1 109.50000 418.400000
949 15241 7132 1 109.50000 418.400000
949 15241 9807 1 109.50000 418.400000
951 15241 7132 1 109.50000 418.400000
951 15241 9807 1 109.50000 418.400000
7132 15241 9807 1 109.50000 418.400000
3601 15242 6014 1 109.50000 418.400000
3601 15242 9808 1 109.50000 418.400000
3601 15242 11461 1 109.50000 418.400000
6014 15242 9808 1 109.50000 418.400000
6014 15242 11461 1 109.50000 418.400000
9808 15242 11461 1 109.50000 418.400000
4626 15243 5563 1 109.50000 418.400000
4626 15243 9809 1 109.50000 418.400000
4626 15243 9810 1 109.50000 418.400000
5563 15243 9809 1 109.50000 418.400000
5563 15243 9810 1 109.50000 418.400000
9809 15243 9810 1 109.50000 418.400000
1217 15244 9224 1 109.50000 418.400000
1217 15244 9811 1 109.50000 418.400000
1217 15244 9812 1 109.50000 418.400000
9224 15244 9811 1 109.50000 418.400000
9224 15244 9812 1 109.50000 418.400000
9811 15244 9812 1 109.50000 418.400000
5683 15245 9813 1 109.50000 418.400000
5683 15245 9814 1 109.50000 418.400000
5683 15245 9815 1 109.50000 418.400000
9813 15245 9814 1 109.50000 418.400000
9813 15245 9815 1 109.50000 418.400000
9814 15245 9815 1 109.50000 418.400000
3122 15246 4396 1 109.50000 418.400000
3122 15246 8602 1 109.50000 418.400000
3122 15246 9816 1 109.50000 418.400000
4396 15246 8602 1 109.50000 418.400000
4396 15246 9816 1 109.50000 418.400000
8602 15246 9816 1 109.50000 418.400000
3988 15247 6081 1 109.50000 418.400000
3988 15247 9817 1 109.50000 418.400000
3988 15247 9818 1 109.50000 418.400000
6081 15247 9817 1 109.50000 418.400000
6081 15247 9818 1 109.50000 418.400000
9817 15247 9818 1 109.50000 418.400000
2607 15248 6743 1 109.50000 418.400000
2607 15248 9819 1 109.50000 418.400000
2607 15248 9820 1 109.50000 418.400000
6743 15248 9819 1 109.50000 418.400000
6743 15248 9820 1 109.50000 418.400000
9819 15248 9820 1 109.50000 418.400000
476 15249 8108 1 109.50000 418.400000
476 15249 8496 1 109.50000 418.400000
476 15249 9065 1 109.50000 418.400000
8108 15249 8496 1 109.50000 418.400000
8108 15249 9065 1 109.50000 418.400000
8496 15249 9065 1 109.50000 418.400000
258 15250 4562 1 109.50000 418.400000
258 15250 8018 1 109.50000 418.400000
258 15250 9821 1 109.50000 418.400000
4562 15250 8018 1 109.50000 418.400000
4562 15250 9821 1 109.50000 418.400000
8018 15250 9821 1 109.50000 418.400000
7788 15251 9822 1 109.50000 418.400000
7788 15251 9823 1 109.50000 418.400000
7788 15251 11296 1 109.50000 418.400000
9822 15251 9823 1 109.50000 418.400000
9822 15251 11296 1 109.50000 418.400000
9823 15251 11296 1 109.50000 418.400000
1926 15252 1927 1 109.50000 418.400000
1926 15252 9824 1 109.50000 418.400000
1926 15252 11502 1 109.50000 418.400000
1927 15252 9824 1 109.50000 418.400000
1927 15252 11502 1 109.50000 418.400000
9824 15252 11502 1 109.50000 418.400000
2047 15253 5230 1 109.50000 418.400000
2047 15253 6643 1 109.50000 418.400000
2047 15253 11480 1 109.50000 418.400000
5230 15253 6643 1 109.50000 418.400000
5230 15253 11480 1 109.50000 418.400000
6643 15253 11480 1 109.50000 418.400000
596 15254 736 1 109.50000 418.400000
596 15254 9813 1 109.50000 418.400000
596 15254 9826 1 109.50000 418.400000
736 15254 9813 1 109.50000 418.400000
736 15254 9826 1 109.50000 418.400000
9813 15254 9826 1 109.50000 418.400000
2945 15255 9386 1 109.50000 418.400000
2945 15255 9827 1 109.50000 418.400000
2945 15255 9828 1 109.50000 418.400000
9386 15255 9827 1 109.50000 418.400000
9386 15255 9828 1 109.50000 418.400000
9827 15255 9828 1 109.50000 418.400000
936 15256 6945 1 109.50000 418.400000
936 15256 9829 1 109.50000 418.400000
936 15256 9830 1 109.50000 418.400000
6945 15256 9829 1 109.50000 418.400000
6945 15256 9830 1 109.50000 418.400000
9829 15256 9830 1 109.50000 418.400000
8443 15257 9831 1 109.50000 418.400000
8443 15257 9832 1 109.50000 418.400000
8443 15257 9833 1 109.50000 418.400000
9831 15257 9832 1 109.50000 418.400000
9831 15257 9833 1 109.50000 418.400000
9832 15257 9833 1 109.50000 418.400000
9129 15258 9538 1 109.50000 418.400000
9129 15258 9605 1 109.50000 418.400000
9129 15258 9834 1 109.50000 418.400000
9538 15258 9605 1 109.50000 418.400000
9538 15258 9834 1 109.50000 418.400000
9605 15258 9834 1 109.50000 418.400000
4017 15259 7474 1 109.50000 418.400000
4017 15259 9261 1 109.50000 418.400000
4017 15259 9835 1 109.50000 418.400000
7474 15259 9261 1 109.50000 418.400000
7474 15259 9835 1 109.50000 418.400000
9261 15259 9835 1 109.50000 418.400000
4847 15260 9836 1 109.50000 418.400000
4847 15260 9837 1 109.50000 418.400000
4847 15260 9838 1 109.50000 418.400000
9836 15260 9837 1 109.50000 418.400000
9836 15260 9838 1 109.50000 418.400000
9837 15260 9838 1 109.50000 418.400000
743 15261 3003 1 109.50000 418.400000
743 15261 3084 1 109.50000 418.400000
743 15261 3843 1 109.50000 418.400000
3003 15261 3084 1 109.50000 418.400000
3003 15261 3843 1 109.50000 418.400000
3084 15261 3843 1 109.50000 418.400000
810 15262 4132 1 109.50000 418.400000
810 15262 9839 1 109.50000 418.400000
810 15262 9840 1 109.50000 418.400000
4132 15262 9839 1 109.50000 418.400000
4132 15262 9840 1 109.50000 418.400000
9839 15262 9840 1 109.50000 418.400000
5722 15263 9392 1 109.50000 418.400000
5722 15263 9841 1 109.50000 418.400000
5722 15263 9842 1 109.50000 418.400000
9392 15263 9841 1 109.50000 418.400000
9392 15263 9842 1 109.50000 418.400000
9841 15263 9842 1 109.50000 418.400000
1199 15264 1558 1 109.50000 418.400000
1199 15264 2237 1 109.50000 418.400000
1199 15264 6786 1 109.50000 418.400000
1558 15264 2237 1 109.50000 418.400000
1558 15264 6786 1 109.50000 418.400000
2237 15264 6786 1 109.50000 418.400000
2094 15265 7680 1 109.50000 418.400000
2094 15265 9843 1 109.50000 418.400000
2094 15265 9844 1 109.50000 418.400000
7680 15265 9843 1 109.50000 418.400000
7680 15265 9844 1 109.50000 418.400000
9843 15265 9844 1 109.50000 418.400000
1517 15266 6063 1 109.50000 418.400000
1517 15266 7914 1 109.50000 418.400000
1517 15266 8491 1 109.50000 418.400000
6063 15266 7914 1 109.50000 418.400000
6063 15266 8491 1 109.50000 418.400000
7914 15266 8491 1 109.50000 418.400000
6604 15267 9845 1 109.50000 418.400000
6604 15267 9846 1 109.50000 418.400000
6604 15267 9847 1 109.50000 418.400000
9845 15267 9846 1 109.50000 418.400000
9845 15267 9847 1 109.50000 418.400000
9846 15267 9847 1 109.50000 418.400000
3661 15268 3886 1 109.50000 418.400000
3661 15268 7401 1 109.50000 418.400000
3661 15268 9848 1 109.50000 418.400000
3886 15268 7401 1 109.50000 418.400000
3886 15268 9848 1 109.50000 418.400000
7401 15268 9848 1 109.50000 418.400000
2364 15269 7557 1 109.50000 418.400000
2364 15269 9849 1 109.50000 418.400000
2364 15269 9850 1 109.50000 418.400000
7557 15269 9849 1 109.50000 418.400000
7557 15269 9850 1 109.50000 418.400000
9849 15269 9850 1 109.50000 418.400000
3551 15270 6694 1 109.50000 418.400000
3551 15270 8092 1 109.50000 418.400000
3551 15270 9851 1 109.50000 418.400000
6694 15270 8092 1 109.50000 418.400000
6694 15270 9851 1 109.50000 418.400000
8092 15270 9851 1 109.50000 418.400000
4776 15271 9852 1 109.50000 418.400000
4776 15271 9853 1 109.50000 418.400000
4776 15271 11473 1 109.50000 418.400000
9852 15271 9853 1 109.50000 418.400000
9852 15271 11473 1 109.50000 418.400000
9853 15271 11473 1 109.50000 418.400000
149 15272 2549 1 109.50000 418.400000
149 15272 9854 1 109.50000 418.400000
149 15272 10266 1 109.50000 418.400000
2549 15272 9854 1 109.50000 418.400000
2549 15272 10266 1 109.50000 418.400000
9854 15272 10266 1 109.50000 418.400000
3145 15273 3949 1 109.50000 418.400000
3145 15273 6087 1 109.50000 418.400000
3145 15273 8795 1 109.50000 418.400000
3949 15273 6087 1 109.50000 418.400000
3949 15273 8795 1 109.50000 418.400000
6087 15273 8795 1 109.50000 418.400000
3120 15274 6498 1 109.50000 418.400000
3120 15274 9855 1 109.50000 418.400000
3120 15274 9856 1 109.50000 418.400000
6498 15274 9855 1 109.50000 418.400000
6498 15274 9856 1 109.50000 418.400000
9855 15274 9856 1 109.50000 418.400000
1282 15275 6058 1 109.50000 418.400000
1282 15275 7358 1 109.50000 418.400000
1282 15275 9857 1 109.50000 418.400000
6058 15275 7358 1 109.50000 418.400000
6058 15275 9857 1 109.50000 418.400000
7358 15275 9857 1 109.50000 418.400000
2741 15276 5321 1 109.50000 418.400000
2741 15276 9858 1 109.50000 418.400000
2741 15276 9859 1 109.50000 418.400000
5321 15276 9858 1 109.50000 418.400000
5321 15276 9859 1 109.50000 418.400000
9858 15276 9859 1 109.50000 418.400000
6314 15277 6615 1 109.50000 418.400000
6314 15277 8111 1 109.50000 418.400000
6314 15277 11489 1 109.50000 418.400000
6615 15277 8111 1 109.50000 418.400000
6615 15277 11489 1 109.50000 418.400000
8111 15277 11489 1 109.50000 418.400000
4934 15278 7230 1 109.50000 418.400000
4934 15278 9860 1 109.50000 418.400000
4934 15278 9861 1 109.50000 418.400000
7230 15278 9860 1 109.50000 418.400000
7230 15278 9861 1 109.50000 418.400000
9860 15278 9861 1 109.50000 418.400000
3096 15279 7236 1 109.50000 418.400000
3096 15279 9862 1 109.50000 418.400000
3096 15279 9863 1 109.50000 418.400000
7236 15279 9862 1 109.50000 418.400000
7236 15279 9863 1 109.50000 418.400000
9862 15279 9863 1 109.50000 418.400000
1065 15280 6914 1 109.50000 418.400000
1065 15280 8062 1 109.50000 418.400000
1065 15280 9864 1 109.50000 418.400000
6914 15280 8062 1 109.50000 418.400000
6914 15280 9864 1 109.50000 418.400000
8062 15280 9864 1 109.50000 418.400000
4805 15281 4860 1 109.50000 418.400000
4805 15281 9865 1 109.50000 418.400000
4805 15281 9866 1 109.50000 418.400000
4860 15281 9865 1 109.50000 418.400000
4860 15281 9866 1 109.50000 418.400000
9865 15281 9866 1 109.50000 418.400000
8790 15282 9867 1 109.50000 418.400000
8790 15282 9868 1 109.50000 418.400000
8790 15282 9869 1 109.50000 418.400000
9867 15282 9868 1 109.50000 418.400000
9867 15282 9869 1 109.50000 418.400000
9868 15282 9869 1 109.50000 418.400000
5690 15283 7678 1 109.50000 418.400000
5690 15283 9350 1 109.50000 418.400000
5690 15283 9870 1 109.50000 418.400000
7678 15283 9350 1 109.50000 418.400000
7678 15283 9870 1 109.50000 418.400000
9350 15283 9870 1 109.50000 418.400000
4343 15284 8848 1 109.50000 418.400000
4343 15284 9871 1 109.50000 418.400000
4343 15284 9872 1 109.50000 418.400000
8848 15284 9871 1 109.50000 418.400000
8848 15284 9872 1 109.50000 418.400000
9871 15284 9872 1 109.50000 418.400000
8158 15285 9393 1 109.50000 418.400000
8158 15285 9873 1 109.50000 418.400000
8158 15285 9874 1 109.50000 418.400000
9393 15285 9873 1 109.50000 418.400000
9393 15285 9874 1 109.50000 418.400000
9873 15285 9874 1 109.50000 418.400000
4247 15286 6434 1 109.50000 418.400000
4247 15286 9875 1 109.50000 418.400000
4247 15286 9876 1 109.50000 418.400000
6434 15286 9875 1 109.50000 418.400000
6434 15286 9876 1 109.50000 418.400000
9875 15286 9876 1 109.50000 418.400000
3502 15287 9811 1 109.50000 418.400000
3502 15287 9877 1 109.50000 418.400000
3502 15287 9878 1 109.50000 418.400000
9811 15287 9877 1 109.50000 418.400000
9811 15287 9878 1 109.50000 418.400000
9877 15287 9878 1 109.50000 418.400000
1516 15288 7361 1 109.50000 418.400000
1516 15288 7996 1 109.50000 418.400000
1516 15288 9879 1 109.50000 418.400000
7361 15288 7996 1 109.50000 418.400000
7361 15288 9879 1 109.50000 418.400000
7996 15288 9879 1 109.50000 418.400000
3677 15289 6601 1 109.50000 418.400000
3677 15289 6868 1 109.50000 418.400000
3677 15289 11552 1 109.50000 418.400000
6601 15289 6868 1 109.50000 418.400000
6601 15289 11552 1 109.50000 418.400000
6868 15289 11552 1 109.50000 418.400000
6798 15290 9178 1 109.50000 418.400000
6798 15290 9880 1 109.50000 418.400000
6798 15290 9881 1 109.50000 418.400000
9178 15290 9880 1 109.50000 418.400000
9178 15290 9881 1 109.50000 418.400000
9880 15290 9881 1 109.50000 418.400000
7489 15291 8816 1 109.50000 418.400000
7489 15291 9882 1 109.50000 418.400000
7489 15291 9883 1 109.50000 418.400000
8816 15291 9882 1 109.50000 418.400000
8816 15291 9883 1 109.50000 418.400000
9882 15291 9883 1 109.50000 418.400000
860 15292 6970 1 109.50000 418.400000
860 15292 9787 1 109.50000 418.400000
860 15292 9884 1 109.50000 418.400000
6970 15292 9787 1 109.50000 418.400000
6970 15292 9884 1 109.50000 418.400000
9787 15292 9884 1 109.50000 418.400000
1580 15293 6588 1 109.50000 418.400000
1580 15293 6589 1 109.50000 418.400000
1580 15293 9769 1 109.50000 418.400000
6588 15293 6589 1 109.50000 418.400000
6588 15293 9769 1 109.50000 418.400000
6589 15293 9769 1 109.50000 418.400000
2007 15294 2403 1 109.50000 418.400000
2007 15294 2656 1 109.50000 418.400000
2007 15294 7299 1 109.50000 418.400000
2403 15294 2656 1 109.50000 418.400000
2403 15294 7299 1 109.50000 418.400000
2656 15294 7299 1 109.50000 418.400000
1202 15295 2804 1 109.50000 418.400000
1202 15295 4115 1 109.50000 418.400000
1202 15295 9885 1 109.50000 418.400000
2804 15295 4115 1 109.50000 418.400000
2804 15295 9885 1 109.50000 418.400000
4115 15295 9885 1 109.50000 418.400000
371 15296 8875 1 109.50000 418.400000
371 15296 9091 1 109.50000 418.400000
371 15296 11421 1 109.50000 418.400000
8875 15296 9091 1 109.50000 418.400000
8875 15296 11421 1 109.50000 418.400000
9091 15296 11421 1 109.50000 418.400000
517 15297 9217 1 109.50000 418.400000
517 15297 9218 1 109.50000 418.400000
517 15297 9465 1 109.50000 418.400000
9217 15297 9218 1 109.50000 418.400000
9217 15297 9465 1 109.50000 418.400000
9218 15297 9465 1 109.50000 418.400000
4415 15298 4832 1 109.50000 418.400000
4415 15298 4913 1 109.50000 418.400000
4415 15298 7050 1 109.50000 418.400000
4832 15298 4913 1 109.50000 418.400000
4832 15298 7050 1 109.50000 418.400000
4913 15298 7050 1 109.50000 418.400000
50 15299 4728 1 109.50000 418.400000
50 15299 9676 1 109.50000 418.400000
50 15299 9886 1 109.50000 418.400000
4728 15299 9676 1 109.50000 418.400000
4728 15299 9886 1 109.50000 418.400000
9676 15299 9886 1 109.50000 418.400000
1735 15300 2010 1 109.50000 418.400000
1735 15300 2080 1 109.50000 418.400000
1735 15300 5941 1 109.50000 418.400000
2010 15300 2080 1 109.50000 418.400000
2010 15300 5941 1 109.50000 418.400000
2080 15300 5941 1 109.50000 418.400000
1233 15301 9069 1 109.50000 418.400000
1233 15301 9888 1 109.50000 418.400000
1233 15301 9889 1 109.50000 418.400000
9069 15301 9888 1 109.50000 418.400000
9069 15301 9889 1 109.50000 418.400000
9888 15301 9889 1 109.50000 418.400000
2290 15302 9890 1 109.50000 418.400000
2290 15302 9891 1 109.50000 418.400000
2290 15302 9892 1 109.50000 418.400000
9890 15302 9891 1 109.50000 418.400000
9890 15302 9892 1 109.50000 418.400000
9891 15302 9892 1 109.50000 418.400000
820 15303 2374 1 109.50000 418.400000
820 15303 9893 1 109.50000 418.400000
820 15303 9894 1 109.50000 418.400000
2374 15303 9893 1 109.50000 418.400000
2374 15303 9894 1 109.50000 418.400000
9893 15303 9894 1 109.50000 418.400000
6025 15304 8551 1 109.50000 418.400000
6025 15304 8944 1 109.50000 418.400000
6025 15304 9895 1 109.50000 418.400000
8551 15304 8944 1 109.50000 418.400000
8551 15304 9895 1 109.50000 418.400000
8944 15304 9895 1 109.50000 418.400000
6618 15305 6956 1 109.50000 418.400000
6618 15305 7775 1 109.50000 418.400000
6618 15305 9896 1 109.50000 418.400000
6956 15305 7775 1 109.50000 418.400000
6956 15305 9896 1 109.50000 418.400000
7775 15305 9896 1 109.50000 418.400000
2376 15306 5223 1 109.50000 418.400000
2376 15306 9897 1 109.50000 418.400000
2376 15306 9898 1 109.50000 418.400000
5223 15306 9897 1 109.50000 418.400000
5223 15306 9898 1 109.50000 418.400000
9897 15306 9898 1 109.50000 418.400000
6077 15307 6451 1 109.50000 418.400000
6077 15307 8315 1 109.50000 418.400000
6077 15307 9899 1 109.50000 418.400000
6451 15307 8315 1 109.50000 418.400000
6451 15307 9899 1 109.50000 418.400000
8315 15307 9899 1 109.50000 418.400000
1290 15308 1397 1 109.50000 418.400000
1290 15308 6842 1 109.50000 418.400000
1290 15308 9669 1 109.50000 418.400000
1397 15308 6842 1 109.50000 418.400000
1397 15308 9669 1 109.50000 418.400000
6842 15308 9669 1 109.50000 418.400000
9491 15309 9900 1 109.50000 418.400000
9491 15309 9901 1 109.50000 418.400000
9491 15309 9902 1 109.50000 418.400000
9900 15309 9901 1 109.50000 418.400000
9900 15309 9902 1 109.50000 418.400000
9901 15309 9902 1 109.50000 418.400000
6400 15310 9485 1 109.50000 418.400000
6400 15310 9906 1 109.50000 418.400000
6400 15310 9907 1 109.50000 418.400000
9485 15310 9906 1 109.50000 418.400000
9485 15310 9907 1 109.50000 418.400000
9906 15310 9907 1 109.50000 418.400000
6501 15311 7524 1 109.50000 418.400000
6501 15311 9908 1 109.50000 418.400000
6501 15311 9909 1 109.50000 418.400000
7524 15311 9908 1 109.50000 418.400000
7524 15311 9909 1 109.50000 418.400000
9908 15311 9909 1 109.50000 418.400000
8372 15312 9750 1 109.50000 418.400000
8372 15312 9910 1 109.50000 418.400000
8372 15312 11377 1 109.50000 418.400000
9750 15312 9910 1 109.50000 418.400000
9750 15312 11377 1 109.50000 418.400000
9910 15312 11377 1 109.50000 418.400000
2499 15313 4539 1 109.50000 418.400000
2499 15313 8362 1 109.50000 418.400000
2499 15313 11281 1 109.50000 418.400000
4539 15313 8362 1 109.50000 418.400000
4539 15313 11281 1 109.50000 418.400000
8362 15313 11281 1 109.50000 418.400000
2131 15314 2740 1 109.50000 418.400000
2131 15314 5771 1 109.50000 418.400000
2131 15314 9911 1 109.50000 418.400000
2740 15314 5771 1 109.50000 418.400000
2740 15314 9911 1 109.50000 418.400000
5771 15314 9911 1 109.50000 418.400000
4405 15315 6207 1 109.50000 418.400000
4405 15315 8102 1 109.50000 418.400000
4405 15315 9912 1 109.50000 418.400000
6207 15315 8102 1 109.50000 418.400000
6207 15315 9912 1 109.50000 418.400000
8102 15315 9912 1 109.50000 418.400000
283 15316 9119 1 109.50000 418.400000
283 15316 9307 1 109.50000 418.400000
283 15316 9913 1 109.50000 418.400000
9119 15316 9307 1 109.50000 418.400000
9119 15316 9913 1 109.50000 418.400000
9307 15316 9913 1 109.50000 418.400000
1159 15317 7939 1 109.50000 418.400000
1159 15317 8543 1 109.50000 418.400000
1159 15317 9419 1 109.50000 418.400000
7939 15317 8543 1 109.50000 418.400000
7939 15317 9419 1 109.50000 418.400000
8543 15317 9419 1 109.50000 418.400000
244 15318 7626 1 109.50000 418.400000
244 15318 8793 1 109.50000 418.400000
244 15318 9192 1 109.50000 418.400000
7626 15318 8793 1 109.50000 418.400000
7626 15318 9192 1 109.50000 418.400000
8793 15318 9192 1 109.50000 418.400000
3882 15319 4474 1 109.50000 418.400000
3882 15319 9914 1 109.50000 418.400000
3882 15319 9915 1 109.50000 418.400000
4474 15319 9914 1 109.50000 418.400000
4474 15319 9915 1 109.50000 418.400000
9914 15319 9915 1 109.50000 418.400000
3508 15320 7768 1 109.50000 418.400000
3508 15320 8733 1 109.50000 418.400000
3508 15320 9916 1 109.50000 418.400000
7768 15320 8733 1 109.50000 418.400000
7768 15320 9916 1 109.50000 418.400000
8733 15320 9916 1 109.50000 418.400000
3906 15321 6845 1 109.50000 418.400000
3906 15321 9917 1 109.50000 418.400000
3906 15321 9918 1 109.50000 418.400000
6845 15321 9917 1 109.50000 418.400000
6845 15321 9918 1 109.50000 418.400000
9917 15321 9918 1 109.50000 418.400000
6841 15322 7138 1 109.50000 418.400000
6841 15322 9919 1 109.50000 418.400000
6841 15322 9920 1 109.50000 418.400000
7138 15322 9919 1 109.50000 418.400000
7138 15322 9920 1 109.50000 418.400000
9919 15322 9920 1 109.50000 418.400000
6195 15323 7176 1 109.50000 418.400000
6195 15323 8302 1 109.50000 418.400000
6195 15323 9921 1 109.50000 418.400000
7176 15323 8302 1 109.50000 418.400000
7176 15323 9921 1 109.50000 418.400000
8302 15323 9921 1 109.50000 418.400000
3498 15324 4671 1 109.50000 418.400000
3498 15324 5430 1 109.50000 418.400000
3498 15324 9922 1 109.50000 418.400000
4671 15324 5430 1 109.50000 418.400000
4671 15324 9922 1 109.50000 418.400000
5430 15324 9922 1 109.50000 418.400000
7077 15325 8896 1 109.50000 418.400000
7077 15325 9924 1 109.50000 418.400000
7077 15325 9925 1 109.50000 418.400000
8896 15325 9924 1 109.50000 418.400000
8896 15325 9925 1 109.50000 418.400000
9924 15325 9925 1 109.50000 418.400000
499 15326 9359 1 109.50000 418.400000
499 15326 9360 1 109.50000 418.400000
499 15326 9926 1 109.50000 418.400000
9359 15326 9360 1 109.50000 418.400000
9359 15326 9926 1 109.50000 418.400000
9360 15326 9926 1 109.50000 418.400000
8828 15327 9858 1 109.50000 418.400000
8828 15327 9927 1 109.50000 418.400000
8828 15327 11178 1 109.50000 418.400000
9858 15327 9927 1 109.50000 418.400000
9858 15327 11178 1 109.50000 418.400000
9927 15327 11178 1 109.50000 418.400000
1934 15328 3437 1 109.50000 418.400000
1934 15328 9809 1 109.50000 418.400000
1934 15328 9928 1 109.50000 418.400000
3437 15328 9809 1 109.50000 418.400000
3437 15328 9928 1 109.50000 418.400000
9809 15328 9928 1 109.50000 418.400000
2416 15329 8035 1 109.50000 418.400000
2416 15329 9759 1 109.50000 418.400000
2416 15329 9760 1 109.50000 418.400000
8035 15329 9759 1 109.50000 418.400000
8035 15329 9760 1 109.50000 418.400000
9759 15329 9760 1 109.50000 418.400000
5580 15330 5581 1 109.50000 418.400000
5580 15330 11177 1 109.50000 418.400000
5580 15330 11190 1 109.50000 418.400000
5581 15330 11177 1 109.50000 418.400000
5581 15330 11190 1 109.50000 418.400000
11177 15330 11190 1 109.50000 418.400000
463 15331 6477 1 109.50000 418.400000
463 15331 9142 1 109.50000 418.400000
463 15331 9929 1 109.50000 418.400000
6477 15331 9142 1 109.50000 418.400000
6477 15331 9929 1 109.50000 418.400000
9142 15331 9929 1 109.50000 418.400000
6519 15332 7624 1 109.50000 418.400000
6519 15332 9930 1 109.50000 418.400000
6519 15332 11442 1 109.50000 418.400000
7624 15332 9930 1 109.50000 418.400000
7624 15332 11442 1 109.50000 418.400000
9930 15332 11442 1 109.50000 418.400000
7530 15333 7795 1 109.50000 418.400000
7530 15333 9931 1 109.50000 418.400000
7530 15333 9932 1 109.50000 418.400000
7795 15333 9931 1 109.50000 418.400000
7795 15333 9932 1 109.50000 418.400000
9931 15333 9932 1 109.50000 418.400000
3285 15334 5981 1 109.50000 418.400000
3285 15334 9933 1 109.50000 418.400000
3285 15334 11195 1 109.50000 418.400000
5981 15334 9933 1 109.50000 418.400000
5981 15334 11195 1 109.50000 418.400000
9933 15334 11195 1 109.50000 418.400000
2902 15335 9239 1 109.50000 418.400000
2902 15335 9902 1 109.50000 418.400000
2902 15335 9934 1 109.50000 418.400000
9239 15335 9902 1 109.50000 418.400000
9239 15335 9934 1 109.50000 418.400000
9902 15335 9934 1 109.50000 418.400000
500 15336 3484 1 109.50000 418.400000
500 15336 9082 1 109.50000 418.400000
500 15336 9935 1 109.50000 418.400000
3484 15336 9082 1 109.50000 418.400000
3484 15336 9935 1 109.50000 418.400000
9082 15336 9935 1 109.50000 418.400000
3704 15337 5302 1 109.50000 418.400000
3704 15337 9936 1 109.50000 418.400000
3704 15337 9937 1 109.50000 418.400000
5302 15337 9936 1 109.50000 418.400000
5302 15337 9937 1 109.50000 418.400000
9936 15337 9937 1 109.50000 418.400000
4983 15338 8447 1 109.50000 418.400000
4983 15338 8487 1 109.50000 418.400000
4983 15338 9938 1 109.50000 418.400000
8447 15338 8487 1 109.50000 418.400000
8447 15338 9938 1 109.50000 418.400000
8487 15338 9938 1 109.50000 418.400000
2814 15339 8696 1 109.50000 418.400000
2814 15339 8897 1 109.50000 418.400000
2814 15339 9939 1 109.50000 418.400000
8696 15339 8897 1 109.50000 418.400000
8696 15339 9939 1 109.50000 418.400000
8897 15339 9939 1 109.50000 418.400000
3613 15340 9707 1 109.50000 418.400000
3613 15340 9941 1 109.50000 418.400000
3613 15340 9942 1 109.50000 418.400000
9707 15340 9941 1 109.50000 418.400000
9707 15340 9942 1 109.50000 418.400000
9941 15340 9942 1 109.50000 418.400000
2037 15341 2370 1 109.50000 418.400000
2037 15341 2393 1 109.50000 418.400000
2037 15341 7413 1 109.50000 418.400000
2370 15341 2393 1 109.50000 418.400000
2370 15341 7413 1 109.50000 418.400000
2393 15341 7413 1 109.50000 418.400000
1690 15342 4230 1 109.50000 418.400000
1690 15342 5194 1 109.50000 418.400000
1690 15342 9943 1 109.50000 418.400000
4230 15342 5194 1 109.50000 418.400000
4230 15342 9943 1 109.50000 418.400000
5194 15342 9943 1 109.50000 418.400000
3407 15343 7315 1 109.50000 418.400000
3407 15343 8080 1 109.50000 418.400000
3407 15343 9944 1 109.50000 418.400000
7315 15343 8080 1 109.50000 418.400000
7315 15343 9944 1 109.50000 418.400000
8080 15343 9944 1 109.50000 418.400000
5453 15344 5693 1 109.50000 418.400000
5453 15344 9945 1 109.50000 418.400000
5453 15344 9946 1 109.50000 418.400000
5693 15344 9945 1 109.50000 418.400000
5693 15344 9946 1 109.50000 418.400000
9945 15344 9946 1 109.50000 418.400000
6968 15345 6969 1 109.50000 418.400000
6968 15345 9947 1 109.50000 418.400000
6968 15345 9948 1 109.50000 418.400000
6969 15345 9947 1 109.50000 418.400000
6969 15345 9948 1 109.50000 418.400000
9947 15345 9948 1 109.50000 418.400000
2253 15346 9949 1 109.50000 418.400000
2253 15346 9950 1 109.50000 418.400000
2253 15346 11425 1 109.50000 418.400000
9949 15346 9950 1 109.50000 418.400000
9949 15346 11425 1 109.50000 418.400000
9950 15346 11425 1 109.50000 418.400000
9951 15347 9952 1 109.50000 418.400000
9951 15347 9953 1 109.50000 418.400000
9951 15347 9954 1 109.50000 418.400000
9952 15347 9953 1 109.50000 418.400000
9952 15347 9954 1 109.50000 418.400000
9953 15347 9954 1 109.50000 418.400000
897 15348 1855 1 109.50000 418.400000
897 15348 4030 1 109.50000 418.400000
897 15348 9051 1 109.50000 418.400000
1855 15348 4030 1 109.50000 418.400000
1855 15348 9051 1 109.50000 418.400000
4030 15348 9051 1 109.50000 418.400000
1006 15349 1493 1 109.50000 418.400000
1006 15349 4842 1 109.50000 418.400000
1006 15349 6137 1 109.50000 418.400000
1493 15349 4842 1 109.50000 418.400000
1493 15349 6137 1 109.50000 418.400000
4842 15349 6137 1 109.50000 418.400000
3760 15350 8515 1 109.50000 418.400000
3760 15350 9842 1 109.50000 418.400000
3760 15350 9956 1 109.50000 418.400000
8515 15350 9842 1 109.50000 418.400000
8515 15350 9956 1 109.50000 418.400000
9842 15350 9956 1 109.50000 418.400000
4163 15351 8342 1 109.50000 418.400000
4163 15351 9147 1 109.50000 418.400000
4163 15351 9957 1 109.50000 418.400000
8342 15351 9147 1 109.50000 418.400000
8342 15351 9957 1 109.50000 418.400000
9147 15351 9957 1 109.50000 418.400000
477 15352 1105 1 109.50000 418.400000
477 15352 9320 1 109.50000 418.400000
477 15352 9958 1 109.50000 418.400000
1105 15352 9320 1 109.50000 418.400000
1105 15352 9958 1 109.50000 418.400000
9320 15352 9958 1 109.50000 418.400000
4799 15353 5653 1 109.50000 418.400000
4799 15353 9959 1 109.50000 418.400000
4799 15353 9960 1 109.50000 418.400000
5653 15353 9959 1 109.50000 418.400000
5653 15353 9960 1 109.50000 418.400000
9959 15353 9960 1 109.50000 418.400000
748 15354 7086 1 109.50000 418.400000
748 15354 8798 1 109.50000 418.400000
748 15354 9961 1 109.50000 418.400000
7086 15354 8798 1 109.50000 418.400000
7086 15354 9961 1 109.50000 418.400000
8798 15354 9961 1 109.50000 418.400000
4148 15355 4840 1 109.50000 418.400000
4148 15355 9601 1 109.50000 418.400000
4148 15355 9964 1 109.50000 418.400000
4840 15355 9601 1 109.50000 418.400000
4840 15355 9964 1 109.50000 418.400000
9601 15355 9964 1 109.50000 418.400000
7834 15356 9965 1 109.50000 418.400000
7834 15356 9966 1 109.50000 418.400000
7834 15356 11571 1 109.50000 418.400000
9965 15356 9966 1 109.50000 418.400000
9965 15356 11571 1 109.50000 418.400000
9966 15356 11571 1 109.50000 418.400000
3745 15357 6210 1 109.50000 418.400000
3745 15357 9671 1 109.50000 418.400000
3745 15357 9967 1 109.50000 418.400000
6210 15357 9671 1 109.50000 418.400000
6210 15357 9967 1 109.50000 418.400000
9671 15357 9967 1 109.50000 418.400000
2658 15358 7995 1 109.50000 418.400000
2658 15358 9968 1 109.50000 418.400000
2658 15358 9969 1 109.50000 418.400000
7995 15358 9968 1 109.50000 418.400000
7995 15358 9969 1 109.50000 418.400000
9968 15358 9969 1 109.50000 418.400000
6483 15359 7553 1 109.50000 418.400000
6483 15359 8485 1 109.50000 418.400000
6483 15359 9970 1 109.50000 418.400000
7553 15359 8485 1 109.50000 418.400000
7553 15359 9970 1 109.50000 418.400000
8485 15359 9970 1 109.50000 418.400000
4303 15360 8384 1 109.50000 418.400000
4303 15360 8523 1 109.50000 418.400000
4303 15360 8866 1 109.50000 418.400000
8384 15360 8523 1 109.50000 418.400000
8384 15360 8866 1 109.50000 418.400000
8523 15360 8866 1 109.50000 418.400000
8153 15361 8876 1 109.50000 418.400000
8153 15361 9971 1 109.50000 418.400000
8153 15361 9972 1 109.50000 418.400000
8876 15361 9971 1 109.50000 418.400000
8876 15361 9972 1 109.50000 418.400000
9971 15361 9972 1 109.50000 418.400000
3040 15362 4377 1 109.50000 418.400000
3040 15362 9321 1 109.50000 418.400000
3040 15362 9973 1 109.50000 418.400000
4377 15362 9321 1 109.50000 418.400000
4377 15362 9973 1 109.50000 418.400000
9321 15362 9973 1 109.50000 418.400000
4618 15363 7921 1 109.50000 418.400000
4618 15363 9974 1 109.50000 418.400000
4618 15363 9975 1 109.50000 418.400000
7921 15363 9974 1 109.50000 418.400000
7921 15363 9975 1 109.50000 418.400000
9974 15363 9975 1 109.50000 418.400000
981 15364 982 1 109.50000 418.400000
981 15364 5667 1 109.50000 418.400000
981 15364 9976 1 109.50000 418.400000
982 15364 5667 1 109.50000 418.400000
982 15364 9976 1 109.50000 418.400000
5667 15364 9976 1 109.50000 418.400000
1286 15365 1287 1 109.50000 418.400000
1286 15365 6403 1 109.50000 418.400000
1286 15365 9977 1 109.50000 418.400000
1287 15365 6403 1 109.50000 418.400000
1287 15365 9977 1 109.50000 418.400000
6403 15365 9977 1 109.50000 418.400000
619 15366 4871 1 109.50000 418.400000
619 15366 8980 1 109.50000 418.400000
619 15366 11274 1 109.50000 418.400000
4871 15366 8980 1 109.50000 418.400000
4871 15366 11274 1 109.50000 418.400000
8980 15366 11274 1 109.50000 418.400000
4890 15367 9075 1 109.50000 418.400000
4890 15367 9979 1 109.50000 418.400000
4890 15367 9980 1 109.50000 418.400000
9075 15367 9979 1 109.50000 418.400000
9075 15367 9980 1 109.50000 418.400000
9979 15367 9980 1 109.50000 418.400000
1 15368 2440 1 109.50000 418.400000
1 15368 4345 1 109.50000 418.400000
1 15368 6630 1 109.50000 418.400000
2440 15368 4345 1 109.50000 418.400000
2440 15368 6630 1 109.50000 418.400000
4345 15368 6630 1 109.50000 418.400000
3178 15369 7101 1 109.50000 418.400000
3178 15369 8622 1 109.50000 418.400000
3178 15369 9982 1 109.50000 418.400000
7101 15369 8622 1 109.50000 418.400000
7101 15369 9982 1 109.50000 418.400000
8622 15369 9982 1 109.50000 418.400000
1173 15370 7395 1 109.50000 418.400000
1173 15370 9721 1 109.50000 418.400000
1173 15370 9983 1 109.50000 418.400000
7395 15370 9721 1 109.50000 418.400000
7395 15370 9983 1 109.50000 418.400000
9721 15370 9983 1 109.50000 418.400000
2287 15371 3514 1 109.50000 418.400000
2287 15371 9984 1 109.50000 418.400000
2287 15371 9985 1 109.50000 418.400000
3514 15371 9984 1 109.50000 418.400000
3514 15371 9985 1 109.50000 418.400000
9984 15371 9985 1 109.50000 418.400000
2274 15372 5032 1 109.50000 418.400000
2274 15372 9784 1 109.50000 418.400000
2274 15372 9986 1 109.50000 418.400000
5032 15372 9784 1 109.50000 418.400000
5032 15372 9986 1 109.50000 418.400000
9784 15372 9986 1 109.50000 418.400000
2502 15373 3473 1 109.50000 418.400000
2502 15373 6102 1 109.50000 418.400000
2502 15373 9447 1 109.50000 418.400000
3473 15373 6102 1 109.50000 418.400000
3473 15373 9447 1 109.50000 418.400000
6102 15373 9447 1 109.50000 418.400000
4688 15374 5979 1 109.50000 418.400000
4688 15374 9965 1 109.50000 418.400000
4688 15374 11298 1 109.50000 418.400000
5979 15374 9965 1 109.50000 418.400000
5979 15374 11298 1 109.50000 418.400000
9965 15374 11298 1 109.50000 418.400000
1787 15375 6409 1 109.50000 418.400000
1787 15375 9357 1 109.50000 418.400000
1787 15375 9987 1 109.50000 418.400000
6409 15375 9357 1 109.50000 418.400000
6409 15375 9987 1 109.50000 418.400000
9357 15375 9987 1 109.50000 418.400000
1976 15376 6840 1 109.50000 418.400000
1976 15376 9988 1 109.50000 418.400000
1976 15376 9989 1 109.50000 418.400000
6840 15376 9988 1 109.50000 418.400000
6840 15376 9989 1 109.50000 418.400000
9988 15376 9989 1 109.50000 418.400000
7020 15377 9542 1 109.50000 418.400000
7020 15377 11204 1 109.50000 418.400000
7020 15377 11433 1 109.50000 418.400000
9542 15377 11204 1 109.50000 418.400000
9542 15377 11433 1 109.50000 418.400000
11204 15377 11433 1 109.50000 418.400000
7981 15378 9990 1 109.50000 418.400000
7981 15378 11151 1 109.50000 418.400000
7981 15378 11424 1 109.50000 418.400000
9990 15378 11151 1 109.50000 418.400000
9990 15378 11424 1 109.50000 418.400000
11151 15378 11424 1 109.50000 418.400000
8178 15379 8246 1 109.50000 418.400000
8178 15379 9991 1 109.50000 418.400000
8178 15379 9992 1 109.50000 418.400000
8246 15379 9991 1 109.50000 418.400000
8246 15379 9992 1 109.50000 418.400000
9991 15379 9992 1 109.50000 418.400000
9405 15380 9993 1 109.50000 418.400000
9405 15380 9995 1 109.50000 418.400000
9405 15380 11373 1 109.50000 418.400000
9993 15380 9995 1 109.50000 418.400000
9993 15380 11373 1 109.50000 418.400000
9995 15380 11373 1 109.50000 418.400000
1796 15381 3472 1 109.50000 418.400000
1796 15381 9445 1 109.50000 418.400000
1796 15381 9996 1 109.50000 418.400000
3472 15381 9445 1 109.50000 418.400000
3472 15381 9996 1 109.50000 418.400000
9445 15381 9996 1 109.50000 418.400000
1912 15382 2566 1 109.50000 418.400000
1912 15382 5779 1 109.50000 418.400000
1912 15382 8837 1 109.50000 418.400000
2566 15382 5779 1 109.50000 418.400000
2566 15382 8837 1 109.50000 418.400000
5779 15382 8837 1 109.50000 418.400000
1535 15383 5451 1 109.50000 418.400000
1535 15383 8243 1 109.50000 418.400000
1535 15383 9816 1 109.50000 418.400000
5451 15383 8243 1 109.50000 418.400000
5451 15383 9816 1 109.50000 418.400000
8243 15383 9816 1 109.50000 418.400000
6179 15384 8637 1 109.50000 418.400000
6179 15384 9997 1 109.50000 418.400000
6179 15384 9998 1 109.50000 418.400000
8637 15384 9997 1 109.50000 418.400000
8637 15384 9998 1 109.50000 418.400000
9997 15384 9998 1 109.50000 418.400000
9468 15385 9999 1 109.50000 418.400000
9468 15385 10000 1 109.50000 418.400000
9468 15385 10001 1 109.50000 418.400000
9999 15385 10000 1 109.50000 418.400000
9999 15385 10001 1 109.50000 418.400000
10000 15385 10001 1 109.50000 418.400000
2325 15386 8024 1 109.50000 418.400000
2325 15386 8489 1 109.50000 418.400000
2325 15386 9481 1 109.50000 418.400000
8024 15386 8489 1 109.50000 418.400000
8024 15386 9481 1 109.50000 418.400000
8489 15386 9481 1 109.50000 418.400000
8190 15387 10002 1 109.50000 418.400000
8190 15387 10003 1 109.50000 418.400000
8190 15387 10004 1 109.50000 418.400000
10002 15387 10003 1 109.50000 418.400000
10002 15387 10004 1 109.50000 418.400000
10003 15387 10004 1 109.50000 418.400000
4615 15388 5718 1 109.50000 418.400000
4615 15388 10005 1 109.50000 418.400000
4615 15388 10006 1 109.50000 418.400000
5718 15388 10005 1 109.50000 418.400000
5718 15388 10006 1 109.50000 418.400000
10005 15388 10006 1 109.50000 418.400000
6819 15389 8169 1 109.50000 418.400000
6819 15389 9694 1 109.50000 418.400000
6819 15389 10007 1 109.50000 418.400000
8169 15389 9694 1 109.50000 418.400000
8169 15389 10007 1 109.50000 418.400000
9694 15389 10007 1 109.50000 418.400000
4287 15390 5900 1 109.50000 418.400000
4287 15390 6052 1 109.50000 418.400000
4287 15390 10008 1 109.50000 418.400000
5900 15390 6052 1 109.50000 418.400000
5900 15390 10008 1 109.50000 418.400000
6052 15390 10008 1 109.50000 418.400000
8852 15391 9856 1 109.50000 418.400000
8852 15391 9935 1 109.50000 418.400000
8852 15391 10009 1 109.50000 418.400000
9856 15391 9935 1 109.50000 418.400000
9856 15391 10009 1 109.50000 418.400000
9935 15391 10009 1 109.50000 418.400000
8146 15392 8918 1 109.50000 418.400000
8146 15392 10010 1 109.50000 418.400000
8146 15392 10011 1 109.50000 418.400000
8918 15392 10010 1 109.50000 418.400000
8918 15392 10011 1 109.50000 418.400000
10010 15392 10011 1 109.50000 418.400000
6602 15393 6878 1 109.50000 418.400000
6602 15393 8180 1 109.50000 418.400000
6602 15393 9805 1 109.50000 418.400000
6878 15393 8180 1 109.50000 418.400000
6878 15393 9805 1 109.50000 418.400000
8180 15393 9805 1 109.50000 418.400000
1330 15394 7807 1 109.50000 418.400000
1330 15394 10012 1 109.50000 418.400000
1330 15394 11338 1 109.50000 418.400000
7807 15394 10012 1 109.50000 418.400000
7807 15394 11338 1 109.50000 418.400000
10012 15394 11338 1 109.50000 418.400000
3123 15395 5452 1 109.50000 418.400000
3123 15395 10013 1 109.50000 418.400000
3123 15395 10014 1 109.50000 418.400000
5452 15395 10013 1 109.50000 418.400000
5452 15395 10014 1 109.50000 418.400000
10013 15395 10014 1 109.50000 418.400000
3296 15396 6626 1 109.50000 418.400000
3296 15396 7971 1 109.50000 418.400000
3296 15396 10015 1 109.50000 418.400000
6626 15396 7971 1 109.50000 418.400000
6626 15396 10015 1 109.50000 418.400000
7971 15396 10015 1 109.50000 418.400000
7167 15397 7738 1 109.50000 418.400000
7167 15397 10016 1 109.50000 418.400000
7167 15397 10017 1 109.50000 418.400000
7738 15397 10016 1 109.50000 418.400000
7738 15397 10017 1 109.50000 418.400000
10016 15397 10017 1 109.50000 418.400000
5741 15398 10018 1 109.50000 418.400000
5741 15398 10019 1 109.50000 418.400000
5741 15398 10020 1 109.50000 418.400000
10018 15398 10019 1 109.50000 418.400000
10018 15398 10020 1 109.50000 418.400000
10019 15398 10020 1 109.50000 418.400000
2019 15399 6569 1 109.50000 418.400000
2019 15399 10021 1 109.50000 418.400000
2019 15399 11541 1 109.50000 418.400000
6569 15399 10021 1 109.50000 418.400000
6569 15399 11541 1 109.50000 418.400000
10021 15399 11541 1 109.50000 418.400000
6401 15400 6585 1 109.50000 418.400000
6401 15400 10022 1 109.50000 418.400000
6401 15400 10023 1 109.50000 418.400000
6585 15400 10022 1 109.50000 418.400000
6585 15400 10023 1 109.50000 418.400000
10022 15400 10023 1 109.50000 418.400000
615 15401 6279 1 109.50000 418.400000
615 15401 8788 1 109.50000 418.400000
615 15401 10025 1 109.50000 418.400000
6279 15401 8788 1 109.50000 418.400000
6279 15401 10025 1 109.50000 418.400000
8788 15401 10025 1 109.50000 418.400000
1893 15402 2039 1 109.50000 418.400000
1893 15402 3214 1 109.50000 418.400000
1893 15402 10026 1 109.50000 418.400000
2039 15402 3214 1 109.50000 418.400000
2039 15402 10026 1 109.50000 418.400000
3214 15402 10026 1 109.50000 418.400000
5808 15403 7578 1 109.50000 418.400000
5808 15403 10027 1 109.50000 418.400000
5808 15403 10028 1 109.50000 418.400000
7578 15403 10027 1 109.50000 418.400000
7578 15403 10028 1 109.50000 418.400000
10027 15403 10028 1 109.50000 418.400000
2386 15404 4401 1 109.50000 418.400000
2386 15404 5228 1 109.50000 418.400000
2386 15404 5996 1 109.50000 418.400000
4401 15404 5228 1 109.50000 418.400000
4401 15404 5996 1 109.50000 418.400000
5228 15404 5996 1 109.50000 418.400000
8143 15405 8873 1 109.50000 418.400000
8143 15405 9415 1 109.50000 418.400000
8143 15405 10029 1 109.50000 418.400000
8873 15405 9415 1 109.50000 418.400000
8873 15405 10029 1 109.50000 418.400000
9415 15405 10029 1 109.50000 418.400000
2201 15406 7109 1 109.50000 418.400000
2201 15406 9822 1 109.50000 418.400000
2201 15406 9963 1 109.50000 418.400000
7109 15406 9822 1 109.50000 418.400000
7109 15406 9963 1 109.50000 418.400000
9822 15406 9963 1 109.50000 418.400000
6746 15407 7114 1 109.50000 418.400000
6746 15407 10030 1 109.50000 418.400000
6746 15407 11227 1 109.50000 418.400000
7114 15407 10030 1 109.50000 418.400000
7114 15407 11227 1 109.50000 418.400000
10030 15407 11227 1 109.50000 418.400000
6948 15408 6949 1 109.50000 418.400000
6948 15408 6950 1 109.50000 418.400000
6948 15408 10031 1 109.50000 418.400000
6949 15408 6950 1 109.50000 418.400000
6949 15408 10031 1 109.50000 418.400000
6950 15408 10031 1 109.50000 418.400000
69 15409 2698 1 109.50000 418.400000
69 15409 2913 1 109.50000 418.400000
69 15409 10033 1 109.50000 418.400000
2698 15409 2913 1 109.50000 418.400000
2698 15409 10033 1 109.50000 418.400000
2913 15409 10033 1 109.50000 418.400000
3204 15410 3278 1 109.50000 418.400000
3204 15410 4174 1 109.50000 418.400000
3204 15410 5240 1 109.50000 418.400000
3278 15410 4174 1 109.50000 418.400000
3278 15410 5240 1 109.50000 418.400000
4174 15410 5240 1 109.50000 418.400000
6415 15411 7232 1 109.50000 418.400000
6415 15411 8657 1 109.50000 418.400000
6415 15411 11240 1 109.50000 418.400000
7232 15411 8657 1 109.50000 418.400000
7232 15411 11240 1 109.50000 418.400000
8657 15411 11240 1 109.50000 418.400000
2998 15412 4855 1 109.50000 418.400000
2998 15412 7012 1 109.50000 418.400000
2998 15412 8909 1 109.50000 418.400000
4855 15412 7012 1 109.50000 418.400000
4855 15412 8909 1 109.50000 418.400000
7012 15412 8909 1 109.50000 418.400000
10034 15413 10035 1 109.50000 418.400000
10034 15413 10036 1 109.50000 418.400000
10034 15413 11390 1 109.50000 418.400000
10035 15413 10036 1 109.50000 418.400000
10035 15413 11390 1 109.50000 418.400000
10036 15413 11390 1 109.50000 418.400000
3975 15414 5425 1 109.50000 418.400000
3975 15414 10037 1 109.50000 418.400000
3975 15414 10038 1 109.50000 418.400000
5425 15414 10037 1 109.50000 418.400000
5425 15414 10038 1 109.50000 418.400000
10037 15414 10038 1 109.50000 418.400000
2720 15415 4867 1 109.50000 418.400000
2720 15415 5347 1 109.50000 418.400000
2720 15415 10039 1 109.50000 418.400000
4867 15415 5347 1 109.50000 418.400000
4867 15415 10039 1 109.50000 418.400000
5347 15415 10039 1 109.50000 418.400000
4284 15416 4285 1 109.50000 418.400000
4284 15416 4946 1 109.50000 418.400000
4284 15416 10040 1 109.50000 418.400000
4285 15416 4946 1 109.50000 418.400000
4285 15416 10040 1 109.50000 418.400000
4946 15416 10040 1 109.50000 418.400000
1283 15417 8195 1 109.50000 418.400000
1283 15417 9115 1 109.50000 418.400000
1283 15417 10041 1 109.50000 418.400000
8195 15417 9115 1 109.50000 418.400000
8195 15417 10041 1 109.50000 418.400000
9115 15417 10041 1 109.50000 418.400000
1865 15418 6926 1 109.50000 418.400000
1865 15418 10042 1 109.50000 418.400000
1865 15418 10043 1 109.50000 418.400000
6926 15418 10042 1 109.50000 418.400000
6926 15418 10043 1 109.50000 418.400000
10042 15418 10043 1 109.50000 418.400000
4301 15419 6319 1 109.50000 418.400000
4301 15419 6690 1 109.50000 418.400000
4301 15419 8004 1 109.50000 418.400000
6319 15419 6690 1 109.50000 418.400000
6319 15419 8004 1 109.50000 418.400000
6690 15419 8004 1 109.50000 418.400000
3019 15420 7810 1 109.50000 418.400000
3019 15420 10044 1 109.50000 418.400000
3019 15420 10045 1 109.50000 418.400000
7810 15420 10044 1 109.50000 418.400000
7810 15420 10045 1 109.50000 418.400000
10044 15420 10045 1 109.50000 418.400000
3939 15421 5894 1 109.50000 418.400000
3939 15421 9430 1 109.50000 418.400000
3939 15421 10048 1 109.50000 418.400000
5894 15421 9430 1 109.50000 418.400000
5894 15421 10048 1 109.50000 418.400000
9430 15421 10048 1 109.50000 418.400000
3385 15422 4053 1 109.50000 418.400000
3385 15422 10049 1 109.50000 418.400000
3385 15422 10050 1 109.50000 418.400000
4053 15422 10049 1 109.50000 418.400000
4053 15422 10050 1 109.50000 418.400000
10049 15422 10050 1 109.50000 418.400000
2337 15423 4276 1 109.50000 418.400000
2337 15423 6112 1 109.50000 418.400000
2337 15423 6113 1 109.50000 418.400000
4276 15423 6112 1 109.50000 418.400000
4276 15423 6113 1 109.50000 418.400000
6112 15423 6113 1 109.50000 418.400000
5849 15424 8494 1 109.50000 418.400000
5849 15424 10053 1 109.50000 418.400000
5849 15424 11249 1 109.50000 418.400000
8494 15424 10053 1 109.50000 418.400000
8494 15424 11249 1 109.50000 418.400000
10053 15424 11249 1 109.50000 418.400000
4263 15425 6565 1 109.50000 418.400000
4263 15425 6672 1 109.50000 418.400000
4263 15425 10054 1 109.50000 418.400000
6565 15425 6672 1 109.50000 418.400000
6565 15425 10054 1 109.50000 418.400000
6672 15425 10054 1 109.50000 418.400000
3170 15426 6055 1 109.50000 418.400000
3170 15426 6881 1 109.50000 418.400000
3170 15426 8802 1 109.50000 418.400000
6055 15426 6881 1 109.50000 418.400000
6055 15426 8802 1 109.50000 418.400000
6881 15426 8802 1 109.50000 418.400000
1504 15427 1638 1 109.50000 418.400000
1504 15427 8437 1 109.50000 418.400000
1504 15427 10056 1 109.50000 418.400000
1638 15427 8437 1 109.50000 418.400000
1638 15427 10056 1 109.50000 418.400000
8437 15427 10056 1 109.50000 418.400000
4020 15428 4409 1 109.50000 418.400000
4020 15428 10057 1 109.50000 418.400000
4020 15428 10058 1 109.50000 418.400000
4409 15428 10057 1 109.50000 418.400000
4409 15428 10058 1 109.50000 418.400000
10057 15428 10058 1 109.50000 418.400000
1010 15429 1011 1 109.50000 418.400000
1010 15429 1676 1 109.50000 418.400000
1010 15429 2796 1 109.50000 418.400000
1011 15429 1676 1 109.50000 418.400000
1011 15429 2796 1 109.50000 418.400000
1676 15429 2796 1 109.50000 418.400000
8782 15430 10059 1 109.50000 418.400000
8782 15430 10060 1 109.50000 418.400000
8782 15430 10061 1 109.50000 418.400000
10059 15430 10060 1 109.50000 418.400000
10059 15430 10061 1 109.50000 418.400000
10060 15430 10061 1 109.50000 418.400000
2421 15431 2591 1 109.50000 418.400000
2421 15431 11145 1 109.50000 418.400000
2421 15431 11216 1 109.50000 418.400000
2591 15431 11145 1 109.50000 418.400000
2591 15431 11216 1 109.50000 418.400000
11145 15431 11216 1 109.50000 418.400000
5179 15432 7237 1 109.50000 418.400000
5179 15432 9717 1 109.50000 418.400000
5179 15432 10672 1 109.50000 418.400000
7237 15432 9717 1 109.50000 418.400000
7237 15432 10672 1 109.50000 418.400000
9717 15432 10672 1 109.50000 418.400000
1536 15433 5811 1 109.50000 418.400000
1536 15433 8144 1 109.50000 418.400000
1536 15433 10064 1 109.50000 418.400000
5811 15433 8144 1 109.50000 418.400000
5811 15433 10064 1 109.50000 418.400000
8144 15433 10064 1 109.50000 418.400000
2301 15434 4835 1 109.50000 418.400000
2301 15434 9152 1 109.50000 418.400000
2301 15434 9942 1 109.50000 418.400000
4835 15434 9152 1 109.50000 418.400000
4835 15434 9942 1 109.50000 418.400000
9152 15434 9942 1 109.50000 418.400000
1508 15435 7149 1 109.50000 418.400000
1508 15435 10065 1 109.50000 418.400000
1508 15435 10066 1 109.50000 418.400000
7149 15435 10065 1 109.50000 418.400000
7149 15435 10066 1 109.50000 418.400000
10065 15435 10066 1 109.50000 418.400000
474 15436 6309 1 109.50000 418.400000
474 15436 7446 1 109.50000 418.400000
474 15436 10067 1 109.50000 418.400000
6309 15436 7446 1 109.50000 418.400000
6309 15436 10067 1 109.50000 418.400000
7446 15436 10067 1 109.50000 418.400000
3598 15437 8396 1 109.50000 418.400000
3598 15437 9398 1 109.50000 418.400000
3598 15437 9836 1 109.50000 418.400000
8396 15437 9398 1 109.50000 418.400000
8396 15437 9836 1 109.50000 418.400000
9398 15437 9836 1 109.50000 418.400000
1595 15438 2249 1 109.50000 418.400000
1595 15438 2471 1 109.50000 418.400000
1595 15438 8813 1 109.50000 418.400000
2249 15438 2471 1 109.50000 418.400000
2249 15438 8813 1 109.50000 418.400000
2471 15438 8813 1 109.50000 418.400000
2073 15439 3853 1 109.50000 418.400000
2073 15439 4594 1 109.50000 418.400000
2073 15439 6870 1 109.50000 418.400000
3853 15439 4594 1 109.50000 418.400000
3853 15439 6870 1 109.50000 418.400000
4594 15439 6870 1 109.50000 418.400000
2112 15440 10068 1 109.50000 418.400000
2112 15440 10069 1 109.50000 418.400000
2112 15440 11429 1 109.50000 418.400000
10068 15440 10069 1 109.50000 418.400000
10068 15440 11429 1 109.50000 418.400000
10069 15440 11429 1 109.50000 418.400000
7120 15441 7986 1 109.50000 418.400000
7120 15441 9956 1 109.50000 418.400000
7120 15441 10070 1 109.50000 418.400000
7986 15441 9956 1 109.50000 418.400000
7986 15441 10070 1 109.50000 418.400000
9956 15441 10070 1 109.50000 418.400000
4522 15442 4643 1 109.50000 418.400000
4522 15442 6362 1 109.50000 418.400000
4522 15442 10071 1 109.50000 418.400000
4643 15442 6362 1 109.50000 418.400000
4643 15442 10071 1 109.50000 418.400000
6362 15442 10071 1 109.50000 418.400000
4241 15443 9371 1 109.50000 418.400000
4241 15443 10072 1 109.50000 418.400000
4241 15443 10073 1 109.50000 418.400000
9371 15443 10072 1 109.50000 418.400000
9371 15443 10073 1 109.50000 418.400000
10072 15443 10073 1 109.50000 418.400000
1788 15444 5761 1 109.50000 418.400000
1788 15444 5764 1 109.50000 418.400000
1788 15444 10074 1 109.50000 418.400000
5761 15444 5764 1 109.50000 418.400000
5761 15444 10074 1 109.50000 418.400000
5764 15444 10074 1 109.50000 418.400000
1461 15445 5164 1 109.50000 418.400000
1461 15445 8299 1 109.50000 418.400000
1461 15445 10076 1 109.50000 418.400000
5164 15445 8299 1 109.50000 418.400000
5164 15445 10076 1 109.50000 418.400000
8299 15445 10076 1 109.50000 418.400000
1156 15446 10077 1 109.50000 418.400000
1156 15446 10078 1 109.50000 418.400000
1156 15446 10079 1 109.50000 418.400000
10077 15446 10078 1 109.50000 418.400000
10077 15446 10079 1 109.50000 418.400000
10078 15446 10079 1 109.50000 418.400000
5852 15447 8814 1 109.50000 418.400000
5852 15447 9591 1 109.50000 418.400000
5852 15447 9725 1 109.50000 418.400000
8814 15447 9591 1 109.50000 418.400000
8814 15447 9725 1 109.50000 418.400000
9591 15447 9725 1 109.50000 418.400000
6572 15448 6574 1 109.50000 418.400000
6572 15448 10081 1 109.50000 418.400000
6572 15448 11481 1 109.50000 418.400000
6574 15448 10081 1 109.50000 418.400000
6574 15448 11481 1 109.50000 418.400000
10081 15448 11481 1 109.50000 418.400000
8978 15449 9264 1 109.50000 418.400000
8978 15449 9449 1 109.50000 418.400000
8978 15449 9843 1 109.50000 418.400000
9264 15449 9449 1 109.50000 418.400000
9264 15449 9843 1 109.50000 418.400000
9449 15449 9843 1 109.50000 418.400000
5044 15450 6514 1 109.50000 418.400000
5044 15450 7184 1 109.50000 418.400000
5044 15450 9374 1 109.50000 418.400000
6514 15450 7184 1 109.50000 418.400000
6514 15450 9374 1 109.50000 418.400000
7184 15450 9374 1 109.50000 418.400000
1935 15451 6624 1 109.50000 418.400000
1935 15451 6850 1 109.50000 418.400000
1935 15451 9641 1 109.50000 418.400000
6624 15451 6850 1 109.50000 418.400000
6624 15451 9641 1 109.50000 418.400000
6850 15451 9641 1 109.50000 418.400000
8095 15452 10083 1 109.50000 418.400000
8095 15452 11361 1 109.50000 418.400000
8095 15452 11589 1 109.50000 418.400000
10083 15452 11361 1 109.50000 418.400000
10083 15452 11589 1 109.50000 418.400000
11361 15452 11589 1 109.50000 418.400000
9284 15453 10085 1 109.50000 418.400000
9284 15453 10086 1 109.50000 418.400000
9284 15453 11328 1 109.50000 418.400000
10085 15453 10086 1 109.50000 418.400000
10085 15453 11328 1 109.50000 418.400000
10086 15453 11328 1 109.50000 418.400000
4886 15454 7515 1 109.50000 418.400000
4886 15454 9631 1 109.50000 418.400000
4886 15454 10087 1 109.50000 418.400000
7515 15454 9631 1 109.50000 418.400000
7515 15454 10087 1 109.50000 418.400000
9631 15454 10087 1 109.50000 418.400000
5017 15455 5489 1 109.50000 418.400000
5017 15455 9255 1 109.50000 418.400000
5017 15455 10088 1 109.50000 418.400000
5489 15455 9255 1 109.50000 418.400000
5489 15455 10088 1 109.50000 418.400000
9255 15455 10088 1 109.50000 418.400000
2151 15456 6376 1 109.50000 418.400000
2151 15456 7672 1 109.50000 418.400000
2151 15456 10089 1 109.50000 418.400000
6376 15456 7672 1 109.50000 418.400000
6376 15456 10089 1 109.50000 418.400000
7672 15456 10089 1 109.50000 418.400000
5294 15457 8251 1 109.50000 418.400000
5294 15457 9884 1 109.50000 418.400000
5294 15457 10090 1 109.50000 418.400000
8251 15457 9884 1 109.50000 418.400000
8251 15457 10090 1 109.50000 418.400000
9884 15457 10090 1 109.50000 418.400000
2898 15458 7769 1 109.50000 418.400000
2898 15458 9464 1 109.50000 418.400000
2898 15458 9674 1 109.50000 418.400000
7769 15458 9464 1 109.50000 418.400000
7769 15458 9674 1 109.50000 418.400000
9464 15458 9674 1 109.50000 418.400000
7781 15459 9496 1 109.50000 418.400000
7781 15459 10091 1 109.50000 418.400000
7781 15459 10092 1 109.50000 418.400000
9496 15459 10091 1 109.50000 418.400000
9496 15459 10092 1 109.50000 418.400000
10091 15459 10092 1 109.50000 418.400000
9355 15460 9874 1 109.50000 418.400000
9355 15460 10093 1 109.50000 418.400000
9355 15460 10094 1 109.50000 418.400000
9874 15460 10093 1 109.50000 418.400000
9874 15460 10094 1 109.50000 418.400000
10093 15460 10094 1 109.50000 418.400000
5274 15461 8241 1 109.50000 418.400000
5274 15461 10095 1 109.50000 418.400000
5274 15461 10096 1 109.50000 418.400000
8241 15461 10095 1 109.50000 418.400000
8241 15461 10096 1 109.50000 418.400000
10095 15461 10096 1 109.50000 418.400000
4331 15462 8194 1 109.50000 418.400000
4331 15462 9864 1 109.50000 418.400000
4331 15462 10097 1 109.50000 418.400000
8194 15462 9864 1 109.50000 418.400000
8194 15462 10097 1 109.50000 418.400000
9864 15462 10097 1 109.50000 418.400000
2555 15463 4693 1 109.50000 418.400000
2555 15463 9229 1 109.50000 418.400000
2555 15463 9563 1 109.50000 418.400000
4693 15463 9229 1 109.50000 418.400000
4693 15463 9563 1 109.50000 418.400000
9229 15463 9563 1 109.50000 418.400000
5087 15464 7556 1 109.50000 418.400000
5087 15464 8177 1 109.50000 418.400000
5087 15464 8937 1 109.50000 418.400000
7556 15464 8177 1 109.50000 418.400000
7556 15464 8937 1 109.50000 418.400000
8177 15464 8937 1 109.50000 418.400000
4506 15465 6256 1 109.50000 418.400000
4506 15465 8279 1 109.50000 418.400000
4506 15465 8339 1 109.50000 418.400000
6256 15465 8279 1 109.50000 418.400000
6256 15465 8339 1 109.50000 418.400000
8279 15465 8339 1 109.50000 418.400000
8076 15466 8637 1 109.50000 418.400000
8076 15466 8638 1 109.50000 418.400000
8076 15466 8639 1 109.50000 418.400000
8637 15466 8638 1 109.50000 418.400000
8637 15466 8639 1 109.50000 418.400000
8638 15466 8639 1 109.50000 418.400000
3635 15467 7073 1 109.50000 418.400000
3635 15467 11386 1 109.50000 418.400000
3635 15467 11548 1 109.50000 418.400000
7073 15467 11386 1 109.50000 418.400000
7073 15467 11548 1 109.50000 418.400000
11386 15467 11548 1 109.50000 418.400000
3615 15468 10098 1 109.50000 418.400000
3615 15468 10099 1 109.50000 418.400000
3615 15468 10100 1 109.50000 418.400000
10098 15468 10099 1 109.50000 418.400000
10098 15468 10100 1 109.50000 418.400000
10099 15468 10100 1 109.50000 418.400000
5529 15469 6018 1 109.50000 418.400000
5529 15469 8936 1 109.50000 418.400000
5529 15469 10101 1 109.50000 418.400000
6018 15469 8936 1 109.50000 418.400000
6018 15469 10101 1 109.50000 418.400000
8936 15469 10101 1 109.50000 418.400000
2955 15470 4387 1 109.50000 418.400000
2955 15470 10102 1 109.50000 418.400000
2955 15470 10103 1 109.50000 418.400000
4387 15470 10102 1 109.50000 418.400000
4387 15470 10103 1 109.50000 418.400000
10102 15470 10103 1 109.50000 418.400000
568 15471 2239 1 109.50000 418.400000
568 15471 7509 1 109.50000 418.400000
568 15471 11277 1 109.50000 418.400000
2239 15471 7509 1 109.50000 418.400000
2239 15471 11277 1 109.50000 418.400000
7509 15471 11277 1 109.50000 418.400000
3345 15472 4952 1 109.50000 418.400000
3345 15472 10104 1 109.50000 418.400000
3345 15472 11554 1 109.50000 418.400000
4952 15472 10104 1 109.50000 418.400000
4952 15472 11554 1 109.50000 418.400000
10104 15472 11554 1 109.50000 418.400000
8928 15473 9424 1 109.50000 418.400000
8928 15473 9823 1 109.50000 418.400000
8928 15473 11487 1 109.50000 418.400000
9424 15473 9823 1 109.50000 418.400000
9424 15473 11487 1 109.50000 418.400000
9823 15473 11487 1 109.50000 418.400000
670 15474 4937 1 109.50000 418.400000
670 15474 4939 1 109.50000 418.400000
670 15474 9314 1 109.50000 418.400000
4937 15474 4939 1 109.50000 418.400000
4937 15474 9314 1 109.50000 418.400000
4939 15474 9314 1 109.50000 418.400000
763 15475 4095 1 109.50000 418.400000
763 15475 9273 1 109.50000 418.400000
763 15475 10106 1 109.50000 418.400000
4095 15475 9273 1 109.50000 418.400000
4095 15475 10106 1 109.50000 418.400000
9273 15475 10106 1 109.50000 418.400000
3163 15476 5783 1 109.50000 418.400000
3163 15476 9071 1 109.50000 418.400000
3163 15476 10107 1 109.50000 418.400000
5783 15476 9071 1 109.50000 418.400000
5783 15476 10107 1 109.50000 418.400000
9071 15476 10107 1 109.50000 418.400000
2264 15477 4328 1 109.50000 418.400000
2264 15477 10108 1 109.50000 418.400000
2264 15477 10109 1 109.50000 418.400000
4328 15477 10108 1 109.50000 418.400000
4328 15477 10109 1 109.50000 418.400000
10108 15477 10109 1 109.50000 418.400000
9097 15478 9564 1 109.50000 418.400000
9097 15478 10110 1 109.50000 418.400000
9097 15478 10111 1 109.50000 418.400000
9564 15478 10110 1 109.50000 418.400000
9564 15478 10111 1 109.50000 418.400000
10110 15478 10111 1 109.50000 418.400000
1383 15479 8673 1 109.50000 418.400000
1383 15479 10112 1 109.50000 418.400000
1383 15479 10113 1 109.50000 418.400000
8673 15479 10112 1 109.50000 418.400000
8673 15479 10113 1 109.50000 418.400000
10112 15479 10113 1 109.50000 418.400000
2775 15480 8475 1 109.50000 418.400000
2775 15480 9067 1 109.50000 418.400000
2775 15480 10114 1 109.50000 418.400000
8475 15480 9067 1 109.50000 418.400000
8475 15480 10114 1 109.50000 418.400000
9067 15480 10114 1 109.50000 418.400000
2939 15481 10000 1 109.50000 418.400000
2939 15481 10115 1 109.50000 418.400000
2939 15481 10116 1 109.50000 418.400000
10000 15481 10115 1 109.50000 418.400000
10000 15481 10116 1 109.50000 418.400000
10115 15481 10116 1 109.50000 418.400000
28 15482 1208 1 109.50000 418.400000
28 15482 10117 1 109.50000 418.400000
28 15482 10118 1 109.50000 418.400000
1208 15482 10117 1 109.50000 418.400000
1208 15482 10118 1 109.50000 418.400000
10117 15482 10118 1 109.50000 418.400000
1367 15483 5744 1 109.50000 418.400000
1367 15483 8355 1 109.50000 418.400000
1367 15483 8558 1 109.50000 418.400000
5744 15483 8355 1 109.50000 418.400000
5744 15483 8558 1 109.50000 418.400000
8355 15483 8558 1 109.50000 418.400000
1441 15484 4269 1 109.50000 418.400000
1441 15484 9981 1 109.50000 418.400000
1441 15484 10120 1 109.50000 418.400000
4269 15484 9981 1 109.50000 418.400000
4269 15484 10120 1 109.50000 418.400000
9981 15484 10120 1 109.50000 418.400000
3507 15485 7330 1 109.50000 418.400000
3507 15485 8286 1 109.50000 418.400000
3507 15485 9267 1 109.50000 418.400000
7330 15485 8286 1 109.50000 418.400000
7330 15485 9267 1 109.50000 418.400000
8286 15485 9267 1 109.50000 418.400000
2801 15486 4187 1 109.50000 418.400000
2801 15486 9736 1 109.50000 418.400000
2801 15486 10122 1 109.50000 418.400000
4187 15486 9736 1 109.50000 418.400000
4187 15486 10122 1 109.50000 418.400000
9736 15486 10122 1 109.50000 418.400000
3822 15487 5243 1 109.50000 418.400000
3822 15487 9343 1 109.50000 418.400000
3822 15487 10123 1 109.50000 418.400000
5243 15487 9343 1 109.50000 418.400000
5243 15487 10123 1 109.50000 418.400000
9343 15487 10123 1 109.50000 418.400000
148 15488 150 1 109.50000 418.400000
148 15488 1489 1 109.50000 418.400000
148 15488 7074 1 109.50000 418.400000
150 15488 1489 1 109.50000 418.400000
150 15488 7074 1 109.50000 418.400000
1489 15488 7074 1 109.50000 418.400000
5020 15489 7250 1 109.50000 418.400000
5020 15489 10124 1 109.50000 418.400000
5020 15489 11551 1 109.50000 418.400000
7250 15489 10124 1 109.50000 418.400000
7250 15489 11551 1 109.50000 418.400000
10124 15489 11551 1 109.50000 418.400000
8055 15490 10010 1 109.50000 418.400000
8055 15490 10125 1 109.50000 418.400000
8055 15490 10126 1 109.50000 418.400000
10010 15490 10125 1 109.50000 418.400000
10010 15490 10126 1 109.50000 418.400000
10125 15490 10126 1 109.50000 418.400000
3512 15491 4572 1 109.50000 418.400000
3512 15491 8833 1 109.50000 418.400000
3512 15491 10127 1 109.50000 418.400000
4572 15491 8833 1 109.50000 418.400000
4572 15491 10127 1 109.50000 418.400000
8833 15491 10127 1 109.50000 418.400000
2774 15492 4824 1 109.50000 418.400000
2774 15492 8269 1 109.50000 418.400000
2774 15492 10128 1 109.50000 418.400000
4824 15492 8269 1 109.50000 418.400000
4824 15492 10128 1 109.50000 418.400000
8269 15492 10128 1 109.50000 418.400000
6682 15493 7617 1 109.50000 418.400000
6682 15493 8455 1 109.50000 418.400000
6682 15493 9870 1 109.50000 418.400000
7617 15493 8455 1 109.50000 418.400000
7617 15493 9870 1 109.50000 418.400000
8455 15493 9870 1 109.50000 418.400000
1072 15494 8724 1 109.50000 418.400000
1072 15494 10129 1 109.50000 418.400000
1072 15494 10130 1 109.50000 418.400000
8724 15494 10129 1 109.50000 418.400000
8724 15494 10130 1 109.50000 418.400000
10129 15494 10130 1 109.50000 418.400000
3659 15495 3663 1 109.50000 418.400000
3659 15495 9347 1 109.50000 418.400000
3659 15495 10131 1 109.50000 418.400000
3663 15495 9347 1 109.50000 418.400000
3663 15495 10131 1 109.50000 418.400000
9347 15495 10131 1 109.50000 418.400000
10132 15496 10133 1 109.50000 418.400000
10132 15496 10134 1 109.50000 418.400000
10132 15496 10135 1 109.50000 418.400000
10133 15496 10134 1 109.50000 418.400000
10133 15496 10135 1 109.50000 418.400000
10134 15496 10135 1 109.50000 418.400000
7808 15497 8759 1 109.50000 418.400000
7808 15497 9331 1 109.50000 418.400000
7808 15497 10136 1 109.50000 418.400000
8759 15497 9331 1 109.50000 418.400000
8759 15497 10136 1 109.50000 418.400000
9331 15497 10136 1 109.50000 418.400000
1402 15498 4903 1 109.50000 418.400000
1402 15498 10110 1 109.50000 418.400000
1402 15498 10137 1 109.50000 418.400000
4903 15498 10110 1 109.50000 418.400000
4903 15498 10137 1 109.50000 418.400000
10110 15498 10137 1 109.50000 418.400000
2038 15499 6699 1 109.50000 418.400000
2038 15499 10118 1 109.50000 418.400000
2038 15499 10138 1 109.50000 418.400000
6699 15499 10118 1 109.50000 418.400000
6699 15499 10138 1 109.50000 418.400000
10118 15499 10138 1 109.50000 418.400000
2987 15500 7606 1 109.50000 418.400000
2987 15500 7673 1 109.50000 418.400000
2987 15500 10114 1 109.50000 418.400000
7606 15500 7673 1 109.50000 418.400000
7606 15500 10114 1 109.50000 418.400000
7673 15500 10114 1 109.50000 418.400000
1478 15501 1918 1 109.50000 418.400000
1478 15501 7912 1 109.50000 418.400000
1478 15501 10139 1 109.50000 418.400000
1918 15501 7912 1 109.50000 418.400000
1918 15501 10139 1 109.50000 418.400000
7912 15501 10139 1 109.50000 418.400000
2890 15502 9603 1 109.50000 418.400000
2890 15502 10140 1 109.50000 418.400000
2890 15502 11498 1 109.50000 418.400000
9603 15502 10140 1 109.50000 418.400000
9603 15502 11498 1 109.50000 418.400000
10140 15502 11498 1 109.50000 418.400000
4151 15503 5884 1 109.50000 418.400000
4151 15503 8645 1 109.50000 418.400000
4151 15503 10021 1 109.50000 418.400000
5884 15503 8645 1 109.50000 418.400000
5884 15503 10021 1 109.50000 418.400000
8645 15503 10021 1 109.50000 418.400000
672 15504 6966 1 109.50000 418.400000
672 15504 7069 1 109.50000 418.400000
672 15504 10094 1 109.50000 418.400000
6966 15504 7069 1 109.50000 418.400000
6966 15504 10094 1 109.50000 418.400000
7069 15504 10094 1 109.50000 418.400000
3834 15505 9092 1 109.50000 418.400000
3834 15505 10141 1 109.50000 418.400000
3834 15505 11421 1 109.50000 418.400000
9092 15505 10141 1 109.50000 418.400000
9092 15505 11421 1 109.50000 418.400000
10141 15505 11421 1 109.50000 418.400000
2938 15506 7391 1 109.50000 418.400000
2938 15506 8983 1 109.50000 418.400000
2938 15506 10142 1 109.50000 418.400000
7391 15506 8983 1 109.50000 418.400000
7391 15506 10142 1 109.50000 418.400000
8983 15506 10142 1 109.50000 418.400000
469 15507 3072 1 109.50000 418.400000
469 15507 10144 1 109.50000 418.400000
469 15507 11349 1 109.50000 418.400000
3072 15507 10144 1 109.50000 418.400000
3072 15507 11349 1 109.50000 418.400000
10144 15507 11349 1 109.50000 418.400000
3643 15508 10145 1 109.50000 418.400000
3643 15508 10146 1 109.50000 418.400000
3643 15508 10147 1 109.50000 418.400000
10145 15508 10146 1 109.50000 418.400000
10145 15508 10147 1 109.50000 418.400000
10146 15508 10147 1 109.50000 418.400000
4966 15509 6647 1 109.50000 418.400000
4966 15509 9544 1 109.50000 418.400000
4966 15509 9592 1 109.50000 418.400000
6647 15509 9544 1 109.50000 418.400000
6647 15509 9592 1 109.50000 418.400000
9544 15509 9592 1 109.50000 418.400000
241 15510 9643 1 109.50000 418.400000
241 15510 11165 1 109.50000 418.400000
241 15510 11540 1 109.50000 418.400000
9643 15510 11165 1 109.50000 418.400000
9643 15510 11540 1 109.50000 418.400000
11165 15510 11540 1 109.50000 418.400000
9460 15511 10148 1 109.50000 418.400000
9460 15511 10149 1 109.50000 418.400000
9460 15511 11319 1 109.50000 418.400000
10148 15511 10149 1 109.50000 418.400000
10148 15511 11319 1 109.50000 418.400000
10149 15511 11319 1 109.50000 418.400000
4796 15512 4803 1 109.50000 418.400000
4796 15512 8838 1 109.50000 418.400000
4796 15512 10151 1 109.50000 418.400000
4803 15512 8838 1 109.50000 418.400000
4803 15512 10151 1 109.50000 418.400000
8838 15512 10151 1 109.50000 418.400000
3241 15513 5109 1 109.50000 418.400000
3241 15513 6990 1 109.50000 418.400000
3241 15513 10152 1 109.50000 418.400000
5109 15513 6990 1 109.50000 418.400000
5109 15513 10152 1 109.50000 418.400000
6990 15513 10152 1 109.50000 418.400000
4714 15514 5147 1 109.50000 418.400000
4714 15514 8135 1 109.50000 418.400000
4714 15514 9758 1 109.50000 418.400000
5147 15514 8135 1 109.50000 418.400000
5147 15514 9758 1 109.50000 418.400000
8135 15514 9758 1 109.50000 418.400000
7730 15515 8908 1 109.50000 418.400000
7730 15515 10153 1 109.50000 418.400000
7730 15515 10154 1 109.50000 418.400000
8908 15515 10153 1 109.50000 418.400000
8908 15515 10154 1 109.50000 418.400000
10153 15515 10154 1 109.50000 418.400000
6892 15516 8331 1 109.50000 418.400000
6892 15516 11157 1 109.50000 418.400000
6892 15516 11385 1 109.50000 418.400000
8331 15516 11157 1 109.50000 418.400000
8331 15516 11385 1 109.50000 418.400000
11157 15516 11385 1 109.50000 418.400000
1749 15517 5021 1 109.50000 418.400000
1749 15517 6740 1 109.50000 418.400000
1749 15517 10155 1 109.50000 418.400000
5021 15517 6740 1 109.50000 418.400000
5021 15517 10155 1 109.50000 418.400000
6740 15517 10155 1 109.50000 418.400000
6730 15518 7205 1 109.50000 418.400000
6730 15518 8646 1 109.50000 418.400000
6730 15518 10157 1 109.50000 418.400000
7205 15518 8646 1 109.50000 418.400000
7205 15518 10157 1 109.50000 418.400000
8646 15518 10157 1 109.50000 418.400000
202 15519 204 1 109.50000 418.400000
202 15519 9061 1 109.50000 418.400000
202 15519 10158 1 109.50000 418.400000
204 15519 9061 1 109.50000 418.400000
204 15519 10158 1 109.50000 418.400000
9061 15519 10158 1 109.50000 418.400000
1691 15520 7476 1 109.50000 418.400000
1691 15520 7658 1 109.50000 418.400000
1691 15520 10159 1 109.50000 418.400000
7476 15520 7658 1 109.50000 418.400000
7476 15520 10159 1 109.50000 418.400000
7658 15520 10159 1 109.50000 418.400000
3558 15521 6982 1 109.50000 418.400000
3558 15521 9039 1 109.50000 418.400000
3558 15521 10160 1 109.50000 418.400000
6982 15521 9039 1 109.50000 418.400000
6982 15521 10160 1 109.50000 418.400000
9039 15521 10160 1 109.50000 418.400000
1551 15522 6919 1 109.50000 418.400000
1551 15522 7629 1 109.50000 418.400000
1551 15522 9916 1 109.50000 418.400000
6919 15522 7629 1 109.50000 418.400000
6919 15522 9916 1 109.50000 418.400000
7629 15522 9916 1 109.50000 418.400000
1169 15523 8083 1 109.50000 418.400000
1169 15523 10161 1 109.50000 418.400000
1169 15523 10162 1 109.50000 418.400000
8083 15523 10161 1 109.50000 418.400000
8083 15523 10162 1 109.50000 418.400000
10161 15523 10162 1 109.50000 418.400000
1710 15524 4872 1 109.50000 418.400000
1710 15524 10163 1 109.50000 418.400000
1710 15524 10164 1 109.50000 418.400000
4872 15524 10163 1 109.50000 418.400000
4872 15524 10164 1 109.50000 418.400000
10163 15524 10164 1 109.50000 418.400000
2900 15525 4765 1 109.50000 418.400000
2900 15525 7051 1 109.50000 418.400000
2900 15525 9490 1 109.50000 418.400000
4765 15525 7051 1 109.50000 418.400000
4765 15525 9490 1 109.50000 418.400000
7051 15525 9490 1 109.50000 418.400000
1807 15526 4537 1 109.50000 418.400000
1807 15526 8134 1 109.50000 418.400000
1807 15526 10166 1 109.50000 418.400000
4537 15526 8134 1 109.50000 418.400000
4537 15526 10166 1 109.50000 418.400000
8134 15526 10166 1 109.50000 418.400000
3160 15527 6509 1 109.50000 418.400000
3160 15527 8478 1 109.50000 418.400000
3160 15527 10167 1 109.50000 418.400000
6509 15527 8478 1 109.50000 418.400000
6509 15527 10167 1 109.50000 418.400000
8478 15527 10167 1 109.50000 418.400000
4874 15528 7305 1 109.50000 418.400000
4874 15528 10168 1 109.50000 418.400000
4874 15528 10169 1 109.50000 418.400000
7305 15528 10168 1 109.50000 418.400000
7305 15528 10169 1 109.50000 418.400000
10168 15528 10169 1 109.50000 418.400000
8955 15529 9466 1 109.50000 418.400000
8955 15529 9865 1 109.50000 418.400000
8955 15529 10170 1 109.50000 418.400000
9466 15529 9865 1 109.50000 418.400000
9466 15529 10170 1 109.50000 418.400000
9865 15529 10170 1 109.50000 418.400000
2491 15530 2492 1 109.50000 418.400000
2491 15530 10120 1 109.50000 418.400000
2491 15530 10171 1 109.50000 418.400000
2492 15530 10120 1 109.50000 418.400000
2492 15530 10171 1 109.50000 418.400000
10120 15530 10171 1 109.50000 418.400000
6482 15531 7424 1 109.50000 418.400000
6482 15531 10172 1 109.50000 418.400000
6482 15531 10173 1 109.50000 418.400000
7424 15531 10172 1 109.50000 418.400000
7424 15531 10173 1 109.50000 418.400000
10172 15531 10173 1 109.50000 418.400000
2024 15532 2230 1 109.50000 418.400000
2024 15532 9915 1 109.50000 418.400000
2024 15532 10174 1 109.50000 418.400000
2230 15532 9915 1 109.50000 418.400000
2230 15532 10174 1 109.50000 418.400000
9915 15532 10174 1 109.50000 418.400000
8667 15533 10175 1 109.50000 418.400000
8667 15533 10176 1 109.50000 418.400000
8667 15533 10698 1 109.50000 418.400000
10175 15533 10176 1 109.50000 418.400000
10175 15533 10698 1 109.50000 418.400000
10176 15533 10698 1 109.50000 418.400000
8191 15534 9515 1 109.50000 418.400000
8191 15534 10071 1 109.50000 418.400000
8191 15534 10177 1 109.50000 418.400000
9515 15534 10071 1 109.50000 418.400000
9515 15534 10177 1 109.50000 418.400000
10071 15534 10177 1 109.50000 418.400000
2813 15535 10178 1 109.50000 418.400000
2813 15535 10179 1 109.50000 418.400000
2813 15535 10180 1 109.50000 418.400000
10178 15535 10179 1 109.50000 418.400000
10178 15535 10180 1 109.50000 418.400000
10179 15535 10180 1 109.50000 418.400000
2552 15536 6563 1 109.50000 418.400000
2552 15536 8620 1 109.50000 418.400000
2552 15536 9635 1 109.50000 418.400000
6563 15536 8620 1 109.50000 418.400000
6563 15536 9635 1 109.50000 418.400000
8620 15536 9635 1 109.50000 418.400000
10116 15537 10129 1 109.50000 418.400000
10116 15537 10181 1 109.50000 418.400000
10116 15537 10182 1 109.50000 418.400000
10129 15537 10181 1 109.50000 418.400000
10129 15537 10182 1 109.50000 418.400000
10181 15537 10182 1 109.50000 418.400000
8685 15538 9800 1 109.50000 418.400000
8685 15538 10183 1 109.50000 418.400000
8685 15538 10184 1 109.50000 418.400000
9800 15538 10183 1 109.50000 418.400000
9800 15538 10184 1 109.50000 418.400000
10183 15538 10184 1 109.50000 418.400000
689 15539 1731 1 109.50000 418.400000
689 15539 3421 1 109.50000 418.400000
689 15539 10186 1 109.50000 418.400000
1731 15539 3421 1 109.50000 418.400000
1731 15539 10186 1 109.50000 418.400000
3421 15539 10186 1 109.50000 418.400000
2002 15540 4710 1 109.50000 418.400000
2002 15540 10187 1 109.50000 418.400000
2002 15540 10188 1 109.50000 418.400000
4710 15540 10187 1 109.50000 418.400000
4710 15540 10188 1 109.50000 418.400000
10187 15540 10188 1 109.50000 418.400000
175 15541 5843 1 109.50000 418.400000
175 15541 9271 1 109.50000 418.400000
175 15541 11454 1 109.50000 418.400000
5843 15541 9271 1 109.50000 418.400000
5843 15541 11454 1 109.50000 418.400000
9271 15541 11454 1 109.50000 418.400000
9547 15542 9621 1 109.50000 418.400000
9547 15542 10055 1 109.50000 418.400000
9547 15542 10189 1 109.50000 418.400000
9621 15542 10055 1 109.50000 418.400000
9621 15542 10189 1 109.50000 418.400000
10055 15542 10189 1 109.50000 418.400000
8415 15543 8662 1 109.50000 418.400000
8415 15543 10190 1 109.50000 418.400000
8415 15543 10191 1 109.50000 418.400000
8662 15543 10190 1 109.50000 418.400000
8662 15543 10191 1 109.50000 418.400000
10190 15543 10191 1 109.50000 418.400000
2918 15544 5617 1 109.50000 418.400000
2918 15544 10192 1 109.50000 418.400000
2918 15544 10193 1 109.50000 418.400000
5617 15544 10192 1 109.50000 418.400000
5617 15544 10193 1 109.50000 418.400000
10192 15544 10193 1 109.50000 418.400000
5610 15545 9176 1 109.50000 418.400000
5610 15545 10194 1 109.50000 418.400000
5610 15545 11022 1 109.50000 418.400000
9176 15545 10194 1 109.50000 418.400000
9176 15545 11022 1 109.50000 418.400000
10194 15545 11022 1 109.50000 418.400000
2582 15546 6198 1 109.50000 418.400000
2582 15546 10196 1 109.50000 418.400000
2582 15546 10197 1 109.50000 418.400000
6198 15546 10196 1 109.50000 418.400000
6198 15546 10197 1 109.50000 418.400000
10196 15546 10197 1 109.50000 418.400000
5929 15547 7029 1 109.50000 418.400000
5929 15547 9046 1 109.50000 418.400000
5929 15547 10198 1 109.50000 418.400000
7029 15547 9046 1 109.50000 418.400000
7029 15547 10198 1 109.50000 418.400000
9046 15547 10198 1 109.50000 418.400000
564 15548 7340 1 109.50000 418.400000
564 15548 9666 1 109.50000 418.400000
564 15548 10200 1 109.50000 418.400000
7340 15548 9666 1 109.50000 418.400000
7340 15548 10200 1 109.50000 418.400000
9666 15548 10200 1 109.50000 418.400000
8586 15549 9502 1 109.50000 418.400000
8586 15549 10201 1 109.50000 418.400000
8586 15549 10202 1 109.50000 418.400000
9502 15549 10201 1 109.50000 418.400000
9502 15549 10202 1 109.50000 418.400000
10201 15549 10202 1 109.50000 418.400000
324 15550 6293 1 109.50000 418.400000
324 15550 7527 1 109.50000 418.400000
324 15550 10203 1 109.50000 418.400000
6293 15550 7527 1 109.50000 418.400000
6293 15550 10203 1 109.50000 418.400000
7527 15550 10203 1 109.50000 418.400000
829 15551 5508 1 109.50000 418.400000
829 15551 7013 1 109.50000 418.400000
829 15551 10204 1 109.50000 418.400000
5508 15551 7013 1 109.50000 418.400000
5508 15551 10204 1 109.50000 418.400000
7013 15551 10204 1 109.50000 418.400000
3496 15552 5793 1 109.50000 418.400000
3496 15552 9980 1 109.50000 418.400000
3496 15552 10205 1 109.50000 418.400000
5793 15552 9980 1 109.50000 418.400000
5793 15552 10205 1 109.50000 418.400000
9980 15552 10205 1 109.50000 418.400000
1297 15553 1786 1 109.50000 418.400000
1297 15553 8748 1 109.50000 418.400000
1297 15553 8751 1 109.50000 418.400000
1786 15553 8748 1 109.50000 418.400000
1786 15553 8751 1 109.50000 418.400000
8748 15553 8751 1 109.50000 418.400000
4141 15554 10206 1 109.50000 418.400000
4141 15554 10207 1 109.50000 418.400000
4141 15554 10208 1 109.50000 418.400000
10206 15554 10207 1 109.50000 418.400000
10206 15554 10208 1 109.50000 418.400000
10207 15554 10208 1 109.50000 418.400000
2573 15555 7282 1 109.50000 418.400000
2573 15555 10209 1 109.50000 418.400000
2573 15555 10210 1 109.50000 418.400000
7282 15555 10209 1 109.50000 418.400000
7282 15555 10210 1 109.50000 418.400000
10209 15555 10210 1 109.50000 418.400000
3808 15556 6865 1 109.50000 418.400000
3808 15556 10211 1 109.50000 418.400000
3808 15556 10212 1 109.50000 418.400000
6865 15556 10211 1 109.50000 418.400000
6865 15556 10212 1 109.50000 418.400000
10211 15556 10212 1 109.50000 418.400000
7661 15557 7663 1 109.50000 418.400000
7661 15557 10213 1 109.50000 418.400000
7661 15557 11537 1 109.50000 418.400000
7663 15557 10213 1 109.50000 418.400000
7663 15557 11537 1 109.50000 418.400000
10213 15557 11537 1 109.50000 418.400000
5730 15558 6508 1 109.50000 418.400000
5730 15558 10214 1 109.50000 418.400000
5730 15558 10215 1 109.50000 418.400000
6508 15558 10214 1 109.50000 418.400000
6508 15558 10215 1 109.50000 418.400000
10214 15558 10215 1 109.50000 418.400000
7145 15559 8176 1 109.50000 418.400000
7145 15559 8599 1 109.50000 418.400000
7145 15559 10216 1 109.50000 418.400000
8176 15559 8599 1 109.50000 418.400000
8176 15559 10216 1 109.50000 418.400000
8599 15559 10216 1 109.50000 418.400000
4162 15560 8999 1 109.50000 418.400000
4162 15560 9114 1 109.50000 418.400000
4162 15560 10217 1 109.50000 418.400000
8999 15560 9114 1 109.50000 418.400000
8999 15560 10217 1 109.50000 418.400000
9114 15560 10217 1 109.50000 418.400000
9366 15561 9918 1 109.50000 418.400000
9366 15561 10218 1 109.50000 418.400000
9366 15561 10219 1 109.50000 418.400000
9918 15561 10218 1 109.50000 418.400000
9918 15561 10219 1 109.50000 418.400000
10218 15561 10219 1 109.50000 418.400000
7835 15562 10220 1 109.50000 418.400000
7835 15562 10221 1 109.50000 418.400000
7835 15562 10222 1 109.50000 418.400000
10220 15562 10221 1 109.50000 418.400000
10220 15562 10222 1 109.50000 418.400000
10221 15562 10222 1 109.50000 418.400000
2063 15563 2912 1 109.50000 418.400000
2063 15563 4049 1 109.50000 418.400000
2063 15563 10223 1 109.50000 418.400000
2912 15563 4049 1 109.50000 418.400000
2912 15563 10223 1 109.50000 418.400000
4049 15563 10223 1 109.50000 418.400000
337 15564 9438 1 109.50000 418.400000
337 15564 9681 1 109.50000 418.400000
337 15564 10224 1 109.50000 418.400000
9438 15564 9681 1 109.50000 418.400000
9438 15564 10224 1 109.50000 418.400000
9681 15564 10224 1 109.50000 418.400000
6911 15565 10225 1 109.50000 418.400000
6911 15565 10226 1 109.50000 418.400000
6911 15565 10227 1 109.50000 418.400000
10225 15565 10226 1 109.50000 418.400000
10225 15565 10227 1 109.50000 418.400000
10226 15565 10227 1 109.50000 418.400000
2677 15566 4234 1 109.50000 418.400000
2677 15566 7831 1 109.50000 418.400000
2677 15566 10228 1 109.50000 418.400000
4234 15566 7831 1 109.50000 418.400000
4234 15566 10228 1 109.50000 418.400000
7831 15566 10228 1 109.50000 418.400000
6238 15567 10197 1 109.50000 418.400000
6238 15567 10229 1 109.50000 418.400000
6238 15567 11171 1 109.50000 418.400000
10197 15567 10229 1 109.50000 418.400000
10197 15567 11171 1 109.50000 418.400000
10229 15567 11171 1 109.50000 418.400000
6936 15568 8288 1 109.50000 418.400000
6936 15568 9824 1 109.50000 418.400000
6936 15568 10231 1 109.50000 418.400000
8288 15568 9824 1 109.50000 418.400000
8288 15568 10231 1 109.50000 418.400000
9824 15568 10231 1 109.50000 418.400000
5588 15569 9684 1 109.50000 418.400000
5588 15569 10232 1 109.50000 418.400000
5588 15569 10233 1 109.50000 418.400000
9684 15569 10232 1 109.50000 418.400000
9684 15569 10233 1 109.50000 418.400000
10232 15569 10233 1 109.50000 418.400000
9535 15570 9571 1 109.50000 418.400000
9535 15570 10234 1 109.50000 418.400000
9535 15570 10235 1 109.50000 418.400000
9571 15570 10234 1 109.50000 418.400000
9571 15570 10235 1 109.50000 418.400000
10234 15570 10235 1 109.50000 418.400000
3807 15571 3965 1 109.50000 418.400000
3807 15571 10236 1 109.50000 418.400000
3807 15571 10237 1 109.50000 418.400000
3965 15571 10236 1 109.50000 418.400000
3965 15571 10237 1 109.50000 418.400000
10236 15571 10237 1 109.50000 418.400000
930 15572 6904 1 109.50000 418.400000
930 15572 7923 1 109.50000 418.400000
930 15572 8626 1 109.50000 418.400000
6904 15572 7923 1 109.50000 418.400000
6904 15572 8626 1 109.50000 418.400000
7923 15572 8626 1 109.50000 418.400000
8985 15573 10238 1 109.50000 418.400000
8985 15573 10239 1 109.50000 418.400000
8985 15573 11381 1 109.50000 418.400000
10238 15573 10239 1 109.50000 418.400000
10238 15573 11381 1 109.50000 418.400000
10239 15573 11381 1 109.50000 418.400000
346 15574 9214 1 109.50000 418.400000
346 15574 10240 1 109.50000 418.400000
346 15574 10241 1 109.50000 418.400000
9214 15574 10240 1 109.50000 418.400000
9214 15574 10241 1 109.50000 418.400000
10240 15574 10241 1 109.50000 418.400000
1560 15575 8325 1 109.50000 418.400000
1560 15575 10242 1 109.50000 418.400000
1560 15575 10243 1 109.50000 418.400000
8325 15575 10242 1 109.50000 418.400000
8325 15575 10243 1 109.50000 418.400000
10242 15575 10243 1 109.50000 418.400000
715 15576 3617 1 109.50000 418.400000
715 15576 4542 1 109.50000 418.400000
715 15576 10244 1 109.50000 418.400000
3617 15576 4542 1 109.50000 418.400000
3617 15576 10244 1 109.50000 418.400000
4542 15576 10244 1 109.50000 418.400000
3307 15577 3830 1 109.50000 418.400000
3307 15577 4574 1 109.50000 418.400000
3307 15577 4914 1 109.50000 418.400000
3830 15577 4574 1 109.50000 418.400000
3830 15577 4914 1 109.50000 418.400000
4574 15577 4914 1 109.50000 418.400000
119 15578 8154 1 109.50000 418.400000
119 15578 8156 1 109.50000 418.400000
119 15578 10245 1 109.50000 418.400000
8154 15578 8156 1 109.50000 418.400000
8154 15578 10245 1 109.50000 418.400000
8156 15578 10245 1 109.50000 418.400000
1243 15579 8926 1 109.50000 418.400000
1243 15579 9925 1 109.50000 418.400000
1243 15579 10246 1 109.50000 418.400000
8926 15579 9925 1 109.50000 418.400000
8926 15579 10246 1 109.50000 418.400000
9925 15579 10246 1 109.50000 418.400000
1409 15580 1410 1 109.50000 418.400000
1409 15580 9559 1 109.50000 418.400000
1409 15580 10247 1 109.50000 418.400000
1410 15580 9559 1 109.50000 418.400000
1410 15580 10247 1 109.50000 418.400000
9559 15580 10247 1 109.50000 418.400000
1131 15581 6727 1 109.50000 418.400000
1131 15581 10248 1 109.50000 418.400000
1131 15581 10249 1 109.50000 418.400000
6727 15581 10248 1 109.50000 418.400000
6727 15581 10249 1 109.50000 418.400000
10248 15581 10249 1 109.50000 418.400000
3466 15582 8070 1 109.50000 418.400000
3466 15582 9893 1 109.50000 418.400000
3466 15582 10250 1 109.50000 418.400000
8070 15582 9893 1 109.50000 418.400000
8070 15582 10250 1 109.50000 418.400000
9893 15582 10250 1 109.50000 418.400000
3660 15583 9848 1 109.50000 418.400000
3660 15583 10251 1 109.50000 418.400000
3660 15583 10252 1 109.50000 418.400000
9848 15583 10251 1 109.50000 418.400000
9848 15583 10252 1 109.50000 418.400000
10251 15583 10252 1 109.50000 418.400000
5709 15584 6741 1 109.50000 418.400000
5709 15584 11279 1 109.50000 418.400000
5709 15584 11485 1 109.50000 418.400000
6741 15584 11279 1 109.50000 418.400000
6741 15584 11485 1 109.50000 418.400000
11279 15584 11485 1 109.50000 418.400000
1704 15585 8189 1 109.50000 418.400000
1704 15585 10253 1 109.50000 418.400000
1704 15585 10254 1 109.50000 418.400000
8189 15585 10253 1 109.50000 418.400000
8189 15585 10254 1 109.50000 418.400000
10253 15585 10254 1 109.50000 418.400000
2020 15586 4352 1 109.50000 418.400000
2020 15586 7594 1 109.50000 418.400000
2020 15586 8898 1 109.50000 418.400000
4352 15586 7594 1 109.50000 418.400000
4352 15586 8898 1 109.50000 418.400000
7594 15586 8898 1 109.50000 418.400000
3044 15587 6281 1 109.50000 418.400000
3044 15587 10112 1 109.50000 418.400000
3044 15587 10255 1 109.50000 418.400000
6281 15587 10112 1 109.50000 418.400000
6281 15587 10255 1 109.50000 418.400000
10112 15587 10255 1 109.50000 418.400000
7152 15588 9463 1 109.50000 418.400000
7152 15588 10256 1 109.50000 418.400000
7152 15588 10257 1 109.50000 418.400000
9463 15588 10256 1 109.50000 418.400000
9463 15588 10257 1 109.50000 418.400000
10256 15588 10257 1 109.50000 418.400000
5499 15589 5731 1 109.50000 418.400000
5499 15589 8074 1 109.50000 418.400000
5499 15589 9498 1 109.50000 418.400000
5731 15589 8074 1 109.50000 418.400000
5731 15589 9498 1 109.50000 418.400000
8074 15589 9498 1 109.50000 418.400000
7110 15590 8881 1 109.50000 418.400000
7110 15590 9712 1 109.50000 418.400000
7110 15590 10258 1 109.50000 418.400000
8881 15590 9712 1 109.50000 418.400000
8881 15590 10258 1 109.50000 418.400000
9712 15590 10258 1 109.50000 418.400000
80 15591 9024 1 109.50000 418.400000
80 15591 9662 1 109.50000 418.400000
80 15591 9698 1 109.50000 418.400000
9024 15591 9662 1 109.50000 418.400000
9024 15591 9698 1 109.50000 418.400000
9662 15591 9698 1 109.50000 418.400000
8717 15592 9477 1 109.50000 418.400000
8717 15592 10260 1 109.50000 418.400000
8717 15592 10261 1 109.50000 418.400000
9477 15592 10260 1 109.50000 418.400000
9477 15592 10261 1 109.50000 418.400000
10260 15592 10261 1 109.50000 418.400000
358 15593 3823 1 109.50000 418.400000
358 15593 9796 1 109.50000 418.400000
358 15593 10262 1 109.50000 418.400000
3823 15593 9796 1 109.50000 418.400000
3823 15593 10262 1 109.50000 418.400000
9796 15593 10262 1 109.50000 418.400000
1463 15594 8906 1 109.50000 418.400000
1463 15594 10263 1 109.50000 418.400000
1463 15594 10264 1 109.50000 418.400000
8906 15594 10263 1 109.50000 418.400000
8906 15594 10264 1 109.50000 418.400000
10263 15594 10264 1 109.50000 418.400000
3995 15595 6071 1 109.50000 418.400000
3995 15595 10265 1 109.50000 418.400000
3995 15595 11530 1 109.50000 418.400000
6071 15595 10265 1 109.50000 418.400000
6071 15595 11530 1 109.50000 418.400000
10265 15595 11530 1 109.50000 418.400000
3055 15596 5891 1 109.50000 418.400000
3055 15596 10266 1 109.50000 418.400000
3055 15596 10267 1 109.50000 418.400000
5891 15596 10266 1 109.50000 418.400000
5891 15596 10267 1 109.50000 418.400000
10266 15596 10267 1 109.50000 418.400000
6246 15597 9967 1 109.50000 418.400000
6246 15597 10268 1 109.50000 418.400000
6246 15597 10269 1 109.50000 418.400000
9967 15597 10268 1 109.50000 418.400000
9967 15597 10269 1 109.50000 418.400000
10268 15597 10269 1 109.50000 418.400000
1467 15598 1709 1 109.50000 418.400000
1467 15598 6817 1 109.50000 418.400000
1467 15598 8200 1 109.50000 418.400000
1709 15598 6817 1 109.50000 418.400000
1709 15598 8200 1 109.50000 418.400000
6817 15598 8200 1 109.50000 418.400000
6927 15599 8877 1 109.50000 418.400000
6927 15599 10270 1 109.50000 418.400000
6927 15599 10271 1 109.50000 418.400000
8877 15599 10270 1 109.50000 418.400000
8877 15599 10271 1 109.50000 418.400000
10270 15599 10271 1 109.50000 418.400000
6436 15600 6949 1 109.50000 418.400000
6436 15600 8390 1 109.50000 418.400000
6436 15600 10273 1 109.50000 418.400000
6949 15600 8390 1 109.50000 418.400000
6949 15600 10273 1 109.50000 418.400000
8390 15600 10273 1 109.50000 418.400000
3875 15601 4255 1 109.50000 418.400000
3875 15601 9754 1 109.50000 418.400000
3875 15601 10088 1 109.50000 418.400000
4255 15601 9754 1 109.50000 418.400000
4255 15601 10088 1 109.50000 418.400000
9754 15601 10088 1 109.50000 418.400000
1549 15602 3715 1 109.50000 418.400000
1549 15602 3791 1 109.50000 418.400000
1549 15602 6576 1 109.50000 418.400000
3715 15602 3791 1 109.50000 418.400000
3715 15602 6576 1 109.50000 418.400000
3791 15602 6576 1 109.50000 418.400000
251 15603 1712 1 109.50000 418.400000
251 15603 9190 1 109.50000 418.400000
251 15603 10274 1 109.50000 418.400000
1712 15603 9190 1 109.50000 418.400000
1712 15603 10274 1 109.50000 418.400000
9190 15603 10274 1 109.50000 418.400000
8942 15604 10276 1 109.50000 418.400000
8942 15604 11402 1 109.50000 418.400000
8942 15604 11603 1 109.50000 418.400000
10276 15604 11402 1 109.50000 418.400000
10276 15604 11603 1 109.50000 418.400000
11402 15604 11603 1 109.50000 418.400000
4958 15605 6285 1 109.50000 418.400000
4958 15605 7888 1 109.50000 418.400000
4958 15605 8655 1 109.50000 418.400000
6285 15605 7888 1 109.50000 418.400000
6285 15605 8655 1 109.50000 418.400000
7888 15605 8655 1 109.50000 418.400000
6653 15606 10054 1 109.50000 418.400000
6653 15606 10277 1 109.50000 418.400000
6653 15606 10278 1 109.50000 418.400000
10054 15606 10277 1 109.50000 418.400000
10054 15606 10278 1 109.50000 418.400000
10277 15606 10278 1 109.50000 418.400000
2031 15607 3568 1 109.50000 418.400000
2031 15607 4118 1 109.50000 418.400000
2031 15607 11287 1 109.50000 418.400000
3568 15607 4118 1 109.50000 418.400000
3568 15607 11287 1 109.50000 418.400000
4118 15607 11287 1 109.50000 418.400000
1102 15608 2535 1 109.50000 418.400000
1102 15608 10279 1 109.50000 418.400000
1102 15608 10280 1 109.50000 418.400000
2535 15608 10279 1 109.50000 418.400000
2535 15608 10280 1 109.50000 418.400000
10279 15608 10280 1 109.50000 418.400000
1049 15609 2909 1 109.50000 418.400000
1049 15609 8727 1 109.50000 418.400000
1049 15609 10281 1 109.50000 418.400000
2909 15609 8727 1 109.50000 418.400000
2909 15609 10281 1 109.50000 418.400000
8727 15609 10281 1 109.50000 418.400000
719 15610 3135 1 109.50000 418.400000
719 15610 7950 1 109.50000 418.400000
719 15610 9287 1 109.50000 418.400000
3135 15610 7950 1 109.50000 418.400000
3135 15610 9287 1 109.50000 418.400000
7950 15610 9287 1 109.50000 418.400000
5259 15611 9570 1 109.50000 418.400000
5259 15611 10282 1 109.50000 418.400000
5259 15611 10283 1 109.50000 418.400000
9570 15611 10282 1 109.50000 418.400000
9570 15611 10283 1 109.50000 418.400000
10282 15611 10283 1 109.50000 418.400000
1390 15612 5963 1 109.50000 418.400000
1390 15612 8359 1 109.50000 418.400000
1390 15612 10284 1 109.50000 418.400000
5963 15612 8359 1 109.50000 418.400000
5963 15612 10284 1 109.50000 418.400000
8359 15612 10284 1 109.50000 418.400000
866 15613 4593 1 109.50000 418.400000
866 15613 4595 1 109.50000 418.400000
866 15613 9636 1 109.50000 418.400000
4593 15613 4595 1 109.50000 418.400000
4593 15613 9636 1 109.50000 418.400000
4595 15613 9636 1 109.50000 418.400000
1949 15614 5038 1 109.50000 418.400000
1949 15614 9289 1 109.50000 418.400000
1949 15614 10286 1 109.50000 418.400000
5038 15614 9289 1 109.50000 418.400000
5038 15614 10286 1 109.50000 418.400000
9289 15614 10286 1 109.50000 418.400000
2030 15615 4334 1 109.50000 418.400000
2030 15615 7507 1 109.50000 418.400000
2030 15615 8763 1 109.50000 418.400000
4334 15615 7507 1 109.50000 418.400000
4334 15615 8763 1 109.50000 418.400000
7507 15615 8763 1 109.50000 418.400000
5420 15616 7443 1 109.50000 418.400000
5420 15616 10040 1 109.50000 418.400000
5420 15616 10287 1 109.50000 418.400000
7443 15616 10040 1 109.50000 418.400000
7443 15616 10287 1 109.50000 418.400000
10040 15616 10287 1 109.50000 418.400000
3768 15617 7604 1 109.50000 418.400000
3768 15617 8591 1 109.50000 418.400000
3768 15617 10288 1 109.50000 418.400000
7604 15617 8591 1 109.50000 418.400000
7604 15617 10288 1 109.50000 418.400000
8591 15617 10288 1 109.50000 418.400000
3527 15618 5392 1 109.50000 418.400000
3527 15618 6928 1 109.50000 418.400000
3527 15618 11515 1 109.50000 418.400000
5392 15618 6928 1 109.50000 418.400000
5392 15618 11515 1 109.50000 418.400000
6928 15618 11515 1 109.50000 418.400000
3209 15619 5863 1 109.50000 418.400000
3209 15619 5864 1 109.50000 418.400000
3209 15619 10289 1 109.50000 418.400000
5863 15619 5864 1 109.50000 418.400000
5863 15619 10289 1 109.50000 418.400000
5864 15619 10289 1 109.50000 418.400000
2209 15620 8349 1 109.50000 418.400000
2209 15620 9035 1 109.50000 418.400000
2209 15620 10291 1 109.50000 418.400000
8349 15620 9035 1 109.50000 418.400000
8349 15620 10291 1 109.50000 418.400000
9035 15620 10291 1 109.50000 418.400000
2143 15621 2532 1 109.50000 418.400000
2143 15621 5785 1 109.50000 418.400000
2143 15621 9220 1 109.50000 418.400000
2532 15621 5785 1 109.50000 418.400000
2532 15621 9220 1 109.50000 418.400000
5785 15621 9220 1 109.50000 418.400000
2154 15622 7960 1 109.50000 418.400000
2154 15622 8776 1 109.50000 418.400000
2154 15622 8872 1 109.50000 418.400000
7960 15622 8776 1 109.50000 418.400000
7960 15622 8872 1 109.50000 418.400000
8776 15622 8872 1 109.50000 418.400000
3700 15623 7585 1 109.50000 418.400000
3700 15623 8649 1 109.50000 418.400000
3700 15623 10292 1 109.50000 418.400000
7585 15623 8649 1 109.50000 418.400000
7585 15623 10292 1 109.50000 418.400000
8649 15623 10292 1 109.50000 418.400000
2341 15624 8037 1 109.50000 418.400000
2341 15624 10293 1 109.50000 418.400000
2341 15624 10294 1 109.50000 418.400000
8037 15624 10293 1 109.50000 418.400000
8037 15624 10294 1 109.50000 418.400000
10293 15624 10294 1 109.50000 418.400000
2347 15625 8615 1 109.50000 418.400000
2347 15625 9514 1 109.50000 418.400000
2347 15625 10295 1 109.50000 418.400000
8615 15625 9514 1 109.50000 418.400000
8615 15625 10295 1 109.50000 418.400000
9514 15625 10295 1 109.50000 418.400000
2199 15626 4753 1 109.50000 418.400000
2199 15626 8741 1 109.50000 418.400000
2199 15626 8863 1 109.50000 418.400000
4753 15626 8741 1 109.50000 418.400000
4753 15626 8863 1 109.50000 418.400000
8741 15626 8863 1 109.50000 418.400000
1634 15627 6000 1 109.50000 418.400000
1634 15627 9904 1 109.50000 418.400000
1634 15627 11422 1 109.50000 418.400000
6000 15627 9904 1 109.50000 418.400000
6000 15627 11422 1 109.50000 418.400000
9904 15627 11422 1 109.50000 418.400000
1354 15628 1356 1 109.50000 418.400000
1354 15628 2415 1 109.50000 418.400000
1354 15628 7725 1 109.50000 418.400000
1356 15628 2415 1 109.50000 418.400000
1356 15628 7725 1 109.50000 418.400000
2415 15628 7725 1 109.50000 418.400000
5914 15629 6218 1 109.50000 418.400000
5914 15629 7267 1 109.50000 418.400000
5914 15629 7633 1 109.50000 418.400000
6218 15629 7267 1 109.50000 418.400000
6218 15629 7633 1 109.50000 418.400000
7267 15629 7633 1 109.50000 418.400000
1132 15630 1226 1 109.50000 418.400000
1132 15630 6586 1 109.50000 418.400000
1132 15630 6587 1 109.50000 418.400000
1226 15630 6586 1 109.50000 418.400000
1226 15630 6587 1 109.50000 418.400000
6586 15630 6587 1 109.50000 418.400000
6094 15631 10137 1 109.50000 418.400000
6094 15631 10297 1 109.50000 418.400000
6094 15631 10298 1 109.50000 418.400000
10137 15631 10297 1 109.50000 418.400000
10137 15631 10298 1 109.50000 418.400000
10297 15631 10298 1 109.50000 418.400000
626 15632 4766 1 109.50000 418.400000
626 15632 7290 1 109.50000 418.400000
626 15632 9579 1 109.50000 418.400000
4766 15632 7290 1 109.50000 418.400000
4766 15632 9579 1 109.50000 418.400000
7290 15632 9579 1 109.50000 418.400000
5119 15633 7969 1 109.50000 418.400000
5119 15633 9336 1 109.50000 418.400000
5119 15633 10299 1 109.50000 418.400000
7969 15633 9336 1 109.50000 418.400000
7969 15633 10299 1 109.50000 418.400000
9336 15633 10299 1 109.50000 418.400000
4487 15634 6405 1 109.50000 418.400000
4487 15634 9910 1 109.50000 418.400000
4487 15634 10031 1 109.50000 418.400000
6405 15634 9910 1 109.50000 418.400000
6405 15634 10031 1 109.50000 418.400000
9910 15634 10031 1 109.50000 418.400000
6015 15635 6582 1 109.50000 418.400000
6015 15635 8088 1 109.50000 418.400000
6015 15635 8547 1 109.50000 418.400000
6582 15635 8088 1 109.50000 418.400000
6582 15635 8547 1 109.50000 418.400000
8088 15635 8547 1 109.50000 418.400000
162 15636 3212 1 109.50000 418.400000
162 15636 6920 1 109.50000 418.400000
162 15636 10176 1 109.50000 418.400000
3212 15636 6920 1 109.50000 418.400000
3212 15636 10176 1 109.50000 418.400000
6920 15636 10176 1 109.50000 418.400000
5913 15637 8604 1 109.50000 418.400000
5913 15637 10300 1 109.50000 418.400000
5913 15637 10301 1 109.50000 418.400000
8604 15637 10300 1 109.50000 418.400000
8604 15637 10301 1 109.50000 418.400000
10300 15637 10301 1 109.50000 418.400000
4659 15638 9086 1 109.50000 418.400000
4659 15638 9554 1 109.50000 418.400000
4659 15638 10303 1 109.50000 418.400000
9086 15638 9554 1 109.50000 418.400000
9086 15638 10303 1 109.50000 418.400000
9554 15638 10303 1 109.50000 418.400000
41 15639 4923 1 109.50000 418.400000
41 15639 8681 1 109.50000 418.400000
41 15639 10304 1 109.50000 418.400000
4923 15639 8681 1 109.50000 418.400000
4923 15639 10304 1 109.50000 418.400000
8681 15639 10304 1 109.50000 418.400000
643 15640 2392 1 109.50000 418.400000
643 15640 8117 1 109.50000 418.400000
643 15640 10305 1 109.50000 418.400000
2392 15640 8117 1 109.50000 418.400000
2392 15640 10305 1 109.50000 418.400000
8117 15640 10305 1 109.50000 418.400000
502 15641 3237 1 109.50000 418.400000
502 15641 8786 1 109.50000 418.400000
502 15641 8853 1 109.50000 418.400000
3237 15641 8786 1 109.50000 418.400000
3237 15641 8853 1 109.50000 418.400000
8786 15641 8853 1 109.50000 418.400000
4456 15642 7007 1 109.50000 418.400000
4456 15642 8049 1 109.50000 418.400000
4456 15642 10308 1 109.50000 418.400000
7007 15642 8049 1 109.50000 418.400000
7007 15642 10308 1 109.50000 418.400000
8049 15642 10308 1 109.50000 418.400000
8513 15643 10133 1 109.50000 418.400000
8513 15643 10309 1 109.50000 418.400000
8513 15643 10310 1 109.50000 418.400000
10133 15643 10309 1 109.50000 418.400000
10133 15643 10310 1 109.50000 418.400000
10309 15643 10310 1 109.50000 418.400000
4426 15644 9201 1 109.50000 418.400000
4426 15644 10311 1 109.50000 418.400000
4426 15644 10312 1 109.50000 418.400000
9201 15644 10311 1 109.50000 418.400000
9201 15644 10312 1 109.50000 418.400000
10311 15644 10312 1 109.50000 418.400000
5622 15645 6792 1 109.50000 418.400000
5622 15645 8409 1 109.50000 418.400000
5622 15645 10313 1 109.50000 418.400000
6792 15645 8409 1 109.50000 418.400000
6792 15645 10313 1 109.50000 418.400000
8409 15645 10313 1 109.50000 418.400000
22 15646 4954 1 109.50000 418.400000
22 15646 10315 1 109.50000 418.400000
22 15646 10316 1 109.50000 418.400000
4954 15646 10315 1 109.50000 418.400000
4954 15646 10316 1 109.50000 418.400000
10315 15646 10316 1 109.50000 418.400000
234 15647 4203 1 109.50000 418.400000
234 15647 9802 1 109.50000 418.400000
234 15647 10317 1 109.50000 418.400000
4203 15647 9802 1 109.50000 418.400000
4203 15647 10317 1 109.50000 418.400000
9802 15647 10317 1 109.50000 418.400000
1430 15648 3138 1 109.50000 418.400000
1430 15648 4186 1 109.50000 418.400000
1430 15648 9830 1 109.50000 418.400000
3138 15648 4186 1 109.50000 418.400000
3138 15648 9830 1 109.50000 418.400000
4186 15648 9830 1 109.50000 418.400000
1515 15649 10318 1 109.50000 418.400000
1515 15649 10319 1 109.50000 418.400000
1515 15649 10320 1 109.50000 418.400000
10318 15649 10319 1 109.50000 418.400000
10318 15649 10320 1 109.50000 418.400000
10319 15649 10320 1 109.50000 418.400000
4536 15650 9757 1 109.50000 418.400000
4536 15650 10321 1 109.50000 418.400000
4536 15650 10322 1 109.50000 418.400000
9757 15650 10321 1 109.50000 418.400000
9757 15650 10322 1 109.50000 418.400000
10321 15650 10322 1 109.50000 418.400000
4623 15651 5297 1 109.50000 418.400000
4623 15651 8375 1 109.50000 418.400000
4623 15651 11154 1 109.50000 418.400000
5297 15651 8375 1 109.50000 418.400000
5297 15651 11154 1 109.50000 418.400000
8375 15651 11154 1 109.50000 418.400000
1947 15652 9476 1 109.50000 418.400000
1947 15652 10281 1 109.50000 418.400000
1947 15652 10323 1 109.50000 418.400000
9476 15652 10281 1 109.50000 418.400000
9476 15652 10323 1 109.50000 418.400000
10281 15652 10323 1 109.50000 418.400000
2275 15653 2311 1 109.50000 418.400000
2275 15653 5254 1 109.50000 418.400000
2275 15653 7564 1 109.50000 418.400000
2311 15653 5254 1 109.50000 418.400000
2311 15653 7564 1 109.50000 418.400000
5254 15653 7564 1 109.50000 418.400000
3609 15654 6371 1 109.50000 418.400000
3609 15654 8400 1 109.50000 418.400000
3609 15654 9457 1 109.50000 418.400000
6371 15654 8400 1 109.50000 418.400000
6371 15654 9457 1 109.50000 418.400000
8400 15654 9457 1 109.50000 418.400000
7119 15655 8654 1 109.50000 418.400000
7119 15655 9841 1 109.50000 418.400000
7119 15655 10324 1 109.50000 418.400000
8654 15655 9841 1 109.50000 418.400000
8654 15655 10324 1 109.50000 418.400000
9841 15655 10324 1 109.50000 418.400000
4305 15656 10253 1 109.50000 418.400000
4305 15656 10325 1 109.50000 418.400000
4305 15656 10326 1 109.50000 418.400000
10253 15656 10325 1 109.50000 418.400000
10253 15656 10326 1 109.50000 418.400000
10325 15656 10326 1 109.50000 418.400000
6579 15657 7677 1 109.50000 418.400000
6579 15657 10283 1 109.50000 418.400000
6579 15657 10327 1 109.50000 418.400000
7677 15657 10283 1 109.50000 418.400000
7677 15657 10327 1 109.50000 418.400000
10283 15657 10327 1 109.50000 418.400000
2077 15658 2474 1 109.50000 418.400000
2077 15658 3000 1 109.50000 418.400000
2077 15658 10328 1 109.50000 418.400000
2474 15658 3000 1 109.50000 418.400000
2474 15658 10328 1 109.50000 418.400000
3000 15658 10328 1 109.50000 418.400000
6219 15659 10329 1 109.50000 418.400000
6219 15659 11263 1 109.50000 418.400000
6219 15659 11594 1 109.50000 418.400000
10329 15659 11263 1 109.50000 418.400000
10329 15659 11594 1 109.50000 418.400000
11263 15659 11594 1 109.50000 418.400000
5651 15660 8719 1 109.50000 418.400000
5651 15660 10331 1 109.50000 418.400000
5651 15660 10332 1 109.50000 418.400000
8719 15660 10331 1 109.50000 418.400000
8719 15660 10332 1 109.50000 418.400000
10331 15660 10332 1 109.50000 418.400000
1432 15661 7354 1 109.50000 418.400000
1432 15661 9105 1 109.50000 418.400000
1432 15661 10135 1 109.50000 418.400000
7354 15661 9105 1 109.50000 418.400000
7354 15661 10135 1 109.50000 418.400000
9105 15661 10135 1 109.50000 418.400000
2992 15662 7883 1 109.50000 418.400000
2992 15662 8552 1 109.50000 418.400000
2992 15662 10333 1 109.50000 418.400000
7883 15662 8552 1 109.50000 418.400000
7883 15662 10333 1 109.50000 418.400000
8552 15662 10333 1 109.50000 418.400000
36 15663 639 1 109.50000 418.400000
36 15663 10334 1 109.50000 418.400000
36 15663 10335 1 109.50000 418.400000
639 15663 10334 1 109.50000 418.400000
639 15663 10335 1 109.50000 418.400000
10334 15663 10335 1 109.50000 418.400000
8351 15664 8629 1 109.50000 418.400000
8351 15664 8880 1 109.50000 418.400000
8351 15664 9821 1 109.50000 418.400000
8629 15664 8880 1 109.50000 418.400000
8629 15664 9821 1 109.50000 418.400000
8880 15664 9821 1 109.50000 418.400000
1303 15665 2528 1 109.50000 418.400000
1303 15665 5947 1 109.50000 418.400000
1303 15665 10336 1 109.50000 418.400000
2528 15665 5947 1 109.50000 418.400000
2528 15665 10336 1 109.50000 418.400000
5947 15665 10336 1 109.50000 418.400000
1041 15666 5946 1 109.50000 418.400000
1041 15666 10337 1 109.50000 418.400000
1041 15666 10338 1 109.50000 418.400000
5946 15666 10337 1 109.50000 418.400000
5946 15666 10338 1 109.50000 418.400000
10337 15666 10338 1 109.50000 418.400000
5405 15667 7475 1 109.50000 418.400000
5405 15667 9262 1 109.50000 418.400000
5405 15667 9943 1 109.50000 418.400000
7475 15667 9262 1 109.50000 418.400000
7475 15667 9943 1 109.50000 418.400000
9262 15667 9943 1 109.50000 418.400000
4698 15668 8448 1 109.50000 418.400000
4698 15668 9145 1 109.50000 418.400000
4698 15668 10340 1 109.50000 418.400000
8448 15668 9145 1 109.50000 418.400000
8448 15668 10340 1 109.50000 418.400000
9145 15668 10340 1 109.50000 418.400000
4706 15669 5773 1 109.50000 418.400000
4706 15669 6814 1 109.50000 418.400000
4706 15669 10341 1 109.50000 418.400000
5773 15669 6814 1 109.50000 418.400000
5773 15669 10341 1 109.50000 418.400000
6814 15669 10341 1 109.50000 418.400000
8458 15670 10162 1 109.50000 418.400000
8458 15670 10342 1 109.50000 418.400000
8458 15670 10343 1 109.50000 418.400000
10162 15670 10342 1 109.50000 418.400000
10162 15670 10343 1 109.50000 418.400000
10342 15670 10343 1 109.50000 418.400000
3927 15671 4809 1 109.50000 418.400000
3927 15671 5287 1 109.50000 418.400000
3927 15671 11557 1 109.50000 418.400000
4809 15671 5287 1 109.50000 418.400000
4809 15671 11557 1 109.50000 418.400000
5287 15671 11557 1 109.50000 418.400000
4975 15672 7039 1 109.50000 418.400000
4975 15672 10344 1 109.50000 418.400000
4975 15672 10345 1 109.50000 418.400000
7039 15672 10344 1 109.50000 418.400000
7039 15672 10345 1 109.50000 418.400000
10344 15672 10345 1 109.50000 418.400000
5831 15673 7623 1 109.50000 418.400000
5831 15673 9934 1 109.50000 418.400000
5831 15673 10346 1 109.50000 418.400000
7623 15673 9934 1 109.50000 418.400000
7623 15673 10346 1 109.50000 418.400000
9934 15673 10346 1 109.50000 418.400000
3057 15674 8005 1 109.50000 418.400000
3057 15674 10265 1 109.50000 418.400000
3057 15674 10347 1 109.50000 418.400000
8005 15674 10265 1 109.50000 418.400000
8005 15674 10347 1 109.50000 418.400000
10265 15674 10347 1 109.50000 418.400000
6359 15675 8433 1 109.50000 418.400000
6359 15675 8468 1 109.50000 418.400000
6359 15675 10348 1 109.50000 418.400000
8433 15675 8468 1 109.50000 418.400000
8433 15675 10348 1 109.50000 418.400000
8468 15675 10348 1 109.50000 418.400000
7952 15676 8924 1 109.50000 418.400000
7952 15676 9940 1 109.50000 418.400000
7952 15676 10349 1 109.50000 418.400000
8924 15676 9940 1 109.50000 418.400000
8924 15676 10349 1 109.50000 418.400000
9940 15676 10349 1 109.50000 418.400000
1333 15677 5137 1 109.50000 418.400000
1333 15677 9972 1 109.50000 418.400000
1333 15677 10350 1 109.50000 418.400000
5137 15677 9972 1 109.50000 418.400000
5137 15677 10350 1 109.50000 418.400000
9972 15677 10350 1 109.50000 418.400000
144 15678 2630 1 109.50000 418.400000
144 15678 7466 1 109.50000 418.400000
144 15678 9338 1 109.50000 418.400000
2630 15678 7466 1 109.50000 418.400000
2630 15678 9338 1 109.50000 418.400000
7466 15678 9338 1 109.50000 418.400000
3492 15679 3935 1 109.50000 418.400000
3492 15679 9678 1 109.50000 418.400000
3492 15679 11484 1 109.50000 418.400000
3935 15679 9678 1 109.50000 418.400000
3935 15679 11484 1 109.50000 418.400000
9678 15679 11484 1 109.50000 418.400000
9968 15680 10351 1 109.50000 418.400000
9968 15680 10352 1 109.50000 418.400000
9968 15680 10353 1 109.50000 418.400000
10351 15680 10352 1 109.50000 418.400000
10351 15680 10353 1 109.50000 418.400000
10352 15680 10353 1 109.50000 418.400000
1181 15681 7115 1 109.50000 418.400000
1181 15681 9041 1 109.50000 418.400000
1181 15681 10354 1 109.50000 418.400000
7115 15681 9041 1 109.50000 418.400000
7115 15681 10354 1 109.50000 418.400000
9041 15681 10354 1 109.50000 418.400000
138 15682 5334 1 109.50000 418.400000
138 15682 9509 1 109.50000 418.400000
138 15682 10355 1 109.50000 418.400000
5334 15682 9509 1 109.50000 418.400000
5334 15682 10355 1 109.50000 418.400000
9509 15682 10355 1 109.50000 418.400000
5861 15683 6634 1 109.50000 418.400000
5861 15683 7582 1 109.50000 418.400000
5861 15683 8474 1 109.50000 418.400000
6634 15683 7582 1 109.50000 418.400000
6634 15683 8474 1 109.50000 418.400000
7582 15683 8474 1 109.50000 418.400000
1559 15684 2578 1 109.50000 418.400000
1559 15684 7780 1 109.50000 418.400000
1559 15684 7970 1 109.50000 418.400000
2578 15684 7780 1 109.50000 418.400000
2578 15684 7970 1 109.50000 418.400000
7780 15684 7970 1 109.50000 418.400000
10086 15685 10159 1 109.50000 418.400000
10086 15685 10357 1 109.50000 418.400000
10086 15685 11464 1 109.50000 418.400000
10159 15685 10357 1 109.50000 418.400000
10159 15685 11464 1 109.50000 418.400000
10357 15685 11464 1 109.50000 418.400000
3352 15686 9520 1 109.50000 418.400000
3352 15686 10358 1 109.50000 418.400000
3352 15686 10359 1 109.50000 418.400000
9520 15686 10358 1 109.50000 418.400000
9520 15686 10359 1 109.50000 418.400000
10358 15686 10359 1 109.50000 418.400000
4602 15687 6244 1 109.50000 418.400000
4602 15687 7313 1 109.50000 418.400000
4602 15687 8079 1 109.50000 418.400000
6244 15687 7313 1 109.50000 418.400000
6244 15687 8079 1 109.50000 418.400000
7313 15687 8079 1 109.50000 418.400000
7609 15688 10360 1 109.50000 418.400000
7609 15688 10361 1 109.50000 418.400000
7609 15688 10362 1 109.50000 418.400000
10360 15688 10361 1 109.50000 418.400000
10360 15688 10362 1 109.50000 418.400000
10361 15688 10362 1 109.50000 418.400000
8679 15689 10363 1 109.50000 418.400000
8679 15689 10364 1 109.50000 418.400000
8679 15689 10365 1 109.50000 418.400000
10363 15689 10364 1 109.50000 418.400000
10363 15689 10365 1 109.50000 418.400000
10364 15689 10365 1 109.50000 418.400000
5333 15690 8617 1 109.50000 418.400000
5333 15690 11262 1 109.50000 418.400000
5333 15690 11357 1 109.50000 418.400000
8617 15690 11262 1 109.50000 418.400000
8617 15690 11357 1 109.50000 418.400000
11262 15690 11357 1 109.50000 418.400000
3908 15691 6377 1 109.50000 418.400000
3908 15691 10366 1 109.50000 418.400000
3908 15691 10367 1 109.50000 418.400000
6377 15691 10366 1 109.50000 418.400000
6377 15691 10367 1 109.50000 418.400000
10366 15691 10367 1 109.50000 418.400000
3559 15692 10104 1 109.50000 418.400000
3559 15692 10270 1 109.50000 418.400000
3559 15692 11413 1 109.50000 418.400000
10104 15692 10270 1 109.50000 418.400000
10104 15692 11413 1 109.50000 418.400000
10270 15692 11413 1 109.50000 418.400000
7603 15693 7605 1 109.50000 418.400000
7603 15693 10368 1 109.50000 418.400000
7603 15693 10369 1 109.50000 418.400000
7605 15693 10368 1 109.50000 418.400000
7605 15693 10369 1 109.50000 418.400000
10368 15693 10369 1 109.50000 418.400000
7893 15694 10097 1 109.50000 418.400000
7893 15694 10370 1 109.50000 418.400000
7893 15694 10371 1 109.50000 418.400000
10097 15694 10370 1 109.50000 418.400000
10097 15694 10371 1 109.50000 418.400000
10370 15694 10371 1 109.50000 418.400000
10372 15695 10373 1 109.50000 418.400000
10372 15695 10374 1 109.50000 418.400000
10372 15695 10375 1 109.50000 418.400000
10373 15695 10374 1 109.50000 418.400000
10373 15695 10375 1 109.50000 418.400000
10374 15695 10375 1 109.50000 418.400000
1124 15696 7766 1 109.50000 418.400000
1124 15696 8087 1 109.50000 418.400000
1124 15696 8995 1 109.50000 418.400000
7766 15696 8087 1 109.50000 418.400000
7766 15696 8995 1 109.50000 418.400000
8087 15696 8995 1 109.50000 418.400000
136 15697 7438 1 109.50000 418.400000
136 15697 8261 1 109.50000 418.400000
136 15697 8567 1 109.50000 418.400000
7438 15697 8261 1 109.50000 418.400000
7438 15697 8567 1 109.50000 418.400000
8261 15697 8567 1 109.50000 418.400000
2044 15698 8224 1 109.50000 418.400000
2044 15698 9240 1 109.50000 418.400000
2044 15698 10376 1 109.50000 418.400000
8224 15698 9240 1 109.50000 418.400000
8224 15698 10376 1 109.50000 418.400000
9240 15698 10376 1 109.50000 418.400000
7314 15699 8388 1 109.50000 418.400000
7314 15699 8519 1 109.50000 418.400000
7314 15699 10377 1 109.50000 418.400000
8388 15699 8519 1 109.50000 418.400000
8388 15699 10377 1 109.50000 418.400000
8519 15699 10377 1 109.50000 418.400000
10378 15700 10379 1 109.50000 418.400000
10378 15700 10380 1 109.50000 418.400000
10378 15700 10661 1 109.50000 418.400000
10379 15700 10380 1 109.50000 418.400000
10379 15700 10661 1 109.50000 418.400000
10380 15700 10661 1 109.50000 418.400000
5703 15701 10164 1 109.50000 418.400000
5703 15701 10381 1 109.50000 418.400000
5703 15701 10382 1 109.50000 418.400000
10164 15701 10381 1 109.50000 418.400000
10164 15701 10382 1 109.50000 418.400000
10381 15701 10382 1 109.50000 418.400000
3584 15702 4869 1 109.50000 418.400000
3584 15702 9427 1 109.50000 418.400000
3584 15702 10383 1 109.50000 418.400000
4869 15702 9427 1 109.50000 418.400000
4869 15702 10383 1 109.50000 418.400000
9427 15702 10383 1 109.50000 418.400000
2223 15703 8464 1 109.50000 418.400000
2223 15703 10201 1 109.50000 418.400000
2223 15703 10384 1 109.50000 418.400000
8464 15703 10201 1 109.50000 418.400000
8464 15703 10384 1 109.50000 418.400000
10201 15703 10384 1 109.50000 418.400000
7248 15704 7635 1 109.50000 418.400000
7248 15704 10385 1 109.50000 418.400000
7248 15704 10386 1 109.50000 418.400000
7635 15704 10385 1 109.50000 418.400000
7635 15704 10386 1 109.50000 418.400000
10385 15704 10386 1 109.50000 418.400000
1080 15705 9016 1 109.50000 418.400000
1080 15705 10387 1 109.50000 418.400000
1080 15705 10388 1 109.50000 418.400000
9016 15705 10387 1 109.50000 418.400000
9016 15705 10388 1 109.50000 418.400000
10387 15705 10388 1 109.50000 418.400000
4369 15706 7793 1 109.50000 418.400000
4369 15706 9682 1 109.50000 418.400000
4369 15706 10293 1 109.50000 418.400000
7793 15706 9682 1 109.50000 418.400000
7793 15706 10293 1 109.50000 418.400000
9682 15706 10293 1 109.50000 418.400000
2399 15707 2626 1 109.50000 418.400000
2399 15707 8317 1 109.50000 418.400000
2399 15707 8986 1 109.50000 418.400000
2626 15707 8317 1 109.50000 418.400000
2626 15707 8986 1 109.50000 418.400000
8317 15707 8986 1 109.50000 418.400000
2316 15708 6082 1 109.50000 418.400000
2316 15708 8714 1 109.50000 418.400000
2316 15708 9767 1 109.50000 418.400000
6082 15708 8714 1 109.50000 418.400000
6082 15708 9767 1 109.50000 418.400000
8714 15708 9767 1 109.50000 418.400000
70 15709 3594 1 109.50000 418.400000
70 15709 5412 1 109.50000 418.400000
70 15709 7484 1 109.50000 418.400000
3594 15709 5412 1 109.50000 418.400000
3594 15709 7484 1 109.50000 418.400000
5412 15709 7484 1 109.50000 418.400000
821 15710 4341 1 109.50000 418.400000
821 15710 4424 1 109.50000 418.400000
821 15710 9316 1 109.50000 418.400000
4341 15710 4424 1 109.50000 418.400000
4341 15710 9316 1 109.50000 418.400000
4424 15710 9316 1 109.50000 418.400000
7791 15711 8435 1 109.50000 418.400000
7791 15711 10389 1 109.50000 418.400000
7791 15711 10390 1 109.50000 418.400000
8435 15711 10389 1 109.50000 418.400000
8435 15711 10390 1 109.50000 418.400000
10389 15711 10390 1 109.50000 418.400000
3409 15712 4575 1 109.50000 418.400000
3409 15712 4601 1 109.50000 418.400000
3409 15712 7710 1 109.50000 418.400000
4575 15712 4601 1 109.50000 418.400000
4575 15712 7710 1 109.50000 418.400000
4601 15712 7710 1 109.50000 418.400000
7478 15713 9175 1 109.50000 418.400000
7478 15713 9722 1 109.50000 418.400000
7478 15713 10181 1 109.50000 418.400000
9175 15713 9722 1 109.50000 418.400000
9175 15713 10181 1 109.50000 418.400000
9722 15713 10181 1 109.50000 418.400000
4274 15714 5874 1 109.50000 418.400000
4274 15714 9073 1 109.50000 418.400000
4274 15714 10090 1 109.50000 418.400000
5874 15714 9073 1 109.50000 418.400000
5874 15714 10090 1 109.50000 418.400000
9073 15714 10090 1 109.50000 418.400000
3631 15715 6965 1 109.50000 418.400000
3631 15715 6967 1 109.50000 418.400000
3631 15715 10391 1 109.50000 418.400000
6965 15715 6967 1 109.50000 418.400000
6965 15715 10391 1 109.50000 418.400000
6967 15715 10391 1 109.50000 418.400000
9292 15716 10392 1 109.50000 418.400000
9292 15716 10393 1 109.50000 418.400000
9292 15716 10394 1 109.50000 418.400000
10392 15716 10393 1 109.50000 418.400000
10392 15716 10394 1 109.50000 418.400000
10393 15716 10394 1 109.50000 418.400000
2849 15717 4523 1 109.50000 418.400000
2849 15717 9572 1 109.50000 418.400000
2849 15717 10254 1 109.50000 418.400000
4523 15717 9572 1 109.50000 418.400000
4523 15717 10254 1 109.50000 418.400000
9572 15717 10254 1 109.50000 418.400000
504 15718 4868 1 109.50000 418.400000
504 15718 10203 1 109.50000 418.400000
504 15718 10395 1 109.50000 418.400000
4868 15718 10203 1 109.50000 418.400000
4868 15718 10395 1 109.50000 418.400000
10203 15718 10395 1 109.50000 418.400000
5148 15719 9489 1 109.50000 418.400000
5148 15719 9896 1 109.50000 418.400000
5148 15719 10335 1 109.50000 418.400000
9489 15719 9896 1 109.50000 418.400000
9489 15719 10335 1 109.50000 418.400000
9896 15719 10335 1 109.50000 418.400000
3925 15720 7656 1 109.50000 418.400000
3925 15720 9640 1 109.50000 418.400000
3925 15720 9975 1 109.50000 418.400000
7656 15720 9640 1 109.50000 418.400000
7656 15720 9975 1 109.50000 418.400000
9640 15720 9975 1 109.50000 418.400000
1075 15721 4446 1 109.50000 418.400000
1075 15721 10221 1 109.50000 418.400000
1075 15721 11597 1 109.50000 418.400000
4446 15721 10221 1 109.50000 418.400000
4446 15721 11597 1 109.50000 418.400000
10221 15721 11597 1 109.50000 418.400000
2439 15722 8155 1 109.50000 418.400000
2439 15722 10027 1 109.50000 418.400000
2439 15722 10396 1 109.50000 418.400000
8155 15722 10027 1 109.50000 418.400000
8155 15722 10396 1 109.50000 418.400000
10027 15722 10396 1 109.50000 418.400000
1412 15723 2958 1 109.50000 418.400000
1412 15723 3650 1 109.50000 418.400000
1412 15723 10398 1 109.50000 418.400000
2958 15723 3650 1 109.50000 418.400000
2958 15723 10398 1 109.50000 418.400000
3650 15723 10398 1 109.50000 418.400000
1460 15724 6112 1 109.50000 418.400000
1460 15724 9170 1 109.50000 418.400000
1460 15724 10263 1 109.50000 418.400000
6112 15724 9170 1 109.50000 418.400000
6112 15724 10263 1 109.50000 418.400000
9170 15724 10263 1 109.50000 418.400000
8722 15725 9188 1 109.50000 418.400000
8722 15725 9225 1 109.50000 418.400000
8722 15725 10399 1 109.50000 418.400000
9188 15725 9225 1 109.50000 418.400000
9188 15725 10399 1 109.50000 418.400000
9225 15725 10399 1 109.50000 418.400000
1394 15726 2116 1 109.50000 418.400000
1394 15726 7107 1 109.50000 418.400000
1394 15726 10400 1 109.50000 418.400000
2116 15726 7107 1 109.50000 418.400000
2116 15726 10400 1 109.50000 418.400000
7107 15726 10400 1 109.50000 418.400000
1354 15727 2861 1 109.50000 418.400000
1354 15727 7269 1 109.50000 418.400000
1354 15727 7270 1 109.50000 418.400000
2861 15727 7269 1 109.50000 418.400000
2861 15727 7270 1 109.50000 418.400000
7269 15727 7270 1 109.50000 418.400000
5632 15728 7303 1 109.50000 418.400000
5632 15728 10214 1 109.50000 418.400000
5632 15728 10402 1 109.50000 418.400000
7303 15728 10214 1 109.50000 418.400000
7303 15728 10402 1 109.50000 418.400000
10214 15728 10402 1 109.50000 418.400000
4039 15729 9049 1 109.50000 418.400000
4039 15729 10403 1 109.50000 418.400000
4039 15729 10404 1 109.50000 418.400000
9049 15729 10403 1 109.50000 418.400000
9049 15729 10404 1 109.50000 418.400000
10403 15729 10404 1 109.50000 418.400000
1859 15730 4161 1 109.50000 418.400000
1859 15730 10405 1 109.50000 418.400000
1859 15730 10406 1 109.50000 418.400000
4161 15730 10405 1 109.50000 418.400000
4161 15730 10406 1 109.50000 418.400000
10405 15730 10406 1 109.50000 418.400000
1640 15731 8497 1 109.50000 418.400000
1640 15731 8499 1 109.50000 418.400000
1640 15731 8500 1 109.50000 418.400000
8497 15731 8499 1 109.50000 418.400000
8497 15731 8500 1 109.50000 418.400000
8499 15731 8500 1 109.50000 418.400000
4086 15732 5118 1 109.50000 418.400000
4086 15732 10015 1 109.50000 418.400000
4086 15732 10408 1 109.50000 418.400000
5118 15732 10015 1 109.50000 418.400000
5118 15732 10408 1 109.50000 418.400000
10015 15732 10408 1 109.50000 418.400000
2135 15733 4552 1 109.50000 418.400000
2135 15733 8844 1 109.50000 418.400000
2135 15733 10409 1 109.50000 418.400000
4552 15733 8844 1 109.50000 418.400000
4552 15733 10409 1 109.50000 418.400000
8844 15733 10409 1 109.50000 418.400000
2761 15734 6029 1 109.50000 418.400000
2761 15734 10250 1 109.50000 418.400000
2761 15734 10410 1 109.50000 418.400000
6029 15734 10250 1 109.50000 418.400000
6029 15734 10410 1 109.50000 418.400000
10250 15734 10410 1 109.50000 418.400000
4077 15735 6463 1 109.50000 418.400000
4077 15735 8808 1 109.50000 418.400000
4077 15735 10411 1 109.50000 418.400000
6463 15735 8808 1 109.50000 418.400000
6463 15735 10411 1 109.50000 418.400000
8808 15735 10411 1 109.50000 418.400000
201 15736 7062 1 109.50000 418.400000
201 15736 8825 1 109.50000 418.400000
201 15736 10412 1 109.50000 418.400000
7062 15736 8825 1 109.50000 418.400000
7062 15736 10412 1 109.50000 418.400000
8825 15736 10412 1 109.50000 418.400000
4185 15737 10413 1 109.50000 418.400000
4185 15737 10414 1 109.50000 418.400000
4185 15737 11261 1 109.50000 418.400000
10413 15737 10414 1 109.50000 418.400000
10413 15737 11261 1 109.50000 418.400000
10414 15737 11261 1 109.50000 418.400000
4631 15738 10153 1 109.50000 418.400000
4631 15738 10410 1 109.50000 418.400000
4631 15738 10415 1 109.50000 418.400000
10153 15738 10410 1 109.50000 418.400000
10153 15738 10415 1 109.50000 418.400000
10410 15738 10415 1 109.50000 418.400000
1248 15739 5915 1 109.50000 418.400000
1248 15739 7822 1 109.50000 418.400000
1248 15739 10232 1 109.50000 418.400000
5915 15739 7822 1 109.50000 418.400000
5915 15739 10232 1 109.50000 418.400000
7822 15739 10232 1 109.50000 418.400000
443 15740 2048 1 109.50000 418.400000
443 15740 10416 1 109.50000 418.400000
443 15740 10417 1 109.50000 418.400000
2048 15740 10416 1 109.50000 418.400000
2048 15740 10417 1 109.50000 418.400000
10416 15740 10417 1 109.50000 418.400000
803 15741 5870 1 109.50000 418.400000
803 15741 10271 1 109.50000 418.400000
803 15741 10418 1 109.50000 418.400000
5870 15741 10271 1 109.50000 418.400000
5870 15741 10418 1 109.50000 418.400000
10271 15741 10418 1 109.50000 418.400000
2472 15742 2867 1 109.50000 418.400000
2472 15742 4782 1 109.50000 418.400000
2472 15742 8659 1 109.50000 418.400000
2867 15742 4782 1 109.50000 418.400000
2867 15742 8659 1 109.50000 418.400000
4782 15742 8659 1 109.50000 418.400000
3620 15743 10408 1 109.50000 418.400000
3620 15743 10419 1 109.50000 418.400000
3620 15743 10420 1 109.50000 418.400000
10408 15743 10419 1 109.50000 418.400000
10408 15743 10420 1 109.50000 418.400000
10419 15743 10420 1 109.50000 418.400000
5272 15744 7043 1 109.50000 418.400000
5272 15744 9132 1 109.50000 418.400000
5272 15744 10421 1 109.50000 418.400000
7043 15744 9132 1 109.50000 418.400000
7043 15744 10421 1 109.50000 418.400000
9132 15744 10421 1 109.50000 418.400000
617 15745 5697 1 109.50000 418.400000
617 15745 8682 1 109.50000 418.400000
617 15745 9777 1 109.50000 418.400000
5697 15745 8682 1 109.50000 418.400000
5697 15745 9777 1 109.50000 418.400000
8682 15745 9777 1 109.50000 418.400000
4097 15746 5016 1 109.50000 418.400000
4097 15746 7667 1 109.50000 418.400000
4097 15746 10358 1 109.50000 418.400000
5016 15746 7667 1 109.50000 418.400000
5016 15746 10358 1 109.50000 418.400000
7667 15746 10358 1 109.50000 418.400000
1036 15747 1037 1 109.50000 418.400000
1036 15747 1038 1 109.50000 418.400000
1036 15747 1039 1 109.50000 418.400000
1037 15747 1038 1 109.50000 418.400000
1037 15747 1039 1 109.50000 418.400000
1038 15747 1039 1 109.50000 418.400000
5378 15748 8507 1 109.50000 418.400000
5378 15748 10311 1 109.50000 418.400000
5378 15748 10423 1 109.50000 418.400000
8507 15748 10311 1 109.50000 418.400000
8507 15748 10423 1 109.50000 418.400000
10311 15748 10423 1 109.50000 418.400000
3046 15749 5696 1 109.50000 418.400000
3046 15749 9380 1 109.50000 418.400000
3046 15749 10167 1 109.50000 418.400000
5696 15749 9380 1 109.50000 418.400000
5696 15749 10167 1 109.50000 418.400000
9380 15749 10167 1 109.50000 418.400000
885 15750 7581 1 109.50000 418.400000
885 15750 10424 1 109.50000 418.400000
885 15750 10822 1 109.50000 418.400000
7581 15750 10424 1 109.50000 418.400000
7581 15750 10822 1 109.50000 418.400000
10424 15750 10822 1 109.50000 418.400000
5189 15751 7036 1 109.50000 418.400000
5189 15751 9053 1 109.50000 418.400000
5189 15751 10425 1 109.50000 418.400000
7036 15751 9053 1 109.50000 418.400000
7036 15751 10425 1 109.50000 418.400000
9053 15751 10425 1 109.50000 418.400000
6554 15752 7156 1 109.50000 418.400000
6554 15752 9433 1 109.50000 418.400000
6554 15752 10426 1 109.50000 418.400000
7156 15752 9433 1 109.50000 418.400000
7156 15752 10426 1 109.50000 418.400000
9433 15752 10426 1 109.50000 418.400000
3404 15753 8950 1 109.50000 418.400000
3404 15753 10125 1 109.50000 418.400000
3404 15753 10278 1 109.50000 418.400000
8950 15753 10125 1 109.50000 418.400000
8950 15753 10278 1 109.50000 418.400000
10125 15753 10278 1 109.50000 418.400000
5474 15754 9180 1 109.50000 418.400000
5474 15754 10291 1 109.50000 418.400000
5474 15754 10427 1 109.50000 418.400000
9180 15754 10291 1 109.50000 418.400000
9180 15754 10427 1 109.50000 418.400000
10291 15754 10427 1 109.50000 418.400000
5180 15755 9022 1 109.50000 418.400000
5180 15755 10428 1 109.50000 418.400000
5180 15755 10429 1 109.50000 418.400000
9022 15755 10428 1 109.50000 418.400000
9022 15755 10429 1 109.50000 418.400000
10428 15755 10429 1 109.50000 418.400000
9417 15756 10345 1 109.50000 418.400000
9417 15756 10430 1 109.50000 418.400000
9417 15756 10431 1 109.50000 418.400000
10345 15756 10430 1 109.50000 418.400000
10345 15756 10431 1 109.50000 418.400000
10430 15756 10431 1 109.50000 418.400000
4628 15757 7681 1 109.50000 418.400000
4628 15757 8570 1 109.50000 418.400000
4628 15757 10432 1 109.50000 418.400000
7681 15757 8570 1 109.50000 418.400000
7681 15757 10432 1 109.50000 418.400000
8570 15757 10432 1 109.50000 418.400000
5993 15758 6983 1 109.50000 418.400000
5993 15758 9720 1 109.50000 418.400000
5993 15758 9906 1 109.50000 418.400000
6983 15758 9720 1 109.50000 418.400000
6983 15758 9906 1 109.50000 418.400000
9720 15758 9906 1 109.50000 418.400000
6435 15759 6437 1 109.50000 418.400000
6435 15759 8391 1 109.50000 418.400000
6435 15759 11490 1 109.50000 418.400000
6437 15759 8391 1 109.50000 418.400000
6437 15759 11490 1 109.50000 418.400000
8391 15759 11490 1 109.50000 418.400000
1480 15760 2583 1 109.50000 418.400000
1480 15760 2585 1 109.50000 418.400000
1480 15760 8778 1 109.50000 418.400000
2583 15760 2585 1 109.50000 418.400000
2583 15760 8778 1 109.50000 418.400000
2585 15760 8778 1 109.50000 418.400000
6610 15761 8462 1 109.50000 418.400000
6610 15761 8587 1 109.50000 418.400000
6610 15761 9455 1 109.50000 418.400000
8462 15761 8587 1 109.50000 418.400000
8462 15761 9455 1 109.50000 418.400000
8587 15761 9455 1 109.50000 418.400000
45 15762 2200 1 109.50000 418.400000
45 15762 9713 1 109.50000 418.400000
45 15762 10433 1 109.50000 418.400000
2200 15762 9713 1 109.50000 418.400000
2200 15762 10433 1 109.50000 418.400000
9713 15762 10433 1 109.50000 418.400000
4815 15763 5747 1 109.50000 418.400000
4815 15763 6027 1 109.50000 418.400000
4815 15763 8172 1 109.50000 418.400000
5747 15763 6027 1 109.50000 418.400000
5747 15763 8172 1 109.50000 418.400000
6027 15763 8172 1 109.50000 418.400000
1668 15764 7704 1 109.50000 418.400000
1668 15764 7820 1 109.50000 418.400000
1668 15764 10434 1 109.50000 418.400000
7704 15764 7820 1 109.50000 418.400000
7704 15764 10434 1 109.50000 418.400000
7820 15764 10434 1 109.50000 418.400000
10435 15765 10436 1 109.50000 418.400000
10435 15765 10836 1 109.50000 418.400000
10435 15765 11562 1 109.50000 418.400000
10436 15765 10836 1 109.50000 418.400000
10436 15765 11562 1 109.50000 418.400000
10836 15765 11562 1 109.50000 418.400000
1045 15766 4252 1 109.50000 418.400000
1045 15766 8754 1 109.50000 418.400000
1045 15766 10421 1 109.50000 418.400000
4252 15766 8754 1 109.50000 418.400000
4252 15766 10421 1 109.50000 418.400000
8754 15766 10421 1 109.50000 418.400000
6440 15767 6664 1 109.50000 418.400000
6440 15767 11281 1 109.50000 418.400000
6440 15767 11524 1 109.50000 418.400000
6664 15767 11281 1 109.50000 418.400000
6664 15767 11524 1 109.50000 418.400000
11281 15767 11524 1 109.50000 418.400000
2459 15768 5327 1 109.50000 418.400000
2459 15768 7046 1 109.50000 418.400000
2459 15768 9209 1 109.50000 418.400000
5327 15768 7046 1 109.50000 418.400000
5327 15768 9209 1 109.50000 418.400000
7046 15768 9209 1 109.50000 418.400000
3945 15769 5003 1 109.50000 418.400000
3945 15769 6765 1 109.50000 418.400000
3945 15769 6767 1 109.50000 418.400000
5003 15769 6765 1 109.50000 418.400000
5003 15769 6767 1 109.50000 418.400000
6765 15769 6767 1 109.50000 418.400000
10437 15770 10438 1 109.50000 418.400000
10437 15770 10439 1 109.50000 418.400000
10437 15770 10440 1 109.50000 418.400000
10438 15770 10439 1 109.50000 418.400000
10438 15770 10440 1 109.50000 418.400000
10439 15770 10440 1 109.50000 418.400000
4057 15771 10441 1 109.50000 418.400000
4057 15771 10442 1 109.50000 418.400000
4057 15771 11475 1 109.50000 418.400000
10441 15771 10442 1 109.50000 418.400000
10441 15771 11475 1 109.50000 418.400000
10442 15771 11475 1 109.50000 418.400000
4447 15772 7550 1 109.50000 418.400000
4447 15772 9222 1 109.50000 418.400000
4447 15772 10443 1 109.50000 418.400000
7550 15772 9222 1 109.50000 418.400000
7550 15772 10443 1 109.50000 418.400000
9222 15772 10443 1 109.50000 418.400000
7385 15773 7751 1 109.50000 418.400000
7385 15773 10444 1 109.50000 418.400000
7385 15773 10445 1 109.50000 418.400000
7751 15773 10444 1 109.50000 418.400000
7751 15773 10445 1 109.50000 418.400000
10444 15773 10445 1 109.50000 418.400000
873 15774 5011 1 109.50000 418.400000
873 15774 9404 1 109.50000 418.400000
873 15774 10446 1 109.50000 418.400000
5011 15774 9404 1 109.50000 418.400000
5011 15774 10446 1 109.50000 418.400000
9404 15774 10446 1 109.50000 418.400000
4388 15775 8085 1 109.50000 418.400000
4388 15775 8920 1 109.50000 418.400000
4388 15775 10447 1 109.50000 418.400000
8085 15775 8920 1 109.50000 418.400000
8085 15775 10447 1 109.50000 418.400000
8920 15775 10447 1 109.50000 418.400000
774 15776 3430 1 109.50000 418.400000
774 15776 5184 1 109.50000 418.400000
774 15776 10448 1 109.50000 418.400000
3430 15776 5184 1 109.50000 418.400000
3430 15776 10448 1 109.50000 418.400000
5184 15776 10448 1 109.50000 418.400000
751 15777 9597 1 109.50000 418.400000
751 15777 10449 1 109.50000 418.400000
751 15777 10450 1 109.50000 418.400000
9597 15777 10449 1 109.50000 418.400000
9597 15777 10450 1 109.50000 418.400000
10449 15777 10450 1 109.50000 418.400000
7540 15778 10451 1 109.50000 418.400000
7540 15778 10452 1 109.50000 418.400000
7540 15778 10453 1 109.50000 418.400000
10451 15778 10452 1 109.50000 418.400000
10451 15778 10453 1 109.50000 418.400000
10452 15778 10453 1 109.50000 418.400000
979 15779 2367 1 109.50000 418.400000
979 15779 6342 1 109.50000 418.400000
979 15779 7756 1 109.50000 418.400000
2367 15779 6342 1 109.50000 418.400000
2367 15779 7756 1 109.50000 418.400000
6342 15779 7756 1 109.50000 418.400000
2414 15780 9204 1 109.50000 418.400000
2414 15780 10454 1 109.50000 418.400000
2414 15780 10455 1 109.50000 418.400000
9204 15780 10454 1 109.50000 418.400000
9204 15780 10455 1 109.50000 418.400000
10454 15780 10455 1 109.50000 418.400000
1054 15781 7930 1 109.50000 418.400000
1054 15781 9167 1 109.50000 418.400000
1054 15781 9440 1 109.50000 418.400000
7930 15781 9167 1 109.50000 418.400000
7930 15781 9440 1 109.50000 418.400000
9167 15781 9440 1 109.50000 418.400000
3124 15782 7380 1 109.50000 418.400000
3124 15782 8575 1 109.50000 418.400000
3124 15782 10456 1 109.50000 418.400000
7380 15782 8575 1 109.50000 418.400000
7380 15782 10456 1 109.50000 418.400000
8575 15782 10456 1 109.50000 418.400000
5143 15783 5354 1 109.50000 418.400000
5143 15783 7488 1 109.50000 418.400000
5143 15783 10457 1 109.50000 418.400000
5354 15783 7488 1 109.50000 418.400000
5354 15783 10457 1 109.50000 418.400000
7488 15783 10457 1 109.50000 418.400000
5639 15784 9068 1 109.50000 418.400000
5639 15784 9069 1 109.50000 418.400000
5639 15784 10458 1 109.50000 418.400000
9068 15784 9069 1 109.50000 418.400000
9068 15784 10458 1 109.50000 418.400000
9069 15784 10458 1 109.50000 418.400000
5967 15785 8791 1 109.50000 418.400000
5967 15785 9659 1 109.50000 418.400000
5967 15785 10460 1 109.50000 418.400000
8791 15785 9659 1 109.50000 418.400000
8791 15785 10460 1 109.50000 418.400000
9659 15785 10460 1 109.50000 418.400000
1435 15786 4370 1 109.50000 418.400000
1435 15786 6985 1 109.50000 418.400000
1435 15786 7675 1 109.50000 418.400000
4370 15786 6985 1 109.50000 418.400000
4370 15786 7675 1 109.50000 418.400000
6985 15786 7675 1 109.50000 418.400000
1009 15787 5458 1 109.50000 418.400000
1009 15787 7455 1 109.50000 418.400000
1009 15787 10464 1 109.50000 418.400000
5458 15787 7455 1 109.50000 418.400000
5458 15787 10464 1 109.50000 418.400000
7455 15787 10464 1 109.50000 418.400000
407 15788 408 1 109.50000 418.400000
407 15788 1352 1 109.50000 418.400000
407 15788 8278 1 109.50000 418.400000
408 15788 1352 1 109.50000 418.400000
408 15788 8278 1 109.50000 418.400000
1352 15788 8278 1 109.50000 418.400000
4070 15789 8182 1 109.50000 418.400000
4070 15789 8643 1 109.50000 418.400000
4070 15789 10465 1 109.50000 418.400000
8182 15789 8643 1 109.50000 418.400000
8182 15789 10465 1 109.50000 418.400000
8643 15789 10465 1 109.50000 418.400000
5522 15790 10466 1 109.50000 418.400000
5522 15790 10467 1 109.50000 418.400000
5522 15790 10741 1 109.50000 418.400000
10466 15790 10467 1 109.50000 418.400000
10466 15790 10741 1 109.50000 418.400000
10467 15790 10741 1 109.50000 418.400000
7942 15791 8582 1 109.50000 418.400000
7942 15791 10438 1 109.50000 418.400000
7942 15791 10468 1 109.50000 418.400000
8582 15791 10438 1 109.50000 418.400000
8582 15791 10468 1 109.50000 418.400000
10438 15791 10468 1 109.50000 418.400000
9346 15792 9532 1 109.50000 418.400000
9346 15792 9533 1 109.50000 418.400000
9346 15792 10469 1 109.50000 418.400000
9532 15792 9533 1 109.50000 418.400000
9532 15792 10469 1 109.50000 418.400000
9533 15792 10469 1 109.50000 418.400000
321 15793 3730 1 109.50000 418.400000
321 15793 4275 1 109.50000 418.400000
321 15793 10383 1 109.50000 418.400000
3730 15793 4275 1 109.50000 418.400000
3730 15793 10383 1 109.50000 418.400000
4275 15793 10383 1 109.50000 418.400000
2280 15794 6573 1 109.50000 418.400000
2280 15794 8418 1 109.50000 418.400000
2280 15794 10470 1 109.50000 418.400000
6573 15794 8418 1 109.50000 418.400000
6573 15794 10470 1 109.50000 418.400000
8418 15794 10470 1 109.50000 418.400000
1234 15795 5807 1 109.50000 418.400000
1234 15795 10471 1 109.50000 418.400000
1234 15795 10472 1 109.50000 418.400000
5807 15795 10471 1 109.50000 418.400000
5807 15795 10472 1 109.50000 418.400000
10471 15795 10472 1 109.50000 418.400000
281 15796 7161 1 109.50000 418.400000
281 15796 10473 1 109.50000 418.400000
281 15796 10474 1 109.50000 418.400000
7161 15796 10473 1 109.50000 418.400000
7161 15796 10474 1 109.50000 418.400000
10473 15796 10474 1 109.50000 418.400000
676 15797 1921 1 109.50000 418.400000
676 15797 10475 1 109.50000 418.400000
676 15797 11538 1 109.50000 418.400000
1921 15797 10475 1 109.50000 418.400000
1921 15797 11538 1 109.50000 418.400000
10475 15797 11538 1 109.50000 418.400000
1010 15798 2218 1 109.50000 418.400000
1010 15798 6465 1 109.50000 418.400000
1010 15798 10476 1 109.50000 418.400000
2218 15798 6465 1 109.50000 418.400000
2218 15798 10476 1 109.50000 418.400000
6465 15798 10476 1 109.50000 418.400000
6728 15799 8309 1 109.50000 418.400000
6728 15799 8770 1 109.50000 418.400000
6728 15799 9422 1 109.50000 418.400000
8309 15799 8770 1 109.50000 418.400000
8309 15799 9422 1 109.50000 418.400000
8770 15799 9422 1 109.50000 418.400000
3378 15800 5391 1 109.50000 418.400000
3378 15800 9089 1 109.50000 418.400000
3378 15800 10477 1 109.50000 418.400000
5391 15800 9089 1 109.50000 418.400000
5391 15800 10477 1 109.50000 418.400000
9089 15800 10477 1 109.50000 418.400000
991 15801 5441 1 109.50000 418.400000
991 15801 8962 1 109.50000 418.400000
991 15801 11548 1 109.50000 418.400000
5441 15801 8962 1 109.50000 418.400000
5441 15801 11548 1 109.50000 418.400000
8962 15801 11548 1 109.50000 418.400000
2213 15802 2727 1 109.50000 418.400000
2213 15802 8115 1 109.50000 418.400000
2213 15802 10478 1 109.50000 418.400000
2727 15802 8115 1 109.50000 418.400000
2727 15802 10478 1 109.50000 418.400000
8115 15802 10478 1 109.50000 418.400000
5543 15803 6382 1 109.50000 418.400000
5543 15803 9653 1 109.50000 418.400000
5543 15803 10479 1 109.50000 418.400000
6382 15803 9653 1 109.50000 418.400000
6382 15803 10479 1 109.50000 418.400000
9653 15803 10479 1 109.50000 418.400000
4451 15804 5832 1 109.50000 418.400000
4451 15804 6474 1 109.50000 418.400000
4451 15804 7854 1 109.50000 418.400000
5832 15804 6474 1 109.50000 418.400000
5832 15804 7854 1 109.50000 418.400000
6474 15804 7854 1 109.50000 418.400000
2543 15805 2638 1 109.50000 418.400000
2543 15805 8981 1 109.50000 418.400000
2543 15805 10072 1 109.50000 418.400000
2638 15805 8981 1 109.50000 418.400000
2638 15805 10072 1 109.50000 418.400000
8981 15805 10072 1 109.50000 418.400000
5791 15806 5792 1 109.50000 418.400000
5791 15806 5977 1 109.50000 418.400000
5791 15806 10220 1 109.50000 418.400000
5792 15806 5977 1 109.50000 418.400000
5792 15806 10220 1 109.50000 418.400000
5977 15806 10220 1 109.50000 418.400000
312 15807 9486 1 109.50000 418.400000
312 15807 10480 1 109.50000 418.400000
312 15807 10481 1 109.50000 418.400000
9486 15807 10480 1 109.50000 418.400000
9486 15807 10481 1 109.50000 418.400000
10480 15807 10481 1 109.50000 418.400000
1834 15808 3024 1 109.50000 418.400000
1834 15808 8442 1 109.50000 418.400000
1834 15808 10482 1 109.50000 418.400000
3024 15808 8442 1 109.50000 418.400000
3024 15808 10482 1 109.50000 418.400000
8442 15808 10482 1 109.50000 418.400000
2323 15809 6577 1 109.50000 418.400000
2323 15809 7918 1 109.50000 418.400000
2323 15809 10483 1 109.50000 418.400000
6577 15809 7918 1 109.50000 418.400000
6577 15809 10483 1 109.50000 418.400000
7918 15809 10483 1 109.50000 418.400000
1213 15810 2179 1 109.50000 418.400000
1213 15810 4972 1 109.50000 418.400000
1213 15810 10484 1 109.50000 418.400000
2179 15810 4972 1 109.50000 418.400000
2179 15810 10484 1 109.50000 418.400000
4972 15810 10484 1 109.50000 418.400000
6623 15811 9798 1 109.50000 418.400000
6623 15811 10407 1 109.50000 418.400000
6623 15811 10485 1 109.50000 418.400000
9798 15811 10407 1 109.50000 418.400000
9798 15811 10485 1 109.50000 418.400000
10407 15811 10485 1 109.50000 418.400000
7574 15812 8040 1 109.50000 418.400000
7574 15812 9946 1 109.50000 418.400000
7574 15812 10486 1 109.50000 418.400000
8040 15812 9946 1 109.50000 418.400000
8040 15812 10486 1 109.50000 418.400000
9946 15812 10486 1 109.50000 418.400000
4676 15813 4677 1 109.50000 418.400000
4676 15813 6975 1 109.50000 418.400000
4676 15813 8536 1 109.50000 418.400000
4677 15813 6975 1 109.50000 418.400000
4677 15813 8536 1 109.50000 418.400000
6975 15813 8536 1 109.50000 418.400000
1856 15814 8053 1 109.50000 418.400000
1856 15814 10487 1 109.50000 418.400000
1856 15814 10488 1 109.50000 418.400000
8053 15814 10487 1 109.50000 418.400000
8053 15814 10488 1 109.50000 418.400000
10487 15814 10488 1 109.50000 418.400000
2068 15815 4919 1 109.50000 418.400000
2068 15815 10489 1 109.50000 418.400000
2068 15815 10490 1 109.50000 418.400000
4919 15815 10489 1 109.50000 418.400000
4919 15815 10490 1 109.50000 418.400000
10489 15815 10490 1 109.50000 418.400000
3879 15816 7170 1 109.50000 418.400000
3879 15816 10491 1 109.50000 418.400000
3879 15816 11322 1 109.50000 418.400000
7170 15816 10491 1 109.50000 418.400000
7170 15816 11322 1 109.50000 418.400000
10491 15816 11322 1 109.50000 418.400000
9803 15817 10149 1 109.50000 418.400000
9803 15817 10492 1 109.50000 418.400000
9803 15817 11224 1 109.50000 418.400000
10149 15817 10492 1 109.50000 418.400000
10149 15817 11224 1 109.50000 418.400000
10492 15817 11224 1 109.50000 418.400000
5264 15818 5804 1 109.50000 418.400000
5264 15818 5826 1 109.50000 418.400000
5264 15818 9908 1 109.50000 418.400000
5804 15818 5826 1 109.50000 418.400000
5804 15818 9908 1 109.50000 418.400000
5826 15818 9908 1 109.50000 418.400000
5301 15819 7081 1 109.50000 418.400000
5301 15819 7306 1 109.50000 418.400000
5301 15819 10493 1 109.50000 418.400000
7081 15819 7306 1 109.50000 418.400000
7081 15819 10493 1 109.50000 418.400000
7306 15819 10493 1 109.50000 418.400000
1375 15820 4268 1 109.50000 418.400000
1375 15820 4314 1 109.50000 418.400000
1375 15820 6629 1 109.50000 418.400000
4268 15820 4314 1 109.50000 418.400000
4268 15820 6629 1 109.50000 418.400000
4314 15820 6629 1 109.50000 418.400000
6896 15821 6897 1 109.50000 418.400000
6896 15821 8546 1 109.50000 418.400000
6896 15821 9406 1 109.50000 418.400000
6897 15821 8546 1 109.50000 418.400000
6897 15821 9406 1 109.50000 418.400000
8546 15821 9406 1 109.50000 418.400000
7652 15822 9545 1 109.50000 418.400000
7652 15822 9838 1 109.50000 418.400000
7652 15822 10494 1 109.50000 418.400000
9545 15822 9838 1 109.50000 418.400000
9545 15822 10494 1 109.50000 418.400000
9838 15822 10494 1 109.50000 418.400000
6229 15823 9118 1 109.50000 418.400000
6229 15823 9119 1 109.50000 418.400000
6229 15823 10495 1 109.50000 418.400000
9118 15823 9119 1 109.50000 418.400000
9118 15823 10495 1 109.50000 418.400000
9119 15823 10495 1 109.50000 418.400000
3910 15824 8849 1 109.50000 418.400000
3910 15824 9763 1 109.50000 418.400000
3910 15824 10496 1 109.50000 418.400000
8849 15824 9763 1 109.50000 418.400000
8849 15824 10496 1 109.50000 418.400000
9763 15824 10496 1 109.50000 418.400000
3560 15825 8785 1 109.50000 418.400000
3560 15825 11413 1 109.50000 418.400000
3560 15825 11519 1 109.50000 418.400000
8785 15825 11413 1 109.50000 418.400000
8785 15825 11519 1 109.50000 418.400000
11413 15825 11519 1 109.50000 418.400000
1059 15826 6523 1 109.50000 418.400000
1059 15826 9526 1 109.50000 418.400000
1059 15826 10497 1 109.50000 418.400000
6523 15826 9526 1 109.50000 418.400000
6523 15826 10497 1 109.50000 418.400000
9526 15826 10497 1 109.50000 418.400000
921 15827 8669 1 109.50000 418.400000
921 15827 8758 1 109.50000 418.400000
921 15827 10498 1 109.50000 418.400000
8669 15827 8758 1 109.50000 418.400000
8669 15827 10498 1 109.50000 418.400000
8758 15827 10498 1 109.50000 418.400000
60 15828 7746 1 109.50000 418.400000
60 15828 10428 1 109.50000 418.400000
60 15828 10499 1 109.50000 418.400000
7746 15828 10428 1 109.50000 418.400000
7746 15828 10499 1 109.50000 418.400000
10428 15828 10499 1 109.50000 418.400000
4580 15829 6110 1 109.50000 418.400000
4580 15829 8265 1 109.50000 418.400000
4580 15829 10500 1 109.50000 418.400000
6110 15829 8265 1 109.50000 418.400000
6110 15829 10500 1 109.50000 418.400000
8265 15829 10500 1 109.50000 418.400000
880 15830 5678 1 109.50000 418.400000
880 15830 6347 1 109.50000 418.400000
880 15830 7992 1 109.50000 418.400000
5678 15830 6347 1 109.50000 418.400000
5678 15830 7992 1 109.50000 418.400000
6347 15830 7992 1 109.50000 418.400000
1115 15831 10150 1 109.50000 418.400000
1115 15831 10207 1 109.50000 418.400000
1115 15831 10501 1 109.50000 418.400000
10150 15831 10207 1 109.50000 418.400000
10150 15831 10501 1 109.50000 418.400000
10207 15831 10501 1 109.50000 418.400000
3967 15832 7502 1 109.50000 418.400000
3967 15832 8453 1 109.50000 418.400000
3967 15832 10289 1 109.50000 418.400000
7502 15832 8453 1 109.50000 418.400000
7502 15832 10289 1 109.50000 418.400000
8453 15832 10289 1 109.50000 418.400000
908 15833 1924 1 109.50000 418.400000
908 15833 1925 1 109.50000 418.400000
908 15833 3846 1 109.50000 418.400000
1924 15833 1925 1 109.50000 418.400000
1924 15833 3846 1 109.50000 418.400000
1925 15833 3846 1 109.50000 418.400000
5557 15834 8202 1 109.50000 418.400000
5557 15834 9729 1 109.50000 418.400000
5557 15834 9898 1 109.50000 418.400000
8202 15834 9729 1 109.50000 418.400000
8202 15834 9898 1 109.50000 418.400000
9729 15834 9898 1 109.50000 418.400000
1982 15835 6969 1 109.50000 418.400000
1982 15835 10502 1 109.50000 418.400000
1982 15835 10503 1 109.50000 418.400000
6969 15835 10502 1 109.50000 418.400000
6969 15835 10503 1 109.50000 418.400000
10502 15835 10503 1 109.50000 418.400000
3692 15836 7804 1 109.50000 418.400000
3692 15836 8027 1 109.50000 418.400000
3692 15836 10451 1 109.50000 418.400000
7804 15836 8027 1 109.50000 418.400000
7804 15836 10451 1 109.50000 418.400000
8027 15836 10451 1 109.50000 418.400000
2692 15837 5059 1 109.50000 418.400000
2692 15837 5061 1 109.50000 418.400000
2692 15837 10504 1 109.50000 418.400000
5059 15837 5061 1 109.50000 418.400000
5059 15837 10504 1 109.50000 418.400000
5061 15837 10504 1 109.50000 418.400000
384 15838 9948 1 109.50000 418.400000
384 15838 10505 1 109.50000 418.400000
384 15838 10506 1 109.50000 418.400000
9948 15838 10505 1 109.50000 418.400000
9948 15838 10506 1 109.50000 418.400000
10505 15838 10506 1 109.50000 418.400000
5306 15839 9550 1 109.50000 418.400000
5306 15839 10166 1 109.50000 418.400000
5306 15839 10507 1 109.50000 418.400000
9550 15839 10166 1 109.50000 418.400000
9550 15839 10507 1 109.50000 418.400000
10166 15839 10507 1 109.50000 418.400000
851 15840 1048 1 109.50000 418.400000
851 15840 7719 1 109.50000 418.400000
851 15840 10331 1 109.50000 418.400000
1048 15840 7719 1 109.50000 418.400000
1048 15840 10331 1 109.50000 418.400000
7719 15840 10331 1 109.50000 418.400000
1711 15841 1712 1 109.50000 418.400000
1711 15841 10508 1 109.50000 418.400000
1711 15841 11572 1 109.50000 418.400000
1712 15841 10508 1 109.50000 418.400000
1712 15841 11572 1 109.50000 418.400000
10508 15841 11572 1 109.50000 418.400000
2167 15842 3141 1 109.50000 418.400000
2167 15842 6090 1 109.50000 418.400000
2167 15842 6324 1 109.50000 418.400000
3141 15842 6090 1 109.50000 418.400000
3141 15842 6324 1 109.50000 418.400000
6090 15842 6324 1 109.50000 418.400000
10006 15843 10509 1 109.50000 418.400000
10006 15843 10510 1 109.50000 418.400000
10006 15843 10511 1 109.50000 418.400000
10509 15843 10510 1 109.50000 418.400000
10509 15843 10511 1 109.50000 418.400000
10510 15843 10511 1 109.50000 418.400000
916 15844 956 1 109.50000 418.400000
916 15844 6467 1 109.50000 418.400000
916 15844 9614 1 109.50000 418.400000
956 15844 6467 1 109.50000 418.400000
956 15844 9614 1 109.50000 418.400000
6467 15844 9614 1 109.50000 418.400000
3377 15845 4953 1 109.50000 418.400000
3377 15845 6929 1 109.50000 418.400000
3377 15845 10512 1 109.50000 418.400000
4953 15845 6929 1 109.50000 418.400000
4953 15845 10512 1 109.50000 418.400000
6929 15845 10512 1 109.50000 418.400000
1715 15846 7141 1 109.50000 418.400000
1715 15846 8493 1 109.50000 418.400000
1715 15846 11591 1 109.50000 418.400000
7141 15846 8493 1 109.50000 418.400000
7141 15846 11591 1 109.50000 418.400000
8493 15846 11591 1 109.50000 418.400000
190 15847 1003 1 109.50000 418.400000
190 15847 3612 1 109.50000 418.400000
190 15847 8408 1 109.50000 418.400000
1003 15847 3612 1 109.50000 418.400000
1003 15847 8408 1 109.50000 418.400000
3612 15847 8408 1 109.50000 418.400000
19 15848 4534 1 109.50000 418.400000
19 15848 9768 1 109.50000 418.400000
19 15848 11483 1 109.50000 418.400000
4534 15848 9768 1 109.50000 418.400000
4534 15848 11483 1 109.50000 418.400000
9768 15848 11483 1 109.50000 418.400000
2860 15849 8565 1 109.50000 418.400000
2860 15849 10515 1 109.50000 418.400000
2860 15849 10516 1 109.50000 418.400000
8565 15849 10515 1 109.50000 418.400000
8565 15849 10516 1 109.50000 418.400000
10515 15849 10516 1 109.50000 418.400000
522 15850 6758 1 109.50000 418.400000
522 15850 7316 1 109.50000 418.400000
522 15850 10517 1 109.50000 418.400000
6758 15850 7316 1 109.50000 418.400000
6758 15850 10517 1 109.50000 418.400000
7316 15850 10517 1 109.50000 418.400000
1033 15851 5554 1 109.50000 418.400000
1033 15851 6135 1 109.50000 418.400000
1033 15851 9179 1 109.50000 418.400000
5554 15851 6135 1 109.50000 418.400000
5554 15851 9179 1 109.50000 418.400000
6135 15851 9179 1 109.50000 418.400000
5824 15852 5825 1 109.50000 418.400000
5824 15852 5921 1 109.50000 418.400000
5824 15852 10519 1 109.50000 418.400000
5825 15852 5921 1 109.50000 418.400000
5825 15852 10519 1 109.50000 418.400000
5921 15852 10519 1 109.50000 418.400000
4642 15853 9312 1 109.50000 418.400000
4642 15853 9983 1 109.50000 418.400000
4642 15853 10520 1 109.50000 418.400000
9312 15853 9983 1 109.50000 418.400000
9312 15853 10520 1 109.50000 418.400000
9983 15853 10520 1 109.50000 418.400000
1138 15854 5613 1 109.50000 418.400000
1138 15854 5960 1 109.50000 418.400000
1138 15854 9657 1 109.50000 418.400000
5613 15854 5960 1 109.50000 418.400000
5613 15854 9657 1 109.50000 418.400000
5960 15854 9657 1 109.50000 418.400000
5520 15855 10398 1 109.50000 418.400000
5520 15855 10522 1 109.50000 418.400000
5520 15855 10523 1 109.50000 418.400000
10398 15855 10522 1 109.50000 418.400000
10398 15855 10523 1 109.50000 418.400000
10522 15855 10523 1 109.50000 418.400000
4798 15856 6333 1 109.50000 418.400000
4798 15856 8425 1 109.50000 418.400000
4798 15856 8839 1 109.50000 418.400000
6333 15856 8425 1 109.50000 418.400000
6333 15856 8839 1 109.50000 418.400000
8425 15856 8839 1 109.50000 418.400000
5658 15857 10447 1 109.50000 418.400000
5658 15857 10524 1 109.50000 418.400000
5658 15857 10525 1 109.50000 418.400000
10447 15857 10524 1 109.50000 418.400000
10447 15857 10525 1 109.50000 418.400000
10524 15857 10525 1 109.50000 418.400000
6771 15858 9040 1 109.50000 418.400000
6771 15858 9325 1 109.50000 418.400000
6771 15858 10526 1 109.50000 418.400000
9040 15858 9325 1 109.50000 418.400000
9040 15858 10526 1 109.50000 418.400000
9325 15858 10526 1 109.50000 418.400000
1418 15859 3305 1 109.50000 418.400000
1418 15859 3516 1 109.50000 418.400000
1418 15859 4147 1 109.50000 418.400000
3305 15859 3516 1 109.50000 418.400000
3305 15859 4147 1 109.50000 418.400000
3516 15859 4147 1 109.50000 418.400000
6612 15860 9076 1 109.50000 418.400000
6612 15860 10373 1 109.50000 418.400000
6612 15860 10527 1 109.50000 418.400000
9076 15860 10373 1 109.50000 418.400000
9076 15860 10527 1 109.50000 418.400000
10373 15860 10527 1 109.50000 418.400000
2353 15861 8421 1 109.50000 418.400000
2353 15861 8847 1 109.50000 418.400000
2353 15861 10528 1 109.50000 418.400000
8421 15861 8847 1 109.50000 418.400000
8421 15861 10528 1 109.50000 418.400000
8847 15861 10528 1 109.50000 418.400000
8436 15862 9330 1 109.50000 418.400000
8436 15862 10051 1 109.50000 418.400000
8436 15862 10171 1 109.50000 418.400000
9330 15862 10051 1 109.50000 418.400000
9330 15862 10171 1 109.50000 418.400000
10051 15862 10171 1 109.50000 418.400000
1906 15863 5364 1 109.50000 418.400000
1906 15863 10482 1 109.50000 418.400000
1906 15863 10529 1 109.50000 418.400000
5364 15863 10482 1 109.50000 418.400000
5364 15863 10529 1 109.50000 418.400000
10482 15863 10529 1 109.50000 418.400000
7042 15864 7431 1 109.50000 418.400000
7042 15864 7432 1 109.50000 418.400000
7042 15864 10530 1 109.50000 418.400000
7431 15864 7432 1 109.50000 418.400000
7431 15864 10530 1 109.50000 418.400000
7432 15864 10530 1 109.50000 418.400000
4589 15865 4590 1 109.50000 418.400000
4589 15865 4591 1 109.50000 418.400000
4589 15865 4592 1 109.50000 418.400000
4590 15865 4591 1 109.50000 418.400000
4590 15865 4592 1 109.50000 418.400000
4591 15865 4592 1 109.50000 418.400000
2050 15866 5022 1 109.50000 418.400000
2050 15866 9619 1 109.50000 418.400000
2050 15866 9988 1 109.50000 418.400000
5022 15866 9619 1 109.50000 418.400000
5022 15866 9988 1 109.50000 418.400000
9619 15866 9988 1 109.50000 418.400000
3107 15867 3108 1 109.50000 418.400000
3107 15867 8883 1 109.50000 418.400000
3107 15867 10533 1 109.50000 418.400000
3108 15867 8883 1 109.50000 418.400000
3108 15867 10533 1 109.50000 418.400000
8883 15867 10533 1 109.50000 418.400000
3916 15868 7272 1 109.50000 418.400000
3916 15868 10534 1 109.50000 418.400000
3916 15868 10535 1 109.50000 418.400000
7272 15868 10534 1 109.50000 418.400000
7272 15868 10535 1 109.50000 418.400000
10534 15868 10535 1 109.50000 418.400000
2295 15869 3121 1 109.50000 418.400000
2295 15869 4767 1 109.50000 418.400000
2295 15869 10536 1 109.50000 418.400000
3121 15869 4767 1 109.50000 418.400000
3121 15869 10536 1 109.50000 418.400000
4767 15869 10536 1 109.50000 418.400000
4099 15870 8229 1 109.50000 418.400000
4099 15870 9169 1 109.50000 418.400000
4099 15870 10537 1 109.50000 418.400000
8229 15870 9169 1 109.50000 418.400000
8229 15870 10537 1 109.50000 418.400000
9169 15870 10537 1 109.50000 418.400000
4248 15871 6373 1 109.50000 418.400000
4248 15871 9742 1 109.50000 418.400000
4248 15871 10538 1 109.50000 418.400000
6373 15871 9742 1 109.50000 418.400000
6373 15871 10538 1 109.50000 418.400000
9742 15871 10538 1 109.50000 418.400000
1825 15872 6002 1 109.50000 418.400000
1825 15872 9226 1 109.50000 418.400000
1825 15872 10539 1 109.50000 418.400000
6002 15872 9226 1 109.50000 418.400000
6002 15872 10539 1 109.50000 418.400000
9226 15872 10539 1 109.50000 418.400000
1267 15873 1846 1 109.50000 418.400000
1267 15873 8972 1 109.50000 418.400000
1267 15873 10540 1 109.50000 418.400000
1846 15873 8972 1 109.50000 418.400000
1846 15873 10540 1 109.50000 418.400000
8972 15873 10540 1 109.50000 418.400000
3280 15874 10304 1 109.50000 418.400000
3280 15874 10541 1 109.50000 418.400000
3280 15874 10542 1 109.50000 418.400000
10304 15874 10541 1 109.50000 418.400000
10304 15874 10542 1 109.50000 418.400000
10541 15874 10542 1 109.50000 418.400000
4471 15875 7494 1 109.50000 418.400000
4471 15875 8023 1 109.50000 418.400000
4471 15875 10543 1 109.50000 418.400000
7494 15875 8023 1 109.50000 418.400000
7494 15875 10543 1 109.50000 418.400000
8023 15875 10543 1 109.50000 418.400000
8313 15876 8315 1 109.50000 418.400000
8313 15876 10516 1 109.50000 418.400000
8313 15876 10544 1 109.50000 418.400000
8315 15876 10516 1 109.50000 418.400000
8315 15876 10544 1 109.50000 418.400000
10516 15876 10544 1 109.50000 418.400000
779 15877 9193 1 109.50000 418.400000
779 15877 11184 1 109.50000 418.400000
779 15877 11233 1 109.50000 418.400000
9193 15877 11184 1 109.50000 418.400000
9193 15877 11233 1 109.50000 418.400000
11184 15877 11233 1 109.50000 418.400000
7688 15878 9124 1 109.50000 418.400000
7688 15878 10032 1 109.50000 418.400000
7688 15878 10545 1 109.50000 418.400000
9124 15878 10032 1 109.50000 418.400000
9124 15878 10545 1 109.50000 418.400000
10032 15878 10545 1 109.50000 418.400000
4071 15879 4438 1 109.50000 418.400000
4071 15879 10546 1 109.50000 418.400000
4071 15879 10547 1 109.50000 418.400000
4438 15879 10546 1 109.50000 418.400000
4438 15879 10547 1 109.50000 418.400000
10546 15879 10547 1 109.50000 418.400000
2337 15880 2339 1 109.50000 418.400000
2337 15880 2340 1 109.50000 418.400000
2337 15880 10548 1 109.50000 418.400000
2339 15880 2340 1 109.50000 418.400000
2339 15880 10548 1 109.50000 418.400000
2340 15880 10548 1 109.50000 418.400000
31 15881 10549 1 109.50000 418.400000
31 15881 11194 1 109.50000 418.400000
31 15881 11288 1 109.50000 418.400000
10549 15881 11194 1 109.50000 418.400000
10549 15881 11288 1 109.50000 418.400000
11194 15881 11288 1 109.50000 418.400000
3375 15882 10550 1 109.50000 418.400000
3375 15882 10551 1 109.50000 418.400000
3375 15882 10552 1 109.50000 418.400000
10550 15882 10551 1 109.50000 418.400000
10550 15882 10552 1 109.50000 418.400000
10551 15882 10552 1 109.50000 418.400000
6628 15883 7326 1 109.50000 418.400000
6628 15883 10243 1 109.50000 418.400000
6628 15883 10252 1 109.50000 418.400000
7326 15883 10243 1 109.50000 418.400000
7326 15883 10252 1 109.50000 418.400000
10243 15883 10252 1 109.50000 418.400000
4820 15884 5515 1 109.50000 418.400000
4820 15884 9136 1 109.50000 418.400000
4820 15884 10553 1 109.50000 418.400000
5515 15884 9136 1 109.50000 418.400000
5515 15884 10553 1 109.50000 418.400000
9136 15884 10553 1 109.50000 418.400000
2194 15885 8668 1 109.50000 418.400000
2194 15885 10554 1 109.50000 418.400000
2194 15885 10555 1 109.50000 418.400000
8668 15885 10554 1 109.50000 418.400000
8668 15885 10555 1 109.50000 418.400000
10554 15885 10555 1 109.50000 418.400000
2544 15886 10556 1 109.50000 418.400000
2544 15886 10557 1 109.50000 418.400000
2544 15886 10558 1 109.50000 418.400000
10556 15886 10557 1 109.50000 418.400000
10556 15886 10558 1 109.50000 418.400000
10557 15886 10558 1 109.50000 418.400000
298 15887 8141 1 109.50000 418.400000
298 15887 10295 1 109.50000 418.400000
298 15887 10486 1 109.50000 418.400000
8141 15887 10295 1 109.50000 418.400000
8141 15887 10486 1 109.50000 418.400000
10295 15887 10486 1 109.50000 418.400000
3125 15888 9116 1 109.50000 418.400000
3125 15888 10380 1 109.50000 418.400000
3125 15888 10559 1 109.50000 418.400000
9116 15888 10380 1 109.50000 418.400000
9116 15888 10559 1 109.50000 418.400000
10380 15888 10559 1 109.50000 418.400000
3105 15889 10560 1 109.50000 418.400000
3105 15889 10561 1 109.50000 418.400000
3105 15889 11592 1 109.50000 418.400000
10560 15889 10561 1 109.50000 418.400000
10560 15889 11592 1 109.50000 418.400000
10561 15889 11592 1 109.50000 418.400000
7871 15890 10562 1 109.50000 418.400000
7871 15890 10563 1 109.50000 418.400000
7871 15890 10564 1 109.50000 418.400000
10562 15890 10563 1 109.50000 418.400000
10562 15890 10564 1 109.50000 418.400000
10563 15890 10564 1 109.50000 418.400000
1553 15891 6858 1 109.50000 418.400000
1553 15891 9887 1 109.50000 418.400000
1553 15891 10565 1 109.50000 418.400000
6858 15891 9887 1 109.50000 418.400000
6858 15891 10565 1 109.50000 418.400000
9887 15891 10565 1 109.50000 418.400000
4358 15892 7137 1 109.50000 418.400000
4358 15892 7817 1 109.50000 418.400000
4358 15892 10566 1 109.50000 418.400000
7137 15892 7817 1 109.50000 418.400000
7137 15892 10566 1 109.50000 418.400000
7817 15892 10566 1 109.50000 418.400000
2996 15893 4584 1 109.50000 418.400000
2996 15893 10567 1 109.50000 418.400000
2996 15893 11340 1 109.50000 418.400000
4584 15893 10567 1 109.50000 418.400000
4584 15893 11340 1 109.50000 418.400000
10567 15893 11340 1 109.50000 418.400000
1525 15894 8743 1 109.50000 418.400000
1525 15894 10233 1 109.50000 418.400000
1525 15894 10568 1 109.50000 418.400000
8743 15894 10233 1 109.50000 418.400000
8743 15894 10568 1 109.50000 418.400000
10233 15894 10568 1 109.50000 418.400000
1970 15895 3493 1 109.50000 418.400000
1970 15895 6263 1 109.50000 418.400000
1970 15895 11538 1 109.50000 418.400000
3493 15895 6263 1 109.50000 418.400000
3493 15895 11538 1 109.50000 418.400000
6263 15895 11538 1 109.50000 418.400000
6006 15896 9919 1 109.50000 418.400000
6006 15896 10569 1 109.50000 418.400000
6006 15896 10570 1 109.50000 418.400000
9919 15896 10569 1 109.50000 418.400000
9919 15896 10570 1 109.50000 418.400000
10569 15896 10570 1 109.50000 418.400000
514 15897 3976 1 109.50000 418.400000
514 15897 11218 1 109.50000 418.400000
514 15897 11401 1 109.50000 418.400000
3976 15897 11218 1 109.50000 418.400000
3976 15897 11401 1 109.50000 418.400000
11218 15897 11401 1 109.50000 418.400000
3924 15898 7261 1 109.50000 418.400000
3924 15898 9703 1 109.50000 418.400000
3924 15898 10571 1 109.50000 418.400000
7261 15898 9703 1 109.50000 418.400000
7261 15898 10571 1 109.50000 418.400000
9703 15898 10571 1 109.50000 418.400000
5174 15899 8482 1 109.50000 418.400000
5174 15899 9031 1 109.50000 418.400000
5174 15899 10558 1 109.50000 418.400000
8482 15899 9031 1 109.50000 418.400000
8482 15899 10558 1 109.50000 418.400000
9031 15899 10558 1 109.50000 418.400000
534 15900 4768 1 109.50000 418.400000
534 15900 6171 1 109.50000 418.400000
534 15900 10009 1 109.50000 418.400000
4768 15900 6171 1 109.50000 418.400000
4768 15900 10009 1 109.50000 418.400000
6171 15900 10009 1 109.50000 418.400000
3740 15901 6089 1 109.50000 418.400000
3740 15901 10572 1 109.50000 418.400000
3740 15901 11457 1 109.50000 418.400000
6089 15901 10572 1 109.50000 418.400000
6089 15901 11457 1 109.50000 418.400000
10572 15901 11457 1 109.50000 418.400000
2169 15902 6712 1 109.50000 418.400000
2169 15902 8060 1 109.50000 418.400000
2169 15902 10573 1 109.50000 418.400000
6712 15902 8060 1 109.50000 418.400000
6712 15902 10573 1 109.50000 418.400000
8060 15902 10573 1 109.50000 418.400000
4666 15903 9753 1 109.50000 418.400000
4666 15903 10506 1 109.50000 418.400000
4666 15903 10574 1 109.50000 418.400000
9753 15903 10506 1 109.50000 418.400000
9753 15903 10574 1 109.50000 418.400000
10506 15903 10574 1 109.50000 418.400000
9303 15904 10575 1 109.50000 418.400000
9303 15904 10576 1 109.50000 418.400000
9303 15904 10577 1 109.50000 418.400000
10575 15904 10576 1 109.50000 418.400000
10575 15904 10577 1 109.50000 418.400000
10576 15904 10577 1 109.50000 418.400000
1358 15905 2035 1 109.50000 418.400000
1358 15905 3304 1 109.50000 418.400000
1358 15905 5865 1 109.50000 418.400000
2035 15905 3304 1 109.50000 418.400000
2035 15905 5865 1 109.50000 418.400000
3304 15905 5865 1 109.50000 418.400000
1350 15906 1352 1 109.50000 418.400000
1350 15906 9334 1 109.50000 418.400000
1350 15906 10578 1 109.50000 418.400000
1352 15906 9334 1 109.50000 418.400000
1352 15906 10578 1 109.50000 418.400000
9334 15906 10578 1 109.50000 418.400000
498 15907 4909 1 109.50000 418.400000
498 15907 8118 1 109.50000 418.400000
498 15907 9495 1 109.50000 418.400000
4909 15907 8118 1 109.50000 418.400000
4909 15907 9495 1 109.50000 418.400000
8118 15907 9495 1 109.50000 418.400000
1860 15908 8059 1 109.50000 418.400000
1860 15908 10579 1 109.50000 418.400000
1860 15908 10580 1 109.50000 418.400000
8059 15908 10579 1 109.50000 418.400000
8059 15908 10580 1 109.50000 418.400000
10579 15908 10580 1 109.50000 418.400000
5467 15909 10581 1 109.50000 418.400000
5467 15909 10582 1 109.50000 418.400000
5467 15909 11501 1 109.50000 418.400000
10581 15909 10582 1 109.50000 418.400000
10581 15909 11501 1 109.50000 418.400000
10582 15909 11501 1 109.50000 418.400000
749 15910 7519 1 109.50000 418.400000
749 15910 9308 1 109.50000 418.400000
749 15910 10173 1 109.50000 418.400000
7519 15910 9308 1 109.50000 418.400000
7519 15910 10173 1 109.50000 418.400000
9308 15910 10173 1 109.50000 418.400000
827 15911 3336 1 109.50000 418.400000
827 15911 10314 1 109.50000 418.400000
827 15911 10583 1 109.50000 418.400000
3336 15911 10314 1 109.50000 418.400000
3336 15911 10583 1 109.50000 418.400000
10314 15911 10583 1 109.50000 418.400000
1513 15912 10262 1 109.50000 418.400000
1513 15912 10584 1 109.50000 418.400000
1513 15912 10585 1 109.50000 418.400000
10262 15912 10584 1 109.50000 418.400000
10262 15912 10585 1 109.50000 418.400000
10584 15912 10585 1 109.50000 418.400000
8249 15913 9072 1 109.50000 418.400000
8249 15913 10316 1 109.50000 418.400000
8249 15913 10586 1 109.50000 418.400000
9072 15913 10316 1 109.50000 418.400000
9072 15913 10586 1 109.50000 418.400000
10316 15913 10586 1 109.50000 418.400000
4110 15914 4812 1 109.50000 418.400000
4110 15914 9873 1 109.50000 418.400000
4110 15914 10588 1 109.50000 418.400000
4812 15914 9873 1 109.50000 418.400000
4812 15914 10588 1 109.50000 418.400000
9873 15914 10588 1 109.50000 418.400000
3526 15915 4610 1 109.50000 418.400000
3526 15915 6491 1 109.50000 418.400000
3526 15915 9551 1 109.50000 418.400000
4610 15915 6491 1 109.50000 418.400000
4610 15915 9551 1 109.50000 418.400000
6491 15915 9551 1 109.50000 418.400000
884 15916 5647 1 109.50000 418.400000
884 15916 8128 1 109.50000 418.400000
884 15916 8348 1 109.50000 418.400000
5647 15916 8128 1 109.50000 418.400000
5647 15916 8348 1 109.50000 418.400000
8128 15916 8348 1 109.50000 418.400000
636 15917 4170 1 109.50000 418.400000
636 15917 8775 1 109.50000 418.400000
636 15917 10589 1 109.50000 418.400000
4170 15917 8775 1 109.50000 418.400000
4170 15917 10589 1 109.50000 418.400000
8775 15917 10589 1 109.50000 418.400000
2568 15918 4033 1 109.50000 418.400000
2568 15918 7493 1 109.50000 418.400000
2568 15918 11482 1 109.50000 418.400000
4033 15918 7493 1 109.50000 418.400000
4033 15918 11482 1 109.50000 418.400000
7493 15918 11482 1 109.50000 418.400000
794 15919 7801 1 109.50000 418.400000
794 15919 8113 1 109.50000 418.400000
794 15919 10590 1 109.50000 418.400000
7801 15919 8113 1 109.50000 418.400000
7801 15919 10590 1 109.50000 418.400000
8113 15919 10590 1 109.50000 418.400000
1184 15920 3868 1 109.50000 418.400000
1184 15920 4616 1 109.50000 418.400000
1184 15920 8197 1 109.50000 418.400000
3868 15920 4616 1 109.50000 418.400000
3868 15920 8197 1 109.50000 418.400000
4616 15920 8197 1 109.50000 418.400000
5991 15921 10515 1 109.50000 418.400000
5991 15921 10591 1 109.50000 418.400000
5991 15921 11527 1 109.50000 418.400000
10515 15921 10591 1 109.50000 418.400000
10515 15921 11527 1 109.50000 418.400000
10591 15921 11527 1 109.50000 418.400000
620 15922 10592 1 109.50000 418.400000
620 15922 10593 1 109.50000 418.400000
620 15922 11474 1 109.50000 418.400000
10592 15922 10593 1 109.50000 418.400000
10592 15922 11474 1 109.50000 418.400000
10593 15922 11474 1 109.50000 418.400000
4348 15923 6540 1 109.50000 418.400000
4348 15923 8165 1 109.50000 418.400000
4348 15923 10594 1 109.50000 418.400000
6540 15923 8165 1 109.50000 418.400000
6540 15923 10594 1 109.50000 418.400000
8165 15923 10594 1 109.50000 418.400000
1140 15924 5803 1 109.50000 418.400000
1140 15924 9840 1 109.50000 418.400000
1140 15924 10595 1 109.50000 418.400000
5803 15924 9840 1 109.50000 418.400000
5803 15924 10595 1 109.50000 418.400000
9840 15924 10595 1 109.50000 418.400000
8329 15925 9014 1 109.50000 418.400000
8329 15925 10530 1 109.50000 418.400000
8329 15925 10596 1 109.50000 418.400000
9014 15925 10530 1 109.50000 418.400000
9014 15925 10596 1 109.50000 418.400000
10530 15925 10596 1 109.50000 418.400000
3881 15926 4476 1 109.50000 418.400000
3881 15926 10508 1 109.50000 418.400000
3881 15926 10597 1 109.50000 418.400000
4476 15926 10508 1 109.50000 418.400000
4476 15926 10597 1 109.50000 418.400000
10508 15926 10597 1 109.50000 418.400000
5108 15927 7532 1 109.50000 418.400000
5108 15927 10478 1 109.50000 418.400000
5108 15927 10598 1 109.50000 418.400000
7532 15927 10478 1 109.50000 418.400000
7532 15927 10598 1 109.50000 418.400000
10478 15927 10598 1 109.50000 418.400000
1408 15928 3486 1 109.50000 418.400000
1408 15928 7430 1 109.50000 418.400000
1408 15928 10599 1 109.50000 418.400000
3486 15928 7430 1 109.50000 418.400000
3486 15928 10599 1 109.50000 418.400000
7430 15928 10599 1 109.50000 418.400000
2478 15929 4142 1 109.50000 418.400000
2478 15929 10600 1 109.50000 418.400000
2478 15929 10601 1 109.50000 418.400000
4142 15929 10600 1 109.50000 418.400000
4142 15929 10601 1 109.50000 418.400000
10600 15929 10601 1 109.50000 418.400000
1971 15930 5428 1 109.50000 418.400000
1971 15930 10312 1 109.50000 418.400000
1971 15930 11448 1 109.50000 418.400000
5428 15930 10312 1 109.50000 418.400000
5428 15930 11448 1 109.50000 418.400000
10312 15930 11448 1 109.50000 418.400000
3183 15931 6937 1 109.50000 418.400000
3183 15931 8350 1 109.50000 418.400000
3183 15931 10566 1 109.50000 418.400000
6937 15931 8350 1 109.50000 418.400000
6937 15931 10566 1 109.50000 418.400000
8350 15931 10566 1 109.50000 418.400000
1748 15932 6738 1 109.50000 418.400000
1748 15932 6981 1 109.50000 418.400000
1748 15932 9900 1 109.50000 418.400000
6738 15932 6981 1 109.50000 418.400000
6738 15932 9900 1 109.50000 418.400000
6981 15932 9900 1 109.50000 418.400000
5461 15933 8471 1 109.50000 418.400000
5461 15933 9234 1 109.50000 418.400000
5461 15933 10602 1 109.50000 418.400000
8471 15933 9234 1 109.50000 418.400000
8471 15933 10602 1 109.50000 418.400000
9234 15933 10602 1 109.50000 418.400000
6938 15934 10068 1 109.50000 418.400000
6938 15934 10603 1 109.50000 418.400000
6938 15934 10604 1 109.50000 418.400000
10068 15934 10603 1 109.50000 418.400000
10068 15934 10604 1 109.50000 418.400000
10603 15934 10604 1 109.50000 418.400000
6763 15935 6773 1 109.50000 418.400000
6763 15935 9970 1 109.50000 418.400000
6763 15935 10605 1 109.50000 418.400000
6773 15935 9970 1 109.50000 418.400000
6773 15935 10605 1 109.50000 418.400000
9970 15935 10605 1 109.50000 418.400000
4524 15936 8510 1 109.50000 418.400000
4524 15936 8959 1 109.50000 418.400000
4524 15936 10606 1 109.50000 418.400000
8510 15936 8959 1 109.50000 418.400000
8510 15936 10606 1 109.50000 418.400000
8959 15936 10606 1 109.50000 418.400000
3946 15937 4479 1 109.50000 418.400000
3946 15937 10607 1 109.50000 418.400000
3946 15937 11550 1 109.50000 418.400000
4479 15937 10607 1 109.50000 418.400000
4479 15937 11550 1 109.50000 418.400000
10607 15937 11550 1 109.50000 418.400000
4351 15938 4669 1 109.50000 418.400000
4351 15938 7078 1 109.50000 418.400000
4351 15938 7337 1 109.50000 418.400000
4669 15938 7078 1 109.50000 418.400000
4669 15938 7337 1 109.50000 418.400000
7078 15938 7337 1 109.50000 418.400000
3727 15939 9679 1 109.50000 418.400000
3727 15939 9751 1 109.50000 418.400000
3727 15939 11484 1 109.50000 418.400000
9679 15939 9751 1 109.50000 418.400000
9679 15939 11484 1 109.50000 418.400000
9751 15939 11484 1 109.50000 418.400000
2839 15940 9765 1 109.50000 418.400000
2839 15940 11224 1 109.50000 418.400000
2839 15940 11609 1 109.50000 418.400000
9765 15940 11224 1 109.50000 418.400000
9765 15940 11609 1 109.50000 418.400000
11224 15940 11609 1 109.50000 418.400000
326 15941 2174 1 109.50000 418.400000
326 15941 8260 1 109.50000 418.400000
326 15941 9627 1 109.50000 418.400000
2174 15941 8260 1 109.50000 418.400000
2174 15941 9627 1 109.50000 418.400000
8260 15941 9627 1 109.50000 418.400000
3970 15942 7312 1 109.50000 418.400000
3970 15942 10608 1 109.50000 418.400000
3970 15942 10609 1 109.50000 418.400000
7312 15942 10608 1 109.50000 418.400000
7312 15942 10609 1 109.50000 418.400000
10608 15942 10609 1 109.50000 418.400000
8354 15943 10591 1 109.50000 418.400000
8354 15943 10610 1 109.50000 418.400000
8354 15943 10611 1 109.50000 418.400000
10591 15943 10610 1 109.50000 418.400000
10591 15943 10611 1 109.50000 418.400000
10610 15943 10611 1 109.50000 418.400000
6134 15944 7281 1 109.50000 418.400000
6134 15944 7282 1 109.50000 418.400000
6134 15944 8964 1 109.50000 418.400000
7281 15944 7282 1 109.50000 418.400000
7281 15944 8964 1 109.50000 418.400000
7282 15944 8964 1 109.50000 418.400000
6596 15945 10585 1 109.50000 418.400000
6596 15945 10612 1 109.50000 418.400000
6596 15945 10613 1 109.50000 418.400000
10585 15945 10612 1 109.50000 418.400000
10585 15945 10613 1 109.50000 418.400000
10612 15945 10613 1 109.50000 418.400000
575 15946 6299 1 109.50000 418.400000
575 15946 8859 1 109.50000 418.400000
575 15946 10251 1 109.50000 418.400000
6299 15946 8859 1 109.50000 418.400000
6299 15946 10251 1 109.50000 418.400000
8859 15946 10251 1 109.50000 418.400000
1598 15947 7689 1 109.50000 418.400000
1598 15947 10257 1 109.50000 418.400000
1598 15947 10614 1 109.50000 418.400000
7689 15947 10257 1 109.50000 418.400000
7689 15947 10614 1 109.50000 418.400000
10257 15947 10614 1 109.50000 418.400000
4043 15948 9909 1 109.50000 418.400000
4043 15948 10382 1 109.50000 418.400000
4043 15948 10519 1 109.50000 418.400000
9909 15948 10382 1 109.50000 418.400000
9909 15948 10519 1 109.50000 418.400000
10382 15948 10519 1 109.50000 418.400000
586 15949 3442 1 109.50000 418.400000
586 15949 7274 1 109.50000 418.400000
586 15949 10615 1 109.50000 418.400000
3442 15949 7274 1 109.50000 418.400000
3442 15949 10615 1 109.50000 418.400000
7274 15949 10615 1 109.50000 418.400000
4122 15950 6022 1 109.50000 418.400000
4122 15950 8533 1 109.50000 418.400000
4122 15950 8951 1 109.50000 418.400000
6022 15950 8533 1 109.50000 418.400000
6022 15950 8951 1 109.50000 418.400000
8533 15950 8951 1 109.50000 418.400000
90 15951 3380 1 109.50000 418.400000
90 15951 5856 1 109.50000 418.400000
90 15951 11187 1 109.50000 418.400000
3380 15951 5856 1 109.50000 418.400000
3380 15951 11187 1 109.50000 418.400000
5856 15951 11187 1 109.50000 418.400000
627 15952 3898 1 109.50000 418.400000
627 15952 10323 1 109.50000 418.400000
627 15952 10616 1 109.50000 418.400000
3898 15952 10323 1 109.50000 418.400000
3898 15952 10616 1 109.50000 418.400000
10323 15952 10616 1 109.50000 418.400000
910 15953 4273 1 109.50000 418.400000
910 15953 10617 1 109.50000 418.400000
910 15953 10618 1 109.50000 418.400000
4273 15953 10617 1 109.50000 418.400000
4273 15953 10618 1 109.50000 418.400000
10617 15953 10618 1 109.50000 418.400000
1537 15954 3582 1 109.50000 418.400000
1537 15954 10430 1 109.50000 418.400000
1537 15954 10619 1 109.50000 418.400000
3582 15954 10430 1 109.50000 418.400000
3582 15954 10619 1 109.50000 418.400000
10430 15954 10619 1 109.50000 418.400000
92 15955 814 1 109.50000 418.400000
92 15955 6854 1 109.50000 418.400000
92 15955 11350 1 109.50000 418.400000
814 15955 6854 1 109.50000 418.400000
814 15955 11350 1 109.50000 418.400000
6854 15955 11350 1 109.50000 418.400000
7172 15956 7521 1 109.50000 418.400000
7172 15956 7522 1 109.50000 418.400000
7172 15956 8953 1 109.50000 418.400000
7521 15956 7522 1 109.50000 418.400000
7521 15956 8953 1 109.50000 418.400000
7522 15956 8953 1 109.50000 418.400000
2282 15957 6762 1 109.50000 418.400000
2282 15957 6763 1 109.50000 418.400000
2282 15957 10526 1 109.50000 418.400000
6762 15957 6763 1 109.50000 418.400000
6762 15957 10526 1 109.50000 418.400000
6763 15957 10526 1 109.50000 418.400000
4282 15958 9442 1 109.50000 418.400000
4282 15958 10620 1 109.50000 418.400000
4282 15958 10621 1 109.50000 418.400000
9442 15958 10620 1 109.50000 418.400000
9442 15958 10621 1 109.50000 418.400000
10620 15958 10621 1 109.50000 418.400000
2837 15959 6315 1 109.50000 418.400000
2837 15959 10008 1 109.50000 418.400000
2837 15959 10622 1 109.50000 418.400000
6315 15959 10008 1 109.50000 418.400000
6315 15959 10622 1 109.50000 418.400000
10008 15959 10622 1 109.50000 418.400000
10188 15960 10623 1 109.50000 418.400000
10188 15960 10624 1 109.50000 418.400000
10188 15960 10647 1 109.50000 418.400000
10623 15960 10624 1 109.50000 418.400000
10623 15960 10647 1 109.50000 418.400000
10624 15960 10647 1 109.50000 418.400000
8082 15961 8749 1 109.50000 418.400000
8082 15961 10147 1 109.50000 418.400000
8082 15961 10627 1 109.50000 418.400000
8749 15961 10147 1 109.50000 418.400000
8749 15961 10627 1 109.50000 418.400000
10147 15961 10627 1 109.50000 418.400000
5231 15962 5233 1 109.50000 418.400000
5231 15962 10629 1 109.50000 418.400000
5231 15962 10630 1 109.50000 418.400000
5233 15962 10629 1 109.50000 418.400000
5233 15962 10630 1 109.50000 418.400000
10629 15962 10630 1 109.50000 418.400000
336 15963 337 1 109.50000 418.400000
336 15963 339 1 109.50000 418.400000
336 15963 10631 1 109.50000 418.400000
337 15963 339 1 109.50000 418.400000
337 15963 10631 1 109.50000 418.400000
339 15963 10631 1 109.50000 418.400000
2699 15964 10076 1 109.50000 418.400000
2699 15964 10139 1 109.50000 418.400000
2699 15964 11403 1 109.50000 418.400000
10076 15964 10139 1 109.50000 418.400000
10076 15964 11403 1 109.50000 418.400000
10139 15964 11403 1 109.50000 418.400000
3277 15965 4188 1 109.50000 418.400000
3277 15965 7117 1 109.50000 418.400000
3277 15965 9737 1 109.50000 418.400000
4188 15965 7117 1 109.50000 418.400000
4188 15965 9737 1 109.50000 418.400000
7117 15965 9737 1 109.50000 418.400000
602 15966 716 1 109.50000 418.400000
602 15966 717 1 109.50000 418.400000
602 15966 9198 1 109.50000 418.400000
716 15966 717 1 109.50000 418.400000
716 15966 9198 1 109.50000 418.400000
717 15966 9198 1 109.50000 418.400000
2418 15967 6080 1 109.50000 418.400000
2418 15967 10432 1 109.50000 418.400000
2418 15967 10632 1 109.50000 418.400000
6080 15967 10432 1 109.50000 418.400000
6080 15967 10632 1 109.50000 418.400000
10432 15967 10632 1 109.50000 418.400000
387 15968 6430 1 109.50000 418.400000
387 15968 10142 1 109.50000 418.400000
387 15968 10633 1 109.50000 418.400000
6430 15968 10142 1 109.50000 418.400000
6430 15968 10633 1 109.50000 418.400000
10142 15968 10633 1 109.50000 418.400000
3229 15969 8247 1 109.50000 418.400000
3229 15969 8301 1 109.50000 418.400000
3229 15969 10121 1 109.50000 418.400000
8247 15969 8301 1 109.50000 418.400000
8247 15969 10121 1 109.50000 418.400000
8301 15969 10121 1 109.50000 418.400000
1512 15970 10342 1 109.50000 418.400000
1512 15970 10627 1 109.50000 418.400000
1512 15970 10634 1 109.50000 418.400000
10342 15970 10627 1 109.50000 418.400000
10342 15970 10634 1 109.50000 418.400000
10627 15970 10634 1 109.50000 418.400000
1061 15971 2228 1 109.50000 418.400000
1061 15971 3426 1 109.50000 418.400000
1061 15971 7005 1 109.50000 418.400000
2228 15971 3426 1 109.50000 418.400000
2228 15971 7005 1 109.50000 418.400000
3426 15971 7005 1 109.50000 418.400000
4566 15972 10131 1 109.50000 418.400000
4566 15972 10635 1 109.50000 418.400000
4566 15972 10636 1 109.50000 418.400000
10131 15972 10635 1 109.50000 418.400000
10131 15972 10636 1 109.50000 418.400000
10635 15972 10636 1 109.50000 418.400000
6153 15973 7610 1 109.50000 418.400000
6153 15973 8341 1 109.50000 418.400000
6153 15973 10485 1 109.50000 418.400000
7610 15973 8341 1 109.50000 418.400000
7610 15973 10485 1 109.50000 418.400000
8341 15973 10485 1 109.50000 418.400000
1332 15974 7959 1 109.50000 418.400000
1332 15974 9628 1 109.50000 418.400000
1332 15974 10637 1 109.50000 418.400000
7959 15974 9628 1 109.50000 418.400000
7959 15974 10637 1 109.50000 418.400000
9628 15974 10637 1 109.50000 418.400000
4582 15975 4619 1 109.50000 418.400000
4582 15975 6934 1 109.50000 418.400000
4582 15975 10638 1 109.50000 418.400000
4619 15975 6934 1 109.50000 418.400000
4619 15975 10638 1 109.50000 418.400000
6934 15975 10638 1 109.50000 418.400000
10639 15976 10640 1 109.50000 418.400000
10639 15976 10641 1 109.50000 418.400000
10639 15976 10642 1 109.50000 418.400000
10640 15976 10641 1 109.50000 418.400000
10640 15976 10642 1 109.50000 418.400000
10641 15976 10642 1 109.50000 418.400000
2352 15977 6169 1 109.50000 418.400000
2352 15977 9994 1 109.50000 418.400000
2352 15977 10643 1 109.50000 418.400000
6169 15977 9994 1 109.50000 418.400000
6169 15977 10643 1 109.50000 418.400000
9994 15977 10643 1 109.50000 418.400000
1487 15978 8677 1 109.50000 418.400000
1487 15978 9791 1 109.50000 418.400000
1487 15978 10644 1 109.50000 418.400000
8677 15978 9791 1 109.50000 418.400000
8677 15978 10644 1 109.50000 418.400000
9791 15978 10644 1 109.50000 418.400000
4749 15979 8505 1 109.50000 418.400000
4749 15979 8935 1 109.50000 418.400000
4749 15979 10361 1 109.50000 418.400000
8505 15979 8935 1 109.50000 418.400000
8505 15979 10361 1 109.50000 418.400000
8935 15979 10361 1 109.50000 418.400000
3552 15980 4699 1 109.50000 418.400000
3552 15980 6692 1 109.50000 418.400000
3552 15980 10552 1 109.50000 418.400000
4699 15980 6692 1 109.50000 418.400000
4699 15980 10552 1 109.50000 418.400000
6692 15980 10552 1 109.50000 418.400000
4246 15981 4486 1 109.50000 418.400000
4246 15981 10645 1 109.50000 418.400000
4246 15981 10646 1 109.50000 418.400000
4486 15981 10645 1 109.50000 418.400000
4486 15981 10646 1 109.50000 418.400000
10645 15981 10646 1 109.50000 418.400000
6830 15982 8292 1 109.50000 418.400000
6830 15982 9759 1 109.50000 418.400000
6830 15982 10647 1 109.50000 418.400000
8292 15982 9759 1 109.50000 418.400000
8292 15982 10647 1 109.50000 418.400000
9759 15982 10647 1 109.50000 418.400000
3726 15983 6710 1 109.50000 418.400000
3726 15983 9077 1 109.50000 418.400000
3726 15983 10648 1 109.50000 418.400000
6710 15983 9077 1 109.50000 418.400000
6710 15983 10648 1 109.50000 418.400000
9077 15983 10648 1 109.50000 418.400000
2588 15984 5888 1 109.50000 418.400000
2588 15984 10276 1 109.50000 418.400000
2588 15984 10649 1 109.50000 418.400000
5888 15984 10276 1 109.50000 418.400000
5888 15984 10649 1 109.50000 418.400000
10276 15984 10649 1 109.50000 418.400000
4917 15985 5769 1 109.50000 418.400000
4917 15985 7647 1 109.50000 418.400000
4917 15985 10650 1 109.50000 418.400000
5769 15985 7647 1 109.50000 418.400000
5769 15985 10650 1 109.50000 418.400000
7647 15985 10650 1 109.50000 418.400000
4439 15986 6909 1 109.50000 418.400000
4439 15986 9574 1 109.50000 418.400000
4439 15986 11165 1 109.50000 418.400000
6909 15986 9574 1 109.50000 418.400000
6909 15986 11165 1 109.50000 418.400000
9574 15986 11165 1 109.50000 418.400000
5539 15987 5724 1 109.50000 418.400000
5539 15987 10651 1 109.50000 418.400000
5539 15987 10652 1 109.50000 418.400000
5724 15987 10651 1 109.50000 418.400000
5724 15987 10652 1 109.50000 418.400000
10651 15987 10652 1 109.50000 418.400000
218 15988 3678 1 109.50000 418.400000
218 15988 7065 1 109.50000 418.400000
218 15988 10653 1 109.50000 418.400000
3678 15988 7065 1 109.50000 418.400000
3678 15988 10653 1 109.50000 418.400000
7065 15988 10653 1 109.50000 418.400000
4897 15989 9483 1 109.50000 418.400000
4897 15989 10604 1 109.50000 418.400000
4897 15989 10654 1 109.50000 418.400000
9483 15989 10604 1 109.50000 418.400000
9483 15989 10654 1 109.50000 418.400000
10604 15989 10654 1 109.50000 418.400000
2765 15990 10655 1 109.50000 418.400000
2765 15990 10656 1 109.50000 418.400000
2765 15990 10657 1 109.50000 418.400000
10655 15990 10656 1 109.50000 418.400000
10655 15990 10657 1 109.50000 418.400000
10656 15990 10657 1 109.50000 418.400000
5128 15991 7171 1 109.50000 418.400000
5128 15991 10538 1 109.50000 418.400000
5128 15991 10658 1 109.50000 418.400000
7171 15991 10538 1 109.50000 418.400000
7171 15991 10658 1 109.50000 418.400000
10538 15991 10658 1 109.50000 418.400000
97 15992 932 1 109.50000 418.400000
97 15992 5185 1 109.50000 418.400000
97 15992 8705 1 109.50000 418.400000
932 15992 5185 1 109.50000 418.400000
932 15992 8705 1 109.50000 418.400000
5185 15992 8705 1 109.50000 418.400000
5497 15993 9305 1 109.50000 418.400000
5497 15993 10035 1 109.50000 418.400000
5497 15993 10540 1 109.50000 418.400000
9305 15993 10035 1 109.50000 418.400000
9305 15993 10540 1 109.50000 418.400000
10035 15993 10540 1 109.50000 418.400000
2812 15994 7344 1 109.50000 418.400000
2812 15994 8592 1 109.50000 418.400000
2812 15994 10659 1 109.50000 418.400000
7344 15994 8592 1 109.50000 418.400000
7344 15994 10659 1 109.50000 418.400000
8592 15994 10659 1 109.50000 418.400000
907 15995 10014 1 109.50000 418.400000
907 15995 10660 1 109.50000 418.400000
907 15995 10661 1 109.50000 418.400000
10014 15995 10660 1 109.50000 418.400000
10014 15995 10661 1 109.50000 418.400000
10660 15995 10661 1 109.50000 418.400000
1029 15996 7636 1 109.50000 418.400000
1029 15996 10586 1 109.50000 418.400000
1029 15996 10662 1 109.50000 418.400000
7636 15996 10586 1 109.50000 418.400000
7636 15996 10662 1 109.50000 418.400000
10586 15996 10662 1 109.50000 418.400000
9028 15997 9867 1 109.50000 418.400000
9028 15997 10477 1 109.50000 418.400000
9028 15997 10663 1 109.50000 418.400000
9867 15997 10477 1 109.50000 418.400000
9867 15997 10663 1 109.50000 418.400000
10477 15997 10663 1 109.50000 418.400000
7630 15998 9929 1 109.50000 418.400000
7630 15998 10328 1 109.50000 418.400000
7630 15998 10664 1 109.50000 418.400000
9929 15998 10328 1 109.50000 418.400000
9929 15998 10664 1 109.50000 418.400000
10328 15998 10664 1 109.50000 418.400000
3258 15999 9883 1 109.50000 418.400000
3258 15999 10522 1 109.50000 418.400000
3258 15999 10665 1 109.50000 418.400000
9883 15999 10522 1 109.50000 418.400000
9883 15999 10665 1 109.50000 418.400000
10522 15999 10665 1 109.50000 418.400000
1130 16000 1483 1 109.50000 418.400000
1130 16000 7520 1 109.50000 418.400000
1130 16000 8072 1 109.50000 418.400000
1483 16000 7520 1 109.50000 418.400000
1483 16000 8072 1 109.50000 418.400000
7520 16000 8072 1 109.50000 418.400000
7926 16001 9773 1 109.50000 418.400000
7926 16001 10081 1 109.50000 418.400000
7926 16001 10666 1 109.50000 418.400000
9773 16001 10081 1 109.50000 418.400000
9773 16001 10666 1 109.50000 418.400000
10081 16001 10666 1 109.50000 418.400000
7713 16002 8019 1 109.50000 418.400000
7713 16002 9677 1 109.50000 418.400000
7713 16002 10648 1 109.50000 418.400000
8019 16002 9677 1 109.50000 418.400000
8019 16002 10648 1 109.50000 418.400000
9677 16002 10648 1 109.50000 418.400000
8641 16003 9275 1 109.50000 418.400000
8641 16003 9955 1 109.50000 418.400000
8641 16003 10667 1 109.50000 418.400000
9275 16003 9955 1 109.50000 418.400000
9275 16003 10667 1 109.50000 418.400000
9955 16003 10667 1 109.50000 418.400000
2130 16004 6375 1 109.50000 418.400000
2130 16004 6849 1 109.50000 418.400000
2130 16004 9810 1 109.50000 418.400000
6375 16004 6849 1 109.50000 418.400000
6375 16004 9810 1 109.50000 418.400000
6849 16004 9810 1 109.50000 418.400000
416 16005 7933 1 109.50000 418.400000
416 16005 11209 1 109.50000 418.400000
416 16005 11431 1 109.50000 418.400000
7933 16005 11209 1 109.50000 418.400000
7933 16005 11431 1 109.50000 418.400000
11209 16005 11431 1 109.50000 418.400000
5060 16006 6049 1 109.50000 418.400000
5060 16006 7966 1 109.50000 418.400000
5060 16006 10668 1 109.50000 418.400000
6049 16006 7966 1 109.50000 418.400000
6049 16006 10668 1 109.50000 418.400000
7966 16006 10668 1 109.50000 418.400000
945 16007 5085 1 109.50000 418.400000
945 16007 5493 1 109.50000 418.400000
945 16007 8069 1 109.50000 418.400000
5085 16007 5493 1 109.50000 418.400000
5085 16007 8069 1 109.50000 418.400000
5493 16007 8069 1 109.50000 418.400000
9212 16008 10669 1 109.50000 418.400000
9212 16008 10670 1 109.50000 418.400000
9212 16008 10671 1 109.50000 418.400000
10669 16008 10670 1 109.50000 418.400000
10669 16008 10671 1 109.50000 418.400000
10670 16008 10671 1 109.50000 418.400000
7006 16009 9162 1 109.50000 418.400000
7006 16009 10062 1 109.50000 418.400000
7006 16009 10672 1 109.50000 418.400000
9162 16009 10062 1 109.50000 418.400000
9162 16009 10672 1 109.50000 418.400000
10062 16009 10672 1 109.50000 418.400000
1126 16010 5966 1 109.50000 418.400000
1126 16010 6603 1 109.50000 418.400000
1126 16010 7749 1 109.50000 418.400000
5966 16010 6603 1 109.50000 418.400000
5966 16010 7749 1 109.50000 418.400000
6603 16010 7749 1 109.50000 418.400000
34 16011 3780 1 109.50000 418.400000
34 16011 7434 1 109.50000 418.400000
34 16011 8508 1 109.50000 418.400000
3780 16011 7434 1 109.50000 418.400000
3780 16011 8508 1 109.50000 418.400000
7434 16011 8508 1 109.50000 418.400000
7377 16012 9590 1 109.50000 418.400000
7377 16012 9861 1 109.50000 418.400000
7377 16012 10336 1 109.50000 418.400000
9590 16012 9861 1 109.50000 418.400000
9590 16012 10336 1 109.50000 418.400000
9861 16012 10336 1 109.50000 418.400000
8836 16013 8892 1 109.50000 418.400000
8836 16013 9043 1 109.50000 418.400000
8836 16013 9738 1 109.50000 418.400000
8892 16013 9043 1 109.50000 418.400000
8892 16013 9738 1 109.50000 418.400000
9043 16013 9738 1 109.50000 418.400000
5612 16014 6818 1 109.50000 418.400000
5612 16014 7210 1 109.50000 418.400000
5612 16014 10673 1 109.50000 418.400000
6818 16014 7210 1 109.50000 418.400000
6818 16014 10673 1 109.50000 418.400000
7210 16014 10673 1 109.50000 418.400000
4608 16015 6361 1 109.50000 418.400000
4608 16015 10002 1 109.50000 418.400000
4608 16015 10674 1 109.50000 418.400000
6361 16015 10002 1 109.50000 418.400000
6361 16015 10674 1 109.50000 418.400000
10002 16015 10674 1 109.50000 418.400000
6454 16016 6667 1 109.50000 418.400000
6454 16016 9686 1 109.50000 418.400000
6454 16016 10675 1 109.50000 418.400000
6667 16016 9686 1 109.50000 418.400000
6667 16016 10675 1 109.50000 418.400000
9686 16016 10675 1 109.50000 418.400000
2795 16017 2797 1 109.50000 418.400000
2795 16017 4598 1 109.50000 418.400000
2795 16017 10476 1 109.50000 418.400000
2797 16017 4598 1 109.50000 418.400000
2797 16017 10476 1 109.50000 418.400000
4598 16017 10476 1 109.50000 418.400000
5426 16018 7429 1 109.50000 418.400000
5426 16018 10417 1 109.50000 418.400000
5426 16018 10677 1 109.50000 418.400000
7429 16018 10417 1 109.50000 418.400000
7429 16018 10677 1 109.50000 418.400000
10417 16018 10677 1 109.50000 418.400000
6149 16019 10678 1 109.50000 418.400000
6149 16019 10679 1 109.50000 418.400000
6149 16019 11408 1 109.50000 418.400000
10678 16019 10679 1 109.50000 418.400000
10678 16019 11408 1 109.50000 418.400000
10679 16019 11408 1 109.50000 418.400000
1591 16020 8771 1 109.50000 418.400000
1591 16020 9695 1 109.50000 418.400000
1591 16020 10668 1 109.50000 418.400000
8771 16020 9695 1 109.50000 418.400000
8771 16020 10668 1 109.50000 418.400000
9695 16020 10668 1 109.50000 418.400000
5641 16021 5809 1 109.50000 418.400000
5641 16021 6009 1 109.50000 418.400000
5641 16021 6478 1 109.50000 418.400000
5809 16021 6009 1 109.50000 418.400000
5809 16021 6478 1 109.50000 418.400000
6009 16021 6478 1 109.50000 418.400000
5335 16022 5337 1 109.50000 418.400000
5335 16022 5338 1 109.50000 418.400000
5335 16022 8456 1 109.50000 418.400000
5337 16022 5338 1 109.50000 418.400000
5337 16022 8456 1 109.50000 418.400000
5338 16022 8456 1 109.50000 418.400000
3685 16023 7577 1 109.50000 418.400000
3685 16023 10155 1 109.50000 418.400000
3685 16023 10682 1 109.50000 418.400000
7577 16023 10155 1 109.50000 418.400000
7577 16023 10682 1 109.50000 418.400000
10155 16023 10682 1 109.50000 418.400000
299 16024 8917 1 109.50000 418.400000
299 16024 10019 1 109.50000 418.400000
299 16024 10683 1 109.50000 418.400000
8917 16024 10019 1 109.50000 418.400000
8917 16024 10683 1 109.50000 418.400000
10019 16024 10683 1 109.50000 418.400000
6442 16025 7947 1 109.50000 418.400000
6442 16025 9482 1 109.50000 418.400000
6442 16025 10684 1 109.50000 418.400000
7947 16025 9482 1 109.50000 418.400000
7947 16025 10684 1 109.50000 418.400000
9482 16025 10684 1 109.50000 418.400000
479 16026 1904 1 109.50000 418.400000
479 16026 9878 1 109.50000 418.400000
479 16026 9926 1 109.50000 418.400000
1904 16026 9878 1 109.50000 418.400000
1904 16026 9926 1 109.50000 418.400000
9878 16026 9926 1 109.50000 418.400000
3878 16027 8874 1 109.50000 418.400000
3878 16027 9441 1 109.50000 418.400000
3878 16027 11460 1 109.50000 418.400000
8874 16027 9441 1 109.50000 418.400000
8874 16027 11460 1 109.50000 418.400000
9441 16027 11460 1 109.50000 418.400000
9732 16028 10685 1 109.50000 418.400000
9732 16028 10686 1 109.50000 418.400000
9732 16028 11189 1 109.50000 418.400000
10685 16028 10686 1 109.50000 418.400000
10685 16028 11189 1 109.50000 418.400000
10686 16028 11189 1 109.50000 418.400000
373 16029 5077 1 109.50000 418.400000
373 16029 10029 1 109.50000 418.400000
373 16029 10687 1 109.50000 418.400000
5077 16029 10029 1 109.50000 418.400000
5077 16029 10687 1 109.50000 418.400000
10029 16029 10687 1 109.50000 418.400000
3894 16030 10688 1 109.50000 418.400000
3894 16030 10689 1 109.50000 418.400000
3894 16030 10690 1 109.50000 418.400000
10688 16030 10689 1 109.50000 418.400000
10688 16030 10690 1 109.50000 418.400000
10689 16030 10690 1 109.50000 418.400000
8704 16031 9252 1 109.50000 418.400000
8704 16031 9446 1 109.50000 418.400000
8704 16031 10691 1 109.50000 418.400000
9252 16031 9446 1 109.50000 418.400000
9252 16031 10691 1 109.50000 418.400000
9446 16031 10691 1 109.50000 418.400000
1998 16032 9413 1 109.50000 418.400000
1998 16032 10692 1 109.50000 418.400000
1998 16032 10693 1 109.50000 418.400000
9413 16032 10692 1 109.50000 418.400000
9413 16032 10693 1 109.50000 418.400000
10692 16032 10693 1 109.50000 418.400000
1530 16033 3989 1 109.50000 418.400000
1530 16033 10123 1 109.50000 418.400000
1530 16033 10186 1 109.50000 418.400000
3989 16033 10123 1 109.50000 418.400000
3989 16033 10186 1 109.50000 418.400000
10123 16033 10186 1 109.50000 418.400000
4009 16034 5954 1 109.50000 418.400000
4009 16034 6897 1 109.50000 418.400000
4009 16034 10695 1 109.50000 418.400000
5954 16034 6897 1 109.50000 418.400000
5954 16034 10695 1 109.50000 418.400000
6897 16034 10695 1 109.50000 418.400000
1821 16035 8644 1 109.50000 418.400000
1821 16035 10384 1 109.50000 418.400000
1821 16035 10696 1 109.50000 418.400000
8644 16035 10384 1 109.50000 418.400000
8644 16035 10696 1 109.50000 418.400000
10384 16035 10696 1 109.50000 418.400000
4130 16036 5075 1 109.50000 418.400000
4130 16036 8245 1 109.50000 418.400000
4130 16036 10431 1 109.50000 418.400000
5075 16036 8245 1 109.50000 418.400000
5075 16036 10431 1 109.50000 418.400000
8245 16036 10431 1 109.50000 418.400000
4180 16037 4567 1 109.50000 418.400000
4180 16037 5341 1 109.50000 418.400000
4180 16037 7693 1 109.50000 418.400000
4567 16037 5341 1 109.50000 418.400000
4567 16037 7693 1 109.50000 418.400000
5341 16037 7693 1 109.50000 418.400000
4058 16038 4830 1 109.50000 418.400000
4058 16038 5883 1 109.50000 418.400000
4058 16038 8393 1 109.50000 418.400000
4830 16038 5883 1 109.50000 418.400000
4830 16038 8393 1 109.50000 418.400000
5883 16038 8393 1 109.50000 418.400000
961 16039 5685 1 109.50000 418.400000
961 16039 9567 1 109.50000 418.400000
961 16039 10697 1 109.50000 418.400000
5685 16039 9567 1 109.50000 418.400000
5685 16039 10697 1 109.50000 418.400000
9567 16039 10697 1 109.50000 418.400000
461 16040 6007 1 109.50000 418.400000
461 16040 10175 1 109.50000 418.400000
461 16040 10179 1 109.50000 418.400000
6007 16040 10175 1 109.50000 418.400000
6007 16040 10179 1 109.50000 418.400000
10175 16040 10179 1 109.50000 418.400000
8938 16041 9991 1 109.50000 418.400000
8938 16041 11303 1 109.50000 418.400000
8938 16041 11467 1 109.50000 418.400000
9991 16041 11303 1 109.50000 418.400000
9991 16041 11467 1 109.50000 418.400000
11303 16041 11467 1 109.50000 418.400000
3978 16042 6273 1 109.50000 418.400000
3978 16042 9414 1 109.50000 418.400000
3978 16042 9779 1 109.50000 418.400000
6273 16042 9414 1 109.50000 418.400000
6273 16042 9779 1 109.50000 418.400000
9414 16042 9779 1 109.50000 418.400000
5048 16043 7967 1 109.50000 418.400000
5048 16043 10699 1 109.50000 418.400000
5048 16043 10700 1 109.50000 418.400000
7967 16043 10699 1 109.50000 418.400000
7967 16043 10700 1 109.50000 418.400000
10699 16043 10700 1 109.50000 418.400000
2777 16044 5662 1 109.50000 418.400000
2777 16044 6484 1 109.50000 418.400000
2777 16044 10511 1 109.50000 418.400000
5662 16044 6484 1 109.50000 418.400000
5662 16044 10511 1 109.50000 418.400000
6484 16044 10511 1 109.50000 418.400000
1382 16045 10701 1 109.50000 418.400000
1382 16045 11398 1 109.50000 418.400000
1382 16045 11533 1 109.50000 418.400000
10701 16045 11398 1 109.50000 418.400000
10701 16045 11533 1 109.50000 418.400000
11398 16045 11533 1 109.50000 418.400000
5111 16046 7538 1 109.50000 418.400000
5111 16046 7593 1 109.50000 418.400000
5111 16046 9932 1 109.50000 418.400000
7538 16046 7593 1 109.50000 418.400000
7538 16046 9932 1 109.50000 418.400000
7593 16046 9932 1 109.50000 418.400000
6067 16047 9537 1 109.50000 418.400000
6067 16047 10246 1 109.50000 418.400000
6067 16047 10702 1 109.50000 418.400000
9537 16047 10246 1 109.50000 418.400000
9537 16047 10702 1 109.50000 418.400000
10246 16047 10702 1 109.50000 418.400000
1561 16048 3744 1 109.50000 418.400000
1561 16048 6300 1 109.50000 418.400000
1561 16048 7179 1 109.50000 418.400000
3744 16048 6300 1 109.50000 418.400000
3744 16048 7179 1 109.50000 418.400000
6300 16048 7179 1 109.50000 418.400000
1337 16049 1456 1 109.50000 418.400000
1337 16049 2776 1 109.50000 418.400000
1337 16049 10369 1 109.50000 418.400000
1456 16049 2776 1 109.50000 418.400000
1456 16049 10369 1 109.50000 418.400000
2776 16049 10369 1 109.50000 418.400000
2220 16050 4124 1 109.50000 418.400000
2220 16050 4951 1 109.50000 418.400000
2220 16050 10418 1 109.50000 418.400000
4124 16050 4951 1 109.50000 418.400000
4124 16050 10418 1 109.50000 418.400000
4951 16050 10418 1 109.50000 418.400000
622 16051 2310 1 109.50000 418.400000
622 16051 7324 1 109.50000 418.400000
622 16051 8256 1 109.50000 418.400000
2310 16051 7324 1 109.50000 418.400000
2310 16051 8256 1 109.50000 418.400000
7324 16051 8256 1 109.50000 418.400000
133 16052 1425 1 109.50000 418.400000
133 16052 1835 1 109.50000 418.400000
133 16052 6806 1 109.50000 418.400000
1425 16052 1835 1 109.50000 418.400000
1425 16052 6806 1 109.50000 418.400000
1835 16052 6806 1 109.50000 418.400000
464 16053 1264 1 109.50000 418.400000
464 16053 10659 1 109.50000 418.400000
464 16053 10703 1 109.50000 418.400000
1264 16053 10659 1 109.50000 418.400000
1264 16053 10703 1 109.50000 418.400000
10659 16053 10703 1 109.50000 418.400000
1736 16054 2965 1 109.50000 418.400000
1736 16054 3899 1 109.50000 418.400000
1736 16054 11543 1 109.50000 418.400000
2965 16054 3899 1 109.50000 418.400000
2965 16054 11543 1 109.50000 418.400000
3899 16054 11543 1 109.50000 418.400000
1296 16055 3079 1 109.50000 418.400000
1296 16055 9801 1 109.50000 418.400000
1296 16055 10704 1 109.50000 418.400000
3079 16055 9801 1 109.50000 418.400000
3079 16055 10704 1 109.50000 418.400000
9801 16055 10704 1 109.50000 418.400000
877 16056 5480 1 109.50000 418.400000
877 16056 9879 1 109.50000 418.400000
877 16056 10352 1 109.50000 418.400000
5480 16056 9879 1 109.50000 418.400000
5480 16056 10352 1 109.50000 418.400000
9879 16056 10352 1 109.50000 418.400000
4367 16057 6396 1 109.50000 418.400000
4367 16057 10705 1 109.50000 418.400000
4367 16057 11454 1 109.50000 418.400000
6396 16057 10705 1 109.50000 418.400000
6396 16057 11454 1 109.50000 418.400000
10705 16057 11454 1 109.50000 418.400000
2866 16058 4702 1 109.50000 418.400000
2866 16058 9378 1 109.50000 418.400000
2866 16058 10706 1 109.50000 418.400000
4702 16058 9378 1 109.50000 418.400000
4702 16058 10706 1 109.50000 418.400000
9378 16058 10706 1 109.50000 418.400000
2100 16059 5001 1 109.50000 418.400000
2100 16059 11219 1 109.50000 418.400000
2100 16059 11435 1 109.50000 418.400000
5001 16059 11219 1 109.50000 418.400000
5001 16059 11435 1 109.50000 418.400000
11219 16059 11435 1 109.50000 418.400000
4500 16060 4921 1 109.50000 418.400000
4500 16060 10707 1 109.50000 418.400000
4500 16060 10708 1 109.50000 418.400000
4921 16060 10707 1 109.50000 418.400000
4921 16060 10708 1 109.50000 418.400000
10707 16060 10708 1 109.50000 418.400000
4062 16061 7873 1 109.50000 418.400000
4062 16061 9633 1 109.50000 418.400000
4062 16061 10709 1 109.50000 418.400000
7873 16061 9633 1 109.50000 418.400000
7873 16061 10709 1 109.50000 418.400000
9633 16061 10709 1 109.50000 418.400000
7323 16062 7325 1 109.50000 418.400000
7323 16062 8600 1 109.50000 418.400000
7323 16062 10423 1 109.50000 418.400000
7325 16062 8600 1 109.50000 418.400000
7325 16062 10423 1 109.50000 418.400000
8600 16062 10423 1 109.50000 418.400000
1867 16063 9005 1 109.50000 418.400000
1867 16063 10710 1 109.50000 418.400000
1867 16063 10711 1 109.50000 418.400000
9005 16063 10710 1 109.50000 418.400000
9005 16063 10711 1 109.50000 418.400000
10710 16063 10711 1 109.50000 418.400000
3642 16064 5090 1 109.50000 418.400000
3642 16064 7849 1 109.50000 418.400000
3642 16064 8562 1 109.50000 418.400000
5090 16064 7849 1 109.50000 418.400000
5090 16064 8562 1 109.50000 418.400000
7849 16064 8562 1 109.50000 418.400000
2486 16065 4394 1 109.50000 418.400000
2486 16065 10712 1 109.50000 418.400000
2486 16065 10713 1 109.50000 418.400000
4394 16065 10712 1 109.50000 418.400000
4394 16065 10713 1 109.50000 418.400000
10712 16065 10713 1 109.50000 418.400000
6011 16066 8466 1 109.50000 418.400000
6011 16066 9937 1 109.50000 418.400000
6011 16066 10571 1 109.50000 418.400000
8466 16066 9937 1 109.50000 418.400000
8466 16066 10571 1 109.50000 418.400000
9937 16066 10571 1 109.50000 418.400000
173 16067 5231 1 109.50000 418.400000
173 16067 10714 1 109.50000 418.400000
173 16067 10715 1 109.50000 418.400000
5231 16067 10714 1 109.50000 418.400000
5231 16067 10715 1 109.50000 418.400000
10714 16067 10715 1 109.50000 418.400000
511 16068 3932 1 109.50000 418.400000
511 16068 5165 1 109.50000 418.400000
511 16068 8694 1 109.50000 418.400000
3932 16068 5165 1 109.50000 418.400000
3932 16068 8694 1 109.50000 418.400000
5165 16068 8694 1 109.50000 418.400000
6625 16069 6685 1 109.50000 418.400000
6625 16069 7404 1 109.50000 418.400000
6625 16069 10716 1 109.50000 418.400000
6685 16069 7404 1 109.50000 418.400000
6685 16069 10716 1 109.50000 418.400000
7404 16069 10716 1 109.50000 418.400000
2252 16070 7293 1 109.50000 418.400000
2252 16070 8188 1 109.50000 418.400000
2252 16070 10717 1 109.50000 418.400000
7293 16070 8188 1 109.50000 418.400000
7293 16070 10717 1 109.50000 418.400000
8188 16070 10717 1 109.50000 418.400000
6843 16071 8621 1 109.50000 418.400000
6843 16071 9766 1 109.50000 418.400000
6843 16071 11598 1 109.50000 418.400000
8621 16071 9766 1 109.50000 418.400000
8621 16071 11598 1 109.50000 418.400000
9766 16071 11598 1 109.50000 418.400000
3136 16072 3681 1 109.50000 418.400000
3136 16072 9453 1 109.50000 418.400000
3136 16072 10718 1 109.50000 418.400000
3681 16072 9453 1 109.50000 418.400000
3681 16072 10718 1 109.50000 418.400000
9453 16072 10718 1 109.50000 418.400000
5139 16073 8589 1 109.50000 418.400000
5139 16073 9245 1 109.50000 418.400000
5139 16073 9770 1 109.50000 418.400000
8589 16073 9245 1 109.50000 418.400000
8589 16073 9770 1 109.50000 418.400000
9245 16073 9770 1 109.50000 418.400000
5371 16074 5377 1 109.50000 418.400000
5371 16074 9881 1 109.50000 418.400000
5371 16074 10719 1 109.50000 418.400000
5377 16074 9881 1 109.50000 418.400000
5377 16074 10719 1 109.50000 418.400000
9881 16074 10719 1 109.50000 418.400000
8156 16075 9741 1 109.50000 418.400000
8156 16075 10664 1 109.50000 418.400000
8156 16075 10720 1 109.50000 418.400000
9741 16075 10664 1 109.50000 418.400000
9741 16075 10720 1 109.50000 418.400000
10664 16075 10720 1 109.50000 418.400000
2947 16076 7602 1 109.50000 418.400000
2947 16076 9799 1 109.50000 418.400000
2947 16076 10721 1 109.50000 418.400000
7602 16076 9799 1 109.50000 418.400000
7602 16076 10721 1 109.50000 418.400000
9799 16076 10721 1 109.50000 418.400000
8337 16077 8730 1 109.50000 418.400000
8337 16077 8781 1 109.50000 418.400000
8337 16077 9377 1 109.50000 418.400000
8730 16077 8781 1 109.50000 418.400000
8730 16077 9377 1 109.50000 418.400000
8781 16077 9377 1 109.50000 418.400000
4002 16078 5596 1 109.50000 418.400000
4002 16078 7560 1 109.50000 418.400000
4002 16078 8140 1 109.50000 418.400000
5596 16078 7560 1 109.50000 418.400000
5596 16078 8140 1 109.50000 418.400000
7560 16078 8140 1 109.50000 418.400000
3243 16079 3864 1 109.50000 418.400000
3243 16079 7987 1 109.50000 418.400000
3243 16079 10652 1 109.50000 418.400000
3864 16079 7987 1 109.50000 418.400000
3864 16079 10652 1 109.50000 418.400000
7987 16079 10652 1 109.50000 418.400000
4311 16080 6816 1 109.50000 418.400000
4311 16080 6898 1 109.50000 418.400000
4311 16080 9315 1 109.50000 418.400000
6816 16080 6898 1 109.50000 418.400000
6816 16080 9315 1 109.50000 418.400000
6898 16080 9315 1 109.50000 418.400000
1662 16081 5791 1 109.50000 418.400000
1662 16081 10722 1 109.50000 418.400000
1662 16081 10723 1 109.50000 418.400000
5791 16081 10722 1 109.50000 418.400000
5791 16081 10723 1 109.50000 418.400000
10722 16081 10723 1 109.50000 418.400000
530 16082 6422 1 109.50000 418.400000
530 16082 8152 1 109.50000 418.400000
530 16082 10325 1 109.50000 418.400000
6422 16082 8152 1 109.50000 418.400000
6422 16082 10325 1 109.50000 418.400000
8152 16082 10325 1 109.50000 418.400000
2424 16083 3591 1 109.50000 418.400000
2424 16083 4183 1 109.50000 418.400000
2424 16083 4957 1 109.50000 418.400000
3591 16083 4183 1 109.50000 418.400000
3591 16083 4957 1 109.50000 418.400000
4183 16083 4957 1 109.50000 418.400000
471 16084 5577 1 109.50000 418.400000
471 16084 5578 1 109.50000 418.400000
471 16084 9997 1 109.50000 418.400000
5577 16084 5578 1 109.50000 418.400000
5577 16084 9997 1 109.50000 418.400000
5578 16084 9997 1 109.50000 418.400000
1762 16085 8789 1 109.50000 418.400000
1762 16085 10724 1 109.50000 418.400000
1762 16085 10725 1 109.50000 418.400000
8789 16085 10724 1 109.50000 418.400000
8789 16085 10725 1 109.50000 418.400000
10724 16085 10725 1 109.50000 418.400000
1746 16086 3030 1 109.50000 418.400000
1746 16086 3887 1 109.50000 418.400000
1746 16086 5988 1 109.50000 418.400000
3030 16086 3887 1 109.50000 418.400000
3030 16086 5988 1 109.50000 418.400000
3887 16086 5988 1 109.50000 418.400000
7792 16087 8239 1 109.50000 418.400000
7792 16087 8548 1 109.50000 418.400000
7792 16087 10726 1 109.50000 418.400000
8239 16087 8548 1 109.50000 418.400000
8239 16087 10726 1 109.50000 418.400000
8548 16087 10726 1 109.50000 418.400000
5279 16088 7203 1 109.50000 418.400000
5279 16088 8584 1 109.50000 418.400000
5279 16088 10728 1 109.50000 418.400000
7203 16088 8584 1 109.50000 418.400000
7203 16088 10728 1 109.50000 418.400000
8584 16088 10728 1 109.50000 418.400000
4036 16089 4038 1 109.50000 418.400000
4036 16089 10218 1 109.50000 418.400000
4036 16089 10302 1 109.50000 418.400000
4038 16089 10218 1 109.50000 418.400000
4038 16089 10302 1 109.50000 418.400000
10218 16089 10302 1 109.50000 418.400000
5788 16090 5806 1 109.50000 418.400000
5788 16090 10322 1 109.50000 418.400000
5788 16090 10507 1 109.50000 418.400000
5806 16090 10322 1 109.50000 418.400000
5806 16090 10507 1 109.50000 418.400000
10322 16090 10507 1 109.50000 418.400000
5984 16091 8991 1 109.50000 418.400000
5984 16091 10412 1 109.50000 418.400000
5984 16091 10729 1 109.50000 418.400000
8991 16091 10412 1 109.50000 418.400000
8991 16091 10729 1 109.50000 418.400000
10412 16091 10729 1 109.50000 418.400000
4950 16092 6705 1 109.50000 418.400000
4950 16092 7879 1 109.50000 418.400000
4950 16092 8636 1 109.50000 418.400000
6705 16092 7879 1 109.50000 418.400000
6705 16092 8636 1 109.50000 418.400000
7879 16092 8636 1 109.50000 418.400000
6541 16093 8214 1 109.50000 418.400000
6541 16093 10654 1 109.50000 418.400000
6541 16093 10730 1 109.50000 418.400000
8214 16093 10654 1 109.50000 418.400000
8214 16093 10730 1 109.50000 418.400000
10654 16093 10730 1 109.50000 418.400000
3475 16094 5583 1 109.50000 418.400000
3475 16094 7482 1 109.50000 418.400000
3475 16094 10731 1 109.50000 418.400000
5583 16094 7482 1 109.50000 418.400000
5583 16094 10731 1 109.50000 418.400000
7482 16094 10731 1 109.50000 418.400000
9324 16095 10122 1 109.50000 418.400000
9324 16095 10341 1 109.50000 418.400000
9324 16095 10732 1 109.50000 418.400000
10122 16095 10341 1 109.50000 418.400000
10122 16095 10732 1 109.50000 418.400000
10341 16095 10732 1 109.50000 418.400000
4149 16096 9655 1 109.50000 418.400000
4149 16096 10733 1 109.50000 418.400000
4149 16096 10734 1 109.50000 418.400000
9655 16096 10733 1 109.50000 418.400000
9655 16096 10734 1 109.50000 418.400000
10733 16096 10734 1 109.50000 418.400000
1053 16097 8541 1 109.50000 418.400000
1053 16097 9785 1 109.50000 418.400000
1053 16097 10735 1 109.50000 418.400000
8541 16097 9785 1 109.50000 418.400000
8541 16097 10735 1 109.50000 418.400000
9785 16097 10735 1 109.50000 418.400000
5763 16098 8044 1 109.50000 418.400000
5763 16098 10736 1 109.50000 418.400000
5763 16098 11360 1 109.50000 418.400000
8044 16098 10736 1 109.50000 418.400000
8044 16098 11360 1 109.50000 418.400000
10736 16098 11360 1 109.50000 418.400000
3320 16099 9340 1 109.50000 418.400000
3320 16099 10126 1 109.50000 418.400000
3320 16099 10738 1 109.50000 418.400000
9340 16099 10126 1 109.50000 418.400000
9340 16099 10738 1 109.50000 418.400000
10126 16099 10738 1 109.50000 418.400000
1724 16100 3866 1 109.50000 418.400000
1724 16100 10132 1 109.50000 418.400000
1724 16100 10739 1 109.50000 418.400000
3866 16100 10132 1 109.50000 418.400000
3866 16100 10739 1 109.50000 418.400000
10132 16100 10739 1 109.50000 418.400000
2 16101 4597 1 109.50000 418.400000
2 16101 8039 1 109.50000 418.400000
2 16101 10396 1 109.50000 418.400000
4597 16101 8039 1 109.50000 418.400000
4597 16101 10396 1 109.50000 418.400000
8039 16101 10396 1 109.50000 418.400000
550 16102 6495 1 109.50000 418.400000
550 16102 7787 1 109.50000 418.400000
550 16102 8364 1 109.50000 418.400000
6495 16102 7787 1 109.50000 418.400000
6495 16102 8364 1 109.50000 418.400000
7787 16102 8364 1 109.50000 418.400000
733 16103 2930 1 109.50000 418.400000
733 16103 9882 1 109.50000 418.400000
733 16103 10740 1 109.50000 418.400000
2930 16103 9882 1 109.50000 418.400000
2930 16103 10740 1 109.50000 418.400000
9882 16103 10740 1 109.50000 418.400000
6681 16104 10247 1 109.50000 418.400000
6681 16104 10675 1 109.50000 418.400000
6681 16104 10741 1 109.50000 418.400000
10247 16104 10675 1 109.50000 418.400000
10247 16104 10741 1 109.50000 418.400000
10675 16104 10741 1 109.50000 418.400000
2197 16105 3782 1 109.50000 418.400000
2197 16105 6115 1 109.50000 418.400000
2197 16105 10598 1 109.50000 418.400000
3782 16105 6115 1 109.50000 418.400000
3782 16105 10598 1 109.50000 418.400000
6115 16105 10598 1 109.50000 418.400000
6452 16106 9581 1 109.50000 418.400000
6452 16106 10744 1 109.50000 418.400000
6452 16106 11455 1 109.50000 418.400000
9581 16106 10744 1 109.50000 418.400000
9581 16106 11455 1 109.50000 418.400000
10744 16106 11455 1 109.50000 418.400000
650 16107 10633 1 109.50000 418.400000
650 16107 10745 1 109.50000 418.400000
650 16107 10746 1 109.50000 418.400000
10633 16107 10745 1 109.50000 418.400000
10633 16107 10746 1 109.50000 418.400000
10745 16107 10746 1 109.50000 418.400000
6152 16108 8498 1 109.50000 418.400000
6152 16108 10747 1 109.50000 418.400000
6152 16108 11580 1 109.50000 418.400000
8498 16108 10747 1 109.50000 418.400000
8498 16108 11580 1 109.50000 418.400000
10747 16108 11580 1 109.50000 418.400000
1725 16109 3269 1 109.50000 418.400000
1725 16109 9301 1 109.50000 418.400000
1725 16109 10748 1 109.50000 418.400000
3269 16109 9301 1 109.50000 418.400000
3269 16109 10748 1 109.50000 418.400000
9301 16109 10748 1 109.50000 418.400000
3630 16110 7542 1 109.50000 418.400000
3630 16110 10749 1 109.50000 418.400000
3630 16110 10877 1 109.50000 418.400000
7542 16110 10749 1 109.50000 418.400000
7542 16110 10877 1 109.50000 418.400000
10749 16110 10877 1 109.50000 418.400000
4877 16111 7437 1 109.50000 418.400000
4877 16111 8264 1 109.50000 418.400000
4877 16111 10750 1 109.50000 418.400000
7437 16111 8264 1 109.50000 418.400000
7437 16111 10750 1 109.50000 418.400000
8264 16111 10750 1 109.50000 418.400000
270 16112 683 1 109.50000 418.400000
270 16112 9323 1 109.50000 418.400000
270 16112 9569 1 109.50000 418.400000
683 16112 9323 1 109.50000 418.400000
683 16112 9569 1 109.50000 418.400000
9323 16112 9569 1 109.50000 418.400000
305 16113 5740 1 109.50000 418.400000
305 16113 7026 1 109.50000 418.400000
305 16113 8762 1 109.50000 418.400000
5740 16113 7026 1 109.50000 418.400000
5740 16113 8762 1 109.50000 418.400000
7026 16113 8762 1 109.50000 418.400000
7900 16114 9173 1 109.50000 418.400000
7900 16114 9175 1 109.50000 418.400000
7900 16114 10751 1 109.50000 418.400000
9173 16114 9175 1 109.50000 418.400000
9173 16114 10751 1 109.50000 418.400000
9175 16114 10751 1 109.50000 418.400000
7366 16115 9038 1 109.50000 418.400000
7366 16115 9311 1 109.50000 418.400000
7366 16115 9849 1 109.50000 418.400000
9038 16115 9311 1 109.50000 418.400000
9038 16115 9849 1 109.50000 418.400000
9311 16115 9849 1 109.50000 418.400000
1119 16116 4042 1 109.50000 418.400000
1119 16116 6594 1 109.50000 418.400000
1119 16116 10634 1 109.50000 418.400000
4042 16116 6594 1 109.50000 418.400000
4042 16116 10634 1 109.50000 418.400000
6594 16116 10634 1 109.50000 418.400000
276 16117 3424 1 109.50000 418.400000
276 16117 9699 1 109.50000 418.400000
276 16117 10752 1 109.50000 418.400000
3424 16117 9699 1 109.50000 418.400000
3424 16117 10752 1 109.50000 418.400000
9699 16117 10752 1 109.50000 418.400000
496 16118 8710 1 109.50000 418.400000
496 16118 10753 1 109.50000 418.400000
496 16118 10754 1 109.50000 418.400000
8710 16118 10753 1 109.50000 418.400000
8710 16118 10754 1 109.50000 418.400000
10753 16118 10754 1 109.50000 418.400000
3036 16119 4719 1 109.50000 418.400000
3036 16119 8718 1 109.50000 418.400000
3036 16119 10616 1 109.50000 418.400000
4719 16119 8718 1 109.50000 418.400000
4719 16119 10616 1 109.50000 418.400000
8718 16119 10616 1 109.50000 418.400000
1385 16120 2138 1 109.50000 418.400000
1385 16120 7884 1 109.50000 418.400000
1385 16120 10050 1 109.50000 418.400000
2138 16120 7884 1 109.50000 418.400000
2138 16120 10050 1 109.50000 418.400000
7884 16120 10050 1 109.50000 418.400000
2283 16121 2886 1 109.50000 418.400000
2283 16121 6991 1 109.50000 418.400000
2283 16121 10666 1 109.50000 418.400000
2886 16121 6991 1 109.50000 418.400000
2886 16121 10666 1 109.50000 418.400000
6991 16121 10666 1 109.50000 418.400000
2838 16122 6053 1 109.50000 418.400000
2838 16122 9459 1 109.50000 418.400000
2838 16122 10618 1 109.50000 418.400000
6053 16122 9459 1 109.50000 418.400000
6053 16122 10618 1 109.50000 418.400000
9459 16122 10618 1 109.50000 418.400000
792 16123 5442 1 109.50000 418.400000
792 16123 9504 1 109.50000 418.400000
792 16123 11393 1 109.50000 418.400000
5442 16123 9504 1 109.50000 418.400000
5442 16123 11393 1 109.50000 418.400000
9504 16123 11393 1 109.50000 418.400000
3460 16124 5860 1 109.50000 418.400000
3460 16124 5861 1 109.50000 418.400000
3460 16124 10111 1 109.50000 418.400000
5860 16124 5861 1 109.50000 418.400000
5860 16124 10111 1 109.50000 418.400000
5861 16124 10111 1 109.50000 418.400000
8437 16125 8439 1 109.50000 418.400000
8437 16125 9746 1 109.50000 418.400000
8437 16125 10755 1 109.50000 418.400000
8439 16125 9746 1 109.50000 418.400000
8439 16125 10755 1 109.50000 418.400000
9746 16125 10755 1 109.50000 418.400000
9499 16126 9658 1 109.50000 418.400000
9499 16126 9869 1 109.50000 418.400000
9499 16126 10154 1 109.50000 418.400000
9658 16126 9869 1 109.50000 418.400000
9658 16126 10154 1 109.50000 418.400000
9869 16126 10154 1 109.50000 418.400000
1669 16127 5286 1 109.50000 418.400000
1669 16127 8885 1 109.50000 418.400000
1669 16127 9197 1 109.50000 418.400000
5286 16127 8885 1 109.50000 418.400000
5286 16127 9197 1 109.50000 418.400000
8885 16127 9197 1 109.50000 418.400000
4510 16128 7457 1 109.50000 418.400000
4510 16128 10758 1 109.50000 418.400000
4510 16128 11451 1 109.50000 418.400000
7457 16128 10758 1 109.50000 418.400000
7457 16128 11451 1 109.50000 418.400000
10758 16128 11451 1 109.50000 418.400000
914 16129 2729 1 109.50000 418.400000
914 16129 9964 1 109.50000 418.400000
914 16129 10759 1 109.50000 418.400000
2729 16129 9964 1 109.50000 418.400000
2729 16129 10759 1 109.50000 418.400000
9964 16129 10759 1 109.50000 418.400000
1877 16130 3338 1 109.50000 418.400000
1877 16130 7979 1 109.50000 418.400000
1877 16130 11416 1 109.50000 418.400000
3338 16130 7979 1 109.50000 418.400000
3338 16130 11416 1 109.50000 418.400000
7979 16130 11416 1 109.50000 418.400000
3053 16131 4235 1 109.50000 418.400000
3053 16131 7821 1 109.50000 418.400000
3053 16131 8742 1 109.50000 418.400000
4235 16131 7821 1 109.50000 418.400000
4235 16131 8742 1 109.50000 418.400000
7821 16131 8742 1 109.50000 418.400000
1592 16132 6516 1 109.50000 418.400000
1592 16132 7964 1 109.50000 418.400000
1592 16132 10760 1 109.50000 418.400000
6516 16132 7964 1 109.50000 418.400000
6516 16132 10760 1 109.50000 418.400000
7964 16132 10760 1 109.50000 418.400000
7207 16133 8624 1 109.50000 418.400000
7207 16133 10750 1 109.50000 418.400000
7207 16133 10761 1 109.50000 418.400000
8624 16133 10750 1 109.50000 418.400000
8624 16133 10761 1 109.50000 418.400000
10750 16133 10761 1 109.50000 418.400000
3422 16134 3680 1 109.50000 418.400000
3422 16134 3835 1 109.50000 418.400000
3422 16134 10762 1 109.50000 418.400000
3680 16134 3835 1 109.50000 418.400000
3680 16134 10762 1 109.50000 418.400000
3835 16134 10762 1 109.50000 418.400000
595 16135 2959 1 109.50000 418.400000
595 16135 8969 1 109.50000 418.400000
595 16135 10665 1 109.50000 418.400000
2959 16135 8969 1 109.50000 418.400000
2959 16135 10665 1 109.50000 418.400000
8969 16135 10665 1 109.50000 418.400000
3154 16136 10621 1 109.50000 418.400000
3154 16136 10723 1 109.50000 418.400000
3154 16136 10763 1 109.50000 418.400000
10621 16136 10723 1 109.50000 418.400000
10621 16136 10763 1 109.50000 418.400000
10723 16136 10763 1 109.50000 418.400000
6343 16137 6344 1 109.50000 418.400000
6343 16137 10003 1 109.50000 418.400000
6343 16137 10326 1 109.50000 418.400000
6344 16137 10003 1 109.50000 418.400000
6344 16137 10326 1 109.50000 418.400000
10003 16137 10326 1 109.50000 418.400000
6417 16138 10082 1 109.50000 418.400000
6417 16138 11190 1 109.50000 418.400000
6417 16138 11339 1 109.50000 418.400000
10082 16138 11190 1 109.50000 418.400000
10082 16138 11339 1 109.50000 418.400000
11190 16138 11339 1 109.50000 418.400000
1250 16139 2005 1 109.50000 418.400000
1250 16139 5598 1 109.50000 418.400000
1250 16139 10362 1 109.50000 418.400000
2005 16139 5598 1 109.50000 418.400000
2005 16139 10362 1 109.50000 418.400000
5598 16139 10362 1 109.50000 418.400000
4078 16140 5616 1 109.50000 418.400000
4078 16140 9389 1 109.50000 418.400000
4078 16140 9512 1 109.50000 418.400000
5616 16140 9389 1 109.50000 418.400000
5616 16140 9512 1 109.50000 418.400000
9389 16140 9512 1 109.50000 418.400000
9003 16141 10764 1 109.50000 418.400000
9003 16141 10765 1 109.50000 418.400000
9003 16141 10766 1 109.50000 418.400000
10764 16141 10765 1 109.50000 418.400000
10764 16141 10766 1 109.50000 418.400000
10765 16141 10766 1 109.50000 418.400000
1281 16142 7499 1 109.50000 418.400000
1281 16142 7920 1 109.50000 418.400000
1281 16142 10767 1 109.50000 418.400000
7499 16142 7920 1 109.50000 418.400000
7499 16142 10767 1 109.50000 418.400000
7920 16142 10767 1 109.50000 418.400000
7383 16143 7709 1 109.50000 418.400000
7383 16143 10517 1 109.50000 418.400000
7383 16143 10768 1 109.50000 418.400000
7709 16143 10517 1 109.50000 418.400000
7709 16143 10768 1 109.50000 418.400000
10517 16143 10768 1 109.50000 418.400000
9729 16144 9730 1 109.50000 418.400000
9729 16144 10767 1 109.50000 418.400000
9729 16144 10769 1 109.50000 418.400000
9730 16144 10767 1 109.50000 418.400000
9730 16144 10769 1 109.50000 418.400000
10767 16144 10769 1 109.50000 418.400000
3770 16145 7017 1 109.50000 418.400000
3770 16145 7421 1 109.50000 418.400000
3770 16145 8811 1 109.50000 418.400000
7017 16145 7421 1 109.50000 418.400000
7017 16145 8811 1 109.50000 418.400000
7421 16145 8811 1 109.50000 418.400000
1220 16146 1857 1 109.50000 418.400000
1220 16146 5896 1 109.50000 418.400000
1220 16146 10770 1 109.50000 418.400000
1857 16146 5896 1 109.50000 418.400000
1857 16146 10770 1 109.50000 418.400000
5896 16146 10770 1 109.50000 418.400000
9189 16147 10440 1 109.50000 418.400000
9189 16147 11344 1 109.50000 418.400000
9189 16147 11444 1 109.50000 418.400000
10440 16147 11344 1 109.50000 418.400000
10440 16147 11444 1 109.50000 418.400000
11344 16147 11444 1 109.50000 418.400000
1678 16148 5509 1 109.50000 418.400000
1678 16148 9739 1 109.50000 418.400000
1678 16148 10771 1 109.50000 418.400000
5509 16148 9739 1 109.50000 418.400000
5509 16148 10771 1 109.50000 418.400000
9739 16148 10771 1 109.50000 418.400000
5455 16149 6847 1 109.50000 418.400000
5455 16149 10108 1 109.50000 418.400000
5455 16149 10772 1 109.50000 418.400000
6847 16149 10108 1 109.50000 418.400000
6847 16149 10772 1 109.50000 418.400000
10108 16149 10772 1 109.50000 418.400000
2312 16150 6954 1 109.50000 418.400000
2312 16150 9607 1 109.50000 418.400000
2312 16150 10773 1 109.50000 418.400000
6954 16150 9607 1 109.50000 418.400000
6954 16150 10773 1 109.50000 418.400000
9607 16150 10773 1 109.50000 418.400000
6951 16151 7734 1 109.50000 418.400000
6951 16151 8512 1 109.50000 418.400000
6951 16151 10774 1 109.50000 418.400000
7734 16151 8512 1 109.50000 418.400000
7734 16151 10774 1 109.50000 418.400000
8512 16151 10774 1 109.50000 418.400000
2825 16152 5457 1 109.50000 418.400000
2825 16152 6729 1 109.50000 418.400000
2825 16152 10775 1 109.50000 418.400000
5457 16152 6729 1 109.50000 418.400000
5457 16152 10775 1 109.50000 418.400000
6729 16152 10775 1 109.50000 418.400000
8259 16153 10690 1 109.50000 418.400000
8259 16153 10776 1 109.50000 418.400000
8259 16153 10777 1 109.50000 418.400000
10690 16153 10776 1 109.50000 418.400000
10690 16153 10777 1 109.50000 418.400000
10776 16153 10777 1 109.50000 418.400000
3585 16154 4202 1 109.50000 418.400000
3585 16154 5899 1 109.50000 418.400000
3585 16154 9087 1 109.50000 418.400000
4202 16154 5899 1 109.50000 418.400000
4202 16154 9087 1 109.50000 418.400000
5899 16154 9087 1 109.50000 418.400000
1160 16155 1377 1 109.50000 418.400000
1160 16155 8800 1 109.50000 418.400000
1160 16155 10778 1 109.50000 418.400000
1377 16155 8800 1 109.50000 418.400000
1377 16155 10778 1 109.50000 418.400000
8800 16155 10778 1 109.50000 418.400000
2509 16156 5471 1 109.50000 418.400000
2509 16156 10779 1 109.50000 418.400000
2509 16156 10780 1 109.50000 418.400000
5471 16156 10779 1 109.50000 418.400000
5471 16156 10780 1 109.50000 418.400000
10779 16156 10780 1 109.50000 418.400000
2427 16157 5908 1 109.50000 418.400000
2427 16157 6220 1 109.50000 418.400000
2427 16157 10765 1 109.50000 418.400000
5908 16157 6220 1 109.50000 418.400000
5908 16157 10765 1 109.50000 418.400000
6220 16157 10765 1 109.50000 418.400000
6366 16158 8054 1 109.50000 418.400000
6366 16158 8213 1 109.50000 418.400000
6366 16158 11575 1 109.50000 418.400000
8054 16158 8213 1 109.50000 418.400000
8054 16158 11575 1 109.50000 418.400000
8213 16158 11575 1 109.50000 418.400000
2571 16159 6785 1 109.50000 418.400000
2571 16159 6787 1 109.50000 418.400000
2571 16159 7329 1 109.50000 418.400000
6785 16159 6787 1 109.50000 418.400000
6785 16159 7329 1 109.50000 418.400000
6787 16159 7329 1 109.50000 418.400000
2924 16160 6549 1 109.50000 418.400000
2924 16160 7187 1 109.50000 418.400000
2924 16160 9112 1 109.50000 418.400000
6549 16160 7187 1 109.50000 418.400000
6549 16160 9112 1 109.50000 418.400000
7187 16160 9112 1 109.50000 418.400000
2065 16161 4665 1 109.50000 418.400000
2065 16161 9752 1 109.50000 418.400000
2065 16161 10781 1 109.50000 418.400000
4665 16161 9752 1 109.50000 418.400000
4665 16161 10781 1 109.50000 418.400000
9752 16161 10781 1 109.50000 418.400000
1238 16162 3147 1 109.50000 418.400000
1238 16162 7851 1 109.50000 418.400000
1238 16162 7852 1 109.50000 418.400000
3147 16162 7851 1 109.50000 418.400000
3147 16162 7852 1 109.50000 418.400000
7851 16162 7852 1 109.50000 418.400000
853 16163 1645 1 109.50000 418.400000
853 16163 4565 1 109.50000 418.400000
853 16163 11431 1 109.50000 418.400000
1645 16163 4565 1 109.50000 418.400000
1645 16163 11431 1 109.50000 418.400000
4565 16163 11431 1 109.50000 418.400000
3451 16164 3942 1 109.50000 418.400000
3451 16164 6513 1 109.50000 418.400000
3451 16164 8305 1 109.50000 418.400000
3942 16164 6513 1 109.50000 418.400000
3942 16164 8305 1 109.50000 418.400000
6513 16164 8305 1 109.50000 418.400000
1667 16165 10327 1 109.50000 418.400000
1667 16165 10782 1 109.50000 418.400000
1667 16165 10783 1 109.50000 418.400000
10327 16165 10782 1 109.50000 418.400000
10327 16165 10783 1 109.50000 418.400000
10782 16165 10783 1 109.50000 418.400000
2476 16166 8099 1 109.50000 418.400000
2476 16166 9987 1 109.50000 418.400000
2476 16166 10584 1 109.50000 418.400000
8099 16166 9987 1 109.50000 418.400000
8099 16166 10584 1 109.50000 418.400000
9987 16166 10584 1 109.50000 418.400000
1292 16167 5036 1 109.50000 418.400000
1292 16167 8590 1 109.50000 418.400000
1292 16167 9953 1 109.50000 418.400000
5036 16167 8590 1 109.50000 418.400000
5036 16167 9953 1 109.50000 418.400000
8590 16167 9953 1 109.50000 418.400000
3127 16168 9527 1 109.50000 418.400000
3127 16168 9949 1 109.50000 418.400000
3127 16168 10784 1 109.50000 418.400000
9527 16168 9949 1 109.50000 418.400000
9527 16168 10784 1 109.50000 418.400000
9949 16168 10784 1 109.50000 418.400000
6269 16169 7016 1 109.50000 418.400000
6269 16169 8651 1 109.50000 418.400000
6269 16169 8832 1 109.50000 418.400000
7016 16169 8651 1 109.50000 418.400000
7016 16169 8832 1 109.50000 418.400000
8651 16169 8832 1 109.50000 418.400000
48 16170 3530 1 109.50000 418.400000
48 16170 7660 1 109.50000 418.400000
48 16170 10474 1 109.50000 418.400000
3530 16170 7660 1 109.50000 418.400000
3530 16170 10474 1 109.50000 418.400000
7660 16170 10474 1 109.50000 418.400000
5145 16171 10752 1 109.50000 418.400000
5145 16171 10785 1 109.50000 418.400000
5145 16171 10786 1 109.50000 418.400000
10752 16171 10785 1 109.50000 418.400000
10752 16171 10786 1 109.50000 418.400000
10785 16171 10786 1 109.50000 418.400000
239 16172 3133 1 109.50000 418.400000
239 16172 8794 1 109.50000 418.400000
239 16172 11540 1 109.50000 418.400000
3133 16172 8794 1 109.50000 418.400000
3133 16172 11540 1 109.50000 418.400000
8794 16172 11540 1 109.50000 418.400000
405 16173 9936 1 109.50000 418.400000
405 16173 10224 1 109.50000 418.400000
405 16173 10578 1 109.50000 418.400000
9936 16173 10224 1 109.50000 418.400000
9936 16173 10578 1 109.50000 418.400000
10224 16173 10578 1 109.50000 418.400000
5342 16174 9497 1 109.50000 418.400000
5342 16174 10782 1 109.50000 418.400000
5342 16174 10787 1 109.50000 418.400000
9497 16174 10782 1 109.50000 418.400000
9497 16174 10787 1 109.50000 418.400000
10782 16174 10787 1 109.50000 418.400000
220 16175 3423 1 109.50000 418.400000
220 16175 8220 1 109.50000 418.400000
220 16175 9328 1 109.50000 418.400000
3423 16175 8220 1 109.50000 418.400000
3423 16175 9328 1 109.50000 418.400000
8220 16175 9328 1 109.50000 418.400000
2558 16176 8416 1 109.50000 418.400000
2558 16176 8968 1 109.50000 418.400000
2558 16176 10740 1 109.50000 418.400000
8416 16176 8968 1 109.50000 418.400000
8416 16176 10740 1 109.50000 418.400000
8968 16176 10740 1 109.50000 418.400000
937 16177 6733 1 109.50000 418.400000
937 16177 9652 1 109.50000 418.400000
937 16177 11447 1 109.50000 418.400000
6733 16177 9652 1 109.50000 418.400000
6733 16177 11447 1 109.50000 418.400000
9652 16177 11447 1 109.50000 418.400000
896 16178 4550 1 109.50000 418.400000
896 16178 7220 1 109.50000 418.400000
896 16178 11207 1 109.50000 418.400000
4550 16178 7220 1 109.50000 418.400000
4550 16178 11207 1 109.50000 418.400000
7220 16178 11207 1 109.50000 418.400000
6473 16179 9153 1 109.50000 418.400000
6473 16179 10099 1 109.50000 418.400000
6473 16179 10788 1 109.50000 418.400000
9153 16179 10099 1 109.50000 418.400000
9153 16179 10788 1 109.50000 418.400000
10099 16179 10788 1 109.50000 418.400000
6859 16180 7753 1 109.50000 418.400000
6859 16180 9027 1 109.50000 418.400000
6859 16180 9613 1 109.50000 418.400000
7753 16180 9027 1 109.50000 418.400000
7753 16180 9613 1 109.50000 418.400000
9027 16180 9613 1 109.50000 418.400000
4518 16181 8633 1 109.50000 418.400000
4518 16181 10783 1 109.50000 418.400000
4518 16181 10789 1 109.50000 418.400000
8633 16181 10783 1 109.50000 418.400000
8633 16181 10789 1 109.50000 418.400000
10783 16181 10789 1 109.50000 418.400000
357 16182 6595 1 109.50000 418.400000
357 16182 10790 1 109.50000 418.400000
357 16182 11147 1 109.50000 418.400000
6595 16182 10790 1 109.50000 418.400000
6595 16182 11147 1 109.50000 418.400000
10790 16182 11147 1 109.50000 418.400000
3869 16183 8207 1 109.50000 418.400000
3869 16183 9952 1 109.50000 418.400000
3869 16183 10791 1 109.50000 418.400000
8207 16183 9952 1 109.50000 418.400000
8207 16183 10791 1 109.50000 418.400000
9952 16183 10791 1 109.50000 418.400000
1589 16184 4739 1 109.50000 418.400000
1589 16184 10792 1 109.50000 418.400000
1589 16184 10793 1 109.50000 418.400000
4739 16184 10792 1 109.50000 418.400000
4739 16184 10793 1 109.50000 418.400000
10792 16184 10793 1 109.50000 418.400000
9555 16185 9944 1 109.50000 418.400000
9555 16185 10237 1 109.50000 418.400000
9555 16185 10794 1 109.50000 418.400000
9944 16185 10237 1 109.50000 418.400000
9944 16185 10794 1 109.50000 418.400000
10237 16185 10794 1 109.50000 418.400000
1259 16186 10795 1 109.50000 418.400000
1259 16186 11222 1 109.50000 418.400000
1259 16186 11590 1 109.50000 418.400000
10795 16186 11222 1 109.50000 418.400000
10795 16186 11590 1 109.50000 418.400000
11222 16186 11590 1 109.50000 418.400000
1013 16187 7856 1 109.50000 418.400000
1013 16187 10399 1 109.50000 418.400000
1013 16187 10796 1 109.50000 418.400000
7856 16187 10399 1 109.50000 418.400000
7856 16187 10796 1 109.50000 418.400000
10399 16187 10796 1 109.50000 418.400000
6835 16188 8634 1 109.50000 418.400000
6835 16188 11161 1 109.50000 418.400000
6835 16188 11500 1 109.50000 418.400000
8634 16188 11161 1 109.50000 418.400000
8634 16188 11500 1 109.50000 418.400000
11161 16188 11500 1 109.50000 418.400000
7811 16189 9697 1 109.50000 418.400000
7811 16189 10797 1 109.50000 418.400000
7811 16189 10798 1 109.50000 418.400000
9697 16189 10797 1 109.50000 418.400000
9697 16189 10798 1 109.50000 418.400000
10797 16189 10798 1 109.50000 418.400000
4063 16190 8707 1 109.50000 418.400000
4063 16190 10461 1 109.50000 418.400000
4063 16190 10549 1 109.50000 418.400000
8707 16190 10461 1 109.50000 418.400000
8707 16190 10549 1 109.50000 418.400000
10461 16190 10549 1 109.50000 418.400000
188 16191 9410 1 109.50000 418.400000
188 16191 9711 1 109.50000 418.400000
188 16191 10799 1 109.50000 418.400000
9410 16191 9711 1 109.50000 418.400000
9410 16191 10799 1 109.50000 418.400000
9711 16191 10799 1 109.50000 418.400000
6900 16192 7459 1 109.50000 418.400000
6900 16192 7668 1 109.50000 418.400000
6900 16192 8008 1 109.50000 418.400000
7459 16192 7668 1 109.50000 418.400000
7459 16192 8008 1 109.50000 418.400000
7668 16192 8008 1 109.50000 418.400000
2784 16193 2905 1 109.50000 418.400000
2784 16193 6807 1 109.50000 418.400000
2784 16193 8728 1 109.50000 418.400000
2905 16193 6807 1 109.50000 418.400000
2905 16193 8728 1 109.50000 418.400000
6807 16193 8728 1 109.50000 418.400000
8223 16194 9616 1 109.50000 418.400000
8223 16194 10800 1 109.50000 418.400000
8223 16194 10801 1 109.50000 418.400000
9616 16194 10800 1 109.50000 418.400000
9616 16194 10801 1 109.50000 418.400000
10800 16194 10801 1 109.50000 418.400000
1438 16195 9146 1 109.50000 418.400000
1438 16195 9147 1 109.50000 418.400000
1438 16195 9148 1 109.50000 418.400000
9146 16195 9147 1 109.50000 418.400000
9146 16195 9148 1 109.50000 418.400000
9147 16195 9148 1 109.50000 418.400000
2884 16196 9804 1 109.50000 418.400000
2884 16196 10802 1 109.50000 418.400000
2884 16196 11423 1 109.50000 418.400000
9804 16196 10802 1 109.50000 418.400000
9804 16196 11423 1 109.50000 418.400000
10802 16196 11423 1 109.50000 418.400000
6879 16197 7011 1 109.50000 418.400000
6879 16197 7744 1 109.50000 418.400000
6879 16197 10547 1 109.50000 418.400000
7011 16197 7744 1 109.50000 418.400000
7011 16197 10547 1 109.50000 418.400000
7744 16197 10547 1 109.50000 418.400000
737 16198 6181 1 109.50000 418.400000
737 16198 6248 1 109.50000 418.400000
737 16198 7720 1 109.50000 418.400000
6181 16198 6248 1 109.50000 418.400000
6181 16198 7720 1 109.50000 418.400000
6248 16198 7720 1 109.50000 418.400000
631 16199 1244 1 109.50000 418.400000
631 16199 8077 1 109.50000 418.400000
631 16199 8982 1 109.50000 418.400000
1244 16199 8077 1 109.50000 418.400000
1244 16199 8982 1 109.50000 418.400000
8077 16199 8982 1 109.50000 418.400000
332 16200 1050 1 109.50000 418.400000
332 16200 8787 1 109.50000 418.400000
332 16200 10803 1 109.50000 418.400000
1050 16200 8787 1 109.50000 418.400000
1050 16200 10803 1 109.50000 418.400000
8787 16200 10803 1 109.50000 418.400000
5343 16201 6942 1 109.50000 418.400000
5343 16201 7676 1 109.50000 418.400000
5343 16201 10805 1 109.50000 418.400000
6942 16201 7676 1 109.50000 418.400000
6942 16201 10805 1 109.50000 418.400000
7676 16201 10805 1 109.50000 418.400000
5565 16202 6070 1 109.50000 418.400000
5565 16202 6548 1 109.50000 418.400000
5565 16202 8222 1 109.50000 418.400000
6070 16202 6548 1 109.50000 418.400000
6070 16202 8222 1 109.50000 418.400000
6548 16202 8222 1 109.50000 418.400000
1694 16203 3638 1 109.50000 418.400000
1694 16203 9215 1 109.50000 418.400000
1694 16203 10806 1 109.50000 418.400000
3638 16203 9215 1 109.50000 418.400000
3638 16203 10806 1 109.50000 418.400000
9215 16203 10806 1 109.50000 418.400000
4129 16204 4944 1 109.50000 418.400000
4129 16204 8746 1 109.50000 418.400000
4129 16204 10605 1 109.50000 418.400000
4944 16204 8746 1 109.50000 418.400000
4944 16204 10605 1 109.50000 418.400000
8746 16204 10605 1 109.50000 418.400000
2227 16205 2916 1 109.50000 418.400000
2227 16205 9156 1 109.50000 418.400000
2227 16205 9326 1 109.50000 418.400000
2916 16205 9156 1 109.50000 418.400000
2916 16205 9326 1 109.50000 418.400000
9156 16205 9326 1 109.50000 418.400000
2537 16206 5170 1 109.50000 418.400000
2537 16206 10625 1 109.50000 418.400000
2537 16206 10807 1 109.50000 418.400000
5170 16206 10625 1 109.50000 418.400000
5170 16206 10807 1 109.50000 418.400000
10625 16206 10807 1 109.50000 418.400000
8174 16207 9670 1 109.50000 418.400000
8174 16207 10400 1 109.50000 418.400000
8174 16207 10808 1 109.50000 418.400000
9670 16207 10400 1 109.50000 418.400000
9670 16207 10808 1 109.50000 418.400000
10400 16207 10808 1 109.50000 418.400000
8107 16208 10521 1 109.50000 418.400000
8107 16208 10809 1 109.50000 418.400000
8107 16208 10810 1 109.50000 418.400000
10521 16208 10809 1 109.50000 418.400000
10521 16208 10810 1 109.50000 418.400000
10809 16208 10810 1 109.50000 418.400000
1894 16209 2390 1 109.50000 418.400000
1894 16209 6700 1 109.50000 418.400000
1894 16209 8457 1 109.50000 418.400000
2390 16209 6700 1 109.50000 418.400000
2390 16209 8457 1 109.50000 418.400000
6700 16209 8457 1 109.50000 418.400000
3622 16210 3662 1 109.50000 418.400000
3622 16210 6627 1 109.50000 418.400000
3622 16210 9615 1 109.50000 418.400000
3662 16210 6627 1 109.50000 418.400000
3662 16210 9615 1 109.50000 418.400000
6627 16210 9615 1 109.50000 418.400000
988 16211 6614 1 109.50000 418.400000
988 16211 9531 1 109.50000 418.400000
988 16211 10811 1 109.50000 418.400000
6614 16211 9531 1 109.50000 418.400000
6614 16211 10811 1 109.50000 418.400000
9531 16211 10811 1 109.50000 418.400000
6042 16212 6356 1 109.50000 418.400000
6042 16212 9834 1 109.50000 418.400000
6042 16212 10189 1 109.50000 418.400000
6356 16212 9834 1 109.50000 418.400000
6356 16212 10189 1 109.50000 418.400000
9834 16212 10189 1 109.50000 418.400000
5379 16213 9715 1 109.50000 418.400000
5379 16213 10448 1 109.50000 418.400000
5379 16213 10812 1 109.50000 418.400000
9715 16213 10448 1 109.50000 418.400000
9715 16213 10812 1 109.50000 418.400000
10448 16213 10812 1 109.50000 418.400000
3581 16214 5810 1 109.50000 418.400000
3581 16214 9248 1 109.50000 418.400000
3581 16214 9416 1 109.50000 418.400000
5810 16214 9248 1 109.50000 418.400000
5810 16214 9416 1 109.50000 418.400000
9248 16214 9416 1 109.50000 418.400000
8138 16215 8514 1 109.50000 418.400000
8138 16215 9860 1 109.50000 418.400000
8138 16215 10324 1 109.50000 418.400000
8514 16215 9860 1 109.50000 418.400000
8514 16215 10324 1 109.50000 418.400000
9860 16215 10324 1 109.50000 418.400000
6826 16216 7396 1 109.50000 418.400000
6826 16216 10105 1 109.50000 418.400000
6826 16216 10813 1 109.50000 418.400000
7396 16216 10105 1 109.50000 418.400000
7396 16216 10813 1 109.50000 418.400000
10105 16216 10813 1 109.50000 418.400000
3689 16217 6670 1 109.50000 418.400000
3689 16217 9731 1 109.50000 418.400000
3689 16217 10200 1 109.50000 418.400000
6670 16217 9731 1 109.50000 418.400000
6670 16217 10200 1 109.50000 418.400000
9731 16217 10200 1 109.50000 418.400000
3567 16218 10441 1 109.50000 418.400000
3567 16218 10814 1 109.50000 418.400000
3567 16218 11550 1 109.50000 418.400000
10441 16218 10814 1 109.50000 418.400000
10441 16218 11550 1 109.50000 418.400000
10814 16218 11550 1 109.50000 418.400000
7387 16219 8750 1 109.50000 418.400000
7387 16219 10541 1 109.50000 418.400000
7387 16219 10725 1 109.50000 418.400000
8750 16219 10541 1 109.50000 418.400000
8750 16219 10725 1 109.50000 418.400000
10541 16219 10725 1 109.50000 418.400000
7 16220 7221 1 109.50000 418.400000
7 16220 10404 1 109.50000 418.400000
7 16220 10667 1 109.50000 418.400000
7221 16220 10404 1 109.50000 418.400000
7221 16220 10667 1 109.50000 418.400000
10404 16220 10667 1 109.50000 418.400000
802 16221 4611 1 109.50000 418.400000
802 16221 8038 1 109.50000 418.400000
802 16221 10472 1 109.50000 418.400000
4611 16221 8038 1 109.50000 418.400000
4611 16221 10472 1 109.50000 418.400000
8038 16221 10472 1 109.50000 418.400000
1122 16222 6507 1 109.50000 418.400000
1122 16222 10259 1 109.50000 418.400000
1122 16222 10815 1 109.50000 418.400000
6507 16222 10259 1 109.50000 418.400000
6507 16222 10815 1 109.50000 418.400000
10259 16222 10815 1 109.50000 418.400000
2016 16223 4308 1 109.50000 418.400000
2016 16223 9290 1 109.50000 418.400000
2016 16223 10816 1 109.50000 418.400000
4308 16223 9290 1 109.50000 418.400000
4308 16223 10816 1 109.50000 418.400000
9290 16223 10816 1 109.50000 418.400000
1349 16224 3639 1 109.50000 418.400000
1349 16224 5176 1 109.50000 418.400000
1349 16224 9973 1 109.50000 418.400000
3639 16224 5176 1 109.50000 418.400000
3639 16224 9973 1 109.50000 418.400000
5176 16224 9973 1 109.50000 418.400000
6223 16225 8596 1 109.50000 418.400000
6223 16225 10817 1 109.50000 418.400000
6223 16225 10818 1 109.50000 418.400000
8596 16225 10817 1 109.50000 418.400000
8596 16225 10818 1 109.50000 418.400000
10817 16225 10818 1 109.50000 418.400000
1895 16226 9507 1 109.50000 418.400000
1895 16226 9984 1 109.50000 418.400000
1895 16226 10161 1 109.50000 418.400000
9507 16226 9984 1 109.50000 418.400000
9507 16226 10161 1 109.50000 418.400000
9984 16226 10161 1 109.50000 418.400000
2754 16227 5618 1 109.50000 418.400000
2754 16227 8708 1 109.50000 418.400000
2754 16227 10819 1 109.50000 418.400000
5618 16227 8708 1 109.50000 418.400000
5618 16227 10819 1 109.50000 418.400000
8708 16227 10819 1 109.50000 418.400000
6745 16228 9154 1 109.50000 418.400000
6745 16228 9391 1 109.50000 418.400000
6745 16228 10100 1 109.50000 418.400000
9154 16228 9391 1 109.50000 418.400000
9154 16228 10100 1 109.50000 418.400000
9391 16228 10100 1 109.50000 418.400000
540 16229 835 1 109.50000 418.400000
540 16229 10231 1 109.50000 418.400000
540 16229 10820 1 109.50000 418.400000
835 16229 10231 1 109.50000 418.400000
835 16229 10820 1 109.50000 418.400000
10231 16229 10820 1 109.50000 418.400000
211 16230 2609 1 109.50000 418.400000
211 16230 7355 1 109.50000 418.400000
211 16230 9361 1 109.50000 418.400000
2609 16230 7355 1 109.50000 418.400000
2609 16230 9361 1 109.50000 418.400000
7355 16230 9361 1 109.50000 418.400000
1612 16231 1838 1 109.50000 418.400000
1612 16231 4372 1 109.50000 418.400000
1612 16231 6162 1 109.50000 418.400000
1838 16231 4372 1 109.50000 418.400000
1838 16231 6162 1 109.50000 418.400000
4372 16231 6162 1 109.50000 418.400000
532 16232 5600 1 109.50000 418.400000
532 16232 6344 1 109.50000 418.400000
532 16232 6360 1 109.50000 418.400000
5600 16232 6344 1 109.50000 418.400000
5600 16232 6360 1 109.50000 418.400000
6344 16232 6360 1 109.50000 418.400000
9549 16233 10821 1 109.50000 418.400000
9549 16233 10822 1 109.50000 418.400000
9549 16233 11463 1 109.50000 418.400000
10821 16233 10822 1 109.50000 418.400000
10821 16233 11463 1 109.50000 418.400000
10822 16233 11463 1 109.50000 418.400000
9306 16234 9594 1 109.50000 418.400000
9306 16234 10823 1 109.50000 418.400000
9306 16234 10824 1 109.50000 418.400000
9594 16234 10823 1 109.50000 418.400000
9594 16234 10824 1 109.50000 418.400000
10823 16234 10824 1 109.50000 418.400000
6272 16235 9914 1 109.50000 418.400000
6272 16235 10479 1 109.50000 418.400000
6272 16235 10825 1 109.50000 418.400000
9914 16235 10479 1 109.50000 418.400000
9914 16235 10825 1 109.50000 418.400000
10479 16235 10825 1 109.50000 418.400000
2635 16236 3456 1 109.50000 418.400000
2635 16236 9961 1 109.50000 418.400000
2635 16236 10826 1 109.50000 418.400000
3456 16236 9961 1 109.50000 418.400000
3456 16236 10826 1 109.50000 418.400000
9961 16236 10826 1 109.50000 418.400000
3276 16237 6908 1 109.50000 418.400000
3276 16237 8179 1 109.50000 418.400000
3276 16237 10546 1 109.50000 418.400000
6908 16237 8179 1 109.50000 418.400000
6908 16237 10546 1 109.50000 418.400000
8179 16237 10546 1 109.50000 418.400000
4781 16238 4783 1 109.50000 418.400000
4781 16238 9045 1 109.50000 418.400000
4781 16238 10720 1 109.50000 418.400000
4783 16238 9045 1 109.50000 418.400000
4783 16238 10720 1 109.50000 418.400000
9045 16238 10720 1 109.50000 418.400000
6605 16239 7983 1 109.50000 418.400000
6605 16239 9637 1 109.50000 418.400000
6605 16239 10499 1 109.50000 418.400000
7983 16239 9637 1 109.50000 418.400000
7983 16239 10499 1 109.50000 418.400000
9637 16239 10499 1 109.50000 418.400000
2042 16240 7343 1 109.50000 418.400000
2042 16240 10425 1 109.50000 418.400000
2042 16240 11430 1 109.50000 418.400000
7343 16240 10425 1 109.50000 418.400000
7343 16240 11430 1 109.50000 418.400000
10425 16240 11430 1 109.50000 418.400000
2493 16241 10813 1 109.50000 418.400000
2493 16241 10827 1 109.50000 418.400000
2493 16241 11286 1 109.50000 418.400000
10813 16241 10827 1 109.50000 418.400000
10813 16241 11286 1 109.50000 418.400000
10827 16241 11286 1 109.50000 418.400000
1222 16242 10802 1 109.50000 418.400000
1222 16242 10828 1 109.50000 418.400000
1222 16242 11491 1 109.50000 418.400000
10802 16242 10828 1 109.50000 418.400000
10802 16242 11491 1 109.50000 418.400000
10828 16242 11491 1 109.50000 418.400000
1411 16243 4673 1 109.50000 418.400000
1411 16243 6860 1 109.50000 418.400000
1411 16243 8689 1 109.50000 418.400000
4673 16243 6860 1 109.50000 418.400000
4673 16243 8689 1 109.50000 418.400000
6860 16243 8689 1 109.50000 418.400000
5252 16244 6953 1 109.50000 418.400000
5252 16244 7774 1 109.50000 418.400000
5252 16244 7776 1 109.50000 418.400000
6953 16244 7774 1 109.50000 418.400000
6953 16244 7776 1 109.50000 418.400000
7774 16244 7776 1 109.50000 418.400000
441 16245 7427 1 109.50000 418.400000
441 16245 11185 1 109.50000 418.400000
441 16245 11512 1 109.50000 418.400000
7427 16245 11185 1 109.50000 418.400000
7427 16245 11512 1 109.50000 418.400000
11185 16245 11512 1 109.50000 418.400000
5153 16246 9356 1 109.50000 418.400000
5153 16246 10268 1 109.50000 418.400000
5153 16246 10588 1 109.50000 418.400000
9356 16246 10268 1 109.50000 418.400000
9356 16246 10588 1 109.50000 418.400000
10268 16246 10588 1 109.50000 418.400000
1023 16247 4198 1 109.50000 418.400000
1023 16247 5365 1 109.50000 418.400000
1023 16247 6261 1 109.50000 418.400000
4198 16247 5365 1 109.50000 418.400000
4198 16247 6261 1 109.50000 418.400000
5365 16247 6261 1 109.50000 418.400000
874 16248 7003 1 109.50000 418.400000
874 16248 7121 1 109.50000 418.400000
874 16248 7760 1 109.50000 418.400000
7003 16248 7121 1 109.50000 418.400000
7003 16248 7760 1 109.50000 418.400000
7121 16248 7760 1 109.50000 418.400000
4450 16249 9493 1 109.50000 418.400000
4450 16249 9517 1 109.50000 418.400000
4450 16249 10829 1 109.50000 418.400000
9493 16249 9517 1 109.50000 418.400000
9493 16249 10829 1 109.50000 418.400000
9517 16249 10829 1 109.50000 418.400000
2516 16250 2744 1 109.50000 418.400000
2516 16250 9283 1 109.50000 418.400000
2516 16250 9795 1 109.50000 418.400000
2744 16250 9283 1 109.50000 418.400000
2744 16250 9795 1 109.50000 418.400000
9283 16250 9795 1 109.50000 418.400000
2949 16251 5368 1 109.50000 418.400000
2949 16251 9710 1 109.50000 418.400000
2949 16251 9728 1 109.50000 418.400000
5368 16251 9710 1 109.50000 418.400000
5368 16251 9728 1 109.50000 418.400000
9710 16251 9728 1 109.50000 418.400000
4573 16252 5767 1 109.50000 418.400000
4573 16252 7701 1 109.50000 418.400000
4573 16252 10830 1 109.50000 418.400000
5767 16252 7701 1 109.50000 418.400000
5767 16252 10830 1 109.50000 418.400000
7701 16252 10830 1 109.50000 418.400000
2992 16253 2993 1 109.50000 418.400000
2992 16253 2994 1 109.50000 418.400000
2992 16253 2995 1 109.50000 418.400000
2993 16253 2994 1 109.50000 418.400000
2993 16253 2995 1 109.50000 418.400000
2994 16253 2995 1 109.50000 418.400000
1060 16254 1062 1 109.50000 418.400000
1060 16254 9158 1 109.50000 418.400000
1060 16254 9327 1 109.50000 418.400000
1062 16254 9158 1 109.50000 418.400000
1062 16254 9327 1 109.50000 418.400000
9158 16254 9327 1 109.50000 418.400000
9258 16255 9632 1 109.50000 418.400000
9258 16255 9633 1 109.50000 418.400000
9258 16255 10831 1 109.50000 418.400000
9632 16255 9633 1 109.50000 418.400000
9632 16255 10831 1 109.50000 418.400000
9633 16255 10831 1 109.50000 418.400000
613 16256 9277 1 109.50000 418.400000
613 16256 10785 1 109.50000 418.400000
613 16256 10832 1 109.50000 418.400000
9277 16256 10785 1 109.50000 418.400000
9277 16256 10832 1 109.50000 418.400000
10785 16256 10832 1 109.50000 418.400000
3624 16257 3625 1 109.50000 418.400000
3624 16257 5320 1 109.50000 418.400000
3624 16257 7063 1 109.50000 418.400000
3625 16257 5320 1 109.50000 418.400000
3625 16257 7063 1 109.50000 418.400000
5320 16257 7063 1 109.50000 418.400000
1713 16258 9018 1 109.50000 418.400000
1713 16258 10491 1 109.50000 418.400000
1713 16258 10833 1 109.50000 418.400000
9018 16258 10491 1 109.50000 418.400000
9018 16258 10833 1 109.50000 418.400000
10491 16258 10833 1 109.50000 418.400000
2779 16259 6399 1 109.50000 418.400000
2779 16259 9815 1 109.50000 418.400000
2779 16259 10392 1 109.50000 418.400000
6399 16259 9815 1 109.50000 418.400000
6399 16259 10392 1 109.50000 418.400000
9815 16259 10392 1 109.50000 418.400000
6455 16260 8047 1 109.50000 418.400000
6455 16260 10834 1 109.50000 418.400000
6455 16260 10835 1 109.50000 418.400000
8047 16260 10834 1 109.50000 418.400000
8047 16260 10835 1 109.50000 418.400000
10834 16260 10835 1 109.50000 418.400000
2702 16261 6941 1 109.50000 418.400000
2702 16261 8650 1 109.50000 418.400000
2702 16261 10787 1 109.50000 418.400000
6941 16261 8650 1 109.50000 418.400000
6941 16261 10787 1 109.50000 418.400000
8650 16261 10787 1 109.50000 418.400000
2688 16262 4833 1 109.50000 418.400000
2688 16262 10836 1 109.50000 418.400000
2688 16262 10837 1 109.50000 418.400000
4833 16262 10836 1 109.50000 418.400000
4833 16262 10837 1 109.50000 418.400000
10836 16262 10837 1 109.50000 418.400000
7289 16263 7291 1 109.50000 418.400000
7289 16263 9510 1 109.50000 418.400000
7289 16263 10838 1 109.50000 418.400000
7291 16263 9510 1 109.50000 418.400000
7291 16263 10838 1 109.50000 418.400000
9510 16263 10838 1 109.50000 418.400000
2649 16264 8048 1 109.50000 418.400000
2649 16264 8580 1 109.50000 418.400000
2649 16264 9272 1 109.50000 418.400000
8048 16264 8580 1 109.50000 418.400000
8048 16264 9272 1 109.50000 418.400000
8580 16264 9272 1 109.50000 418.400000
4501 16265 10840 1 109.50000 418.400000
4501 16265 10841 1 109.50000 418.400000
4501 16265 11552 1 109.50000 418.400000
10840 16265 10841 1 109.50000 418.400000
10840 16265 11552 1 109.50000 418.400000
10841 16265 11552 1 109.50000 418.400000
4612 16266 7935 1 109.50000 418.400000
4612 16266 10842 1 109.50000 418.400000
4612 16266 10843 1 109.50000 418.400000
7935 16266 10842 1 109.50000 418.400000
7935 16266 10843 1 109.50000 418.400000
10842 16266 10843 1 109.50000 418.400000
4527 16267 8423 1 109.50000 418.400000
4527 16267 10339 1 109.50000 418.400000
4527 16267 10340 1 109.50000 418.400000
8423 16267 10339 1 109.50000 418.400000
8423 16267 10340 1 109.50000 418.400000
10339 16267 10340 1 109.50000 418.400000
5082 16268 6147 1 109.50000 418.400000
5082 16268 9168 1 109.50000 418.400000
5082 16268 10701 1 109.50000 418.400000
6147 16268 9168 1 109.50000 418.400000
6147 16268 10701 1 109.50000 418.400000
9168 16268 10701 1 109.50000 418.400000
2548 16269 8998 1 109.50000 418.400000
2548 16269 9337 1 109.50000 418.400000
2548 16269 10844 1 109.50000 418.400000
8998 16269 9337 1 109.50000 418.400000
8998 16269 10844 1 109.50000 418.400000
9337 16269 10844 1 109.50000 418.400000
1573 16270 9266 1 109.50000 418.400000
1573 16270 10845 1 109.50000 418.400000
1573 16270 10846 1 109.50000 418.400000
9266 16270 10845 1 109.50000 418.400000
9266 16270 10846 1 109.50000 418.400000
10845 16270 10846 1 109.50000 418.400000
1942 16271 6428 1 109.50000 418.400000
1942 16271 9150 1 109.50000 418.400000
1942 16271 10847 1 109.50000 418.400000
6428 16271 9150 1 109.50000 418.400000
6428 16271 10847 1 109.50000 418.400000
9150 16271 10847 1 109.50000 418.400000
1973 16272 1974 1 109.50000 418.400000
1973 16272 10405 1 109.50000 418.400000
1973 16272 10773 1 109.50000 418.400000
1974 16272 10405 1 109.50000 418.400000
1974 16272 10773 1 109.50000 418.400000
10405 16272 10773 1 109.50000 418.400000
6475 16273 6744 1 109.50000 418.400000
6475 16273 10710 1 109.50000 418.400000
6475 16273 10848 1 109.50000 418.400000
6744 16273 10710 1 109.50000 418.400000
6744 16273 10848 1 109.50000 418.400000
10710 16273 10848 1 109.50000 418.400000
3254 16274 5660 1 109.50000 418.400000
3254 16274 6674 1 109.50000 418.400000
3254 16274 10731 1 109.50000 418.400000
5660 16274 6674 1 109.50000 418.400000
5660 16274 10731 1 109.50000 418.400000
6674 16274 10731 1 109.50000 418.400000
434 16275 8884 1 109.50000 418.400000
434 16275 9954 1 109.50000 418.400000
434 16275 10564 1 109.50000 418.400000
8884 16275 9954 1 109.50000 418.400000
8884 16275 10564 1 109.50000 418.400000
9954 16275 10564 1 109.50000 418.400000
76 16276 2970 1 109.50000 418.400000
76 16276 5209 1 109.50000 418.400000
76 16276 10849 1 109.50000 418.400000
2970 16276 5209 1 109.50000 418.400000
2970 16276 10849 1 109.50000 418.400000
5209 16276 10849 1 109.50000 418.400000
3993 16277 8879 1 109.50000 418.400000
3993 16277 11410 1 109.50000 418.400000
3993 16277 11533 1 109.50000 418.400000
8879 16277 11410 1 109.50000 418.400000
8879 16277 11533 1 109.50000 418.400000
11410 16277 11533 1 109.50000 418.400000
7024 16278 7076 1 109.50000 418.400000
7024 16278 9866 1 109.50000 418.400000
7024 16278 10267 1 109.50000 418.400000
7076 16278 9866 1 109.50000 418.400000
7076 16278 10267 1 109.50000 418.400000
9866 16278 10267 1 109.50000 418.400000
632 16279 3895 1 109.50000 418.400000
632 16279 10192 1 109.50000 418.400000
632 16279 10839 1 109.50000 418.400000
3895 16279 10192 1 109.50000 418.400000
3895 16279 10839 1 109.50000 418.400000
10192 16279 10839 1 109.50000 418.400000
4929 16280 10286 1 109.50000 418.400000
4929 16280 10500 1 109.50000 418.400000
4929 16280 11333 1 109.50000 418.400000
10286 16280 10500 1 109.50000 418.400000
10286 16280 11333 1 109.50000 418.400000
10500 16280 11333 1 109.50000 418.400000
89 16281 929 1 109.50000 418.400000
89 16281 4657 1 109.50000 418.400000
89 16281 10708 1 109.50000 418.400000
929 16281 4657 1 109.50000 418.400000
929 16281 10708 1 109.50000 418.400000
4657 16281 10708 1 109.50000 418.400000
3050 16282 5924 1 109.50000 418.400000
3050 16282 7157 1 109.50000 418.400000
3050 16282 9365 1 109.50000 418.400000
5924 16282 7157 1 109.50000 418.400000
5924 16282 9365 1 109.50000 418.400000
7157 16282 9365 1 109.50000 418.400000
764 16283 2808 1 109.50000 418.400000
764 16283 10850 1 109.50000 418.400000
764 16283 10851 1 109.50000 418.400000
2808 16283 10850 1 109.50000 418.400000
2808 16283 10851 1 109.50000 418.400000
10850 16283 10851 1 109.50000 418.400000
444 16284 1081 1 109.50000 418.400000
444 16284 6772 1 109.50000 418.400000
444 16284 10470 1 109.50000 418.400000
1081 16284 6772 1 109.50000 418.400000
1081 16284 10470 1 109.50000 418.400000
6772 16284 10470 1 109.50000 418.400000
3287 16285 6885 1 109.50000 418.400000
3287 16285 9951 1 109.50000 418.400000
3287 16285 10178 1 109.50000 418.400000
6885 16285 9951 1 109.50000 418.400000
6885 16285 10178 1 109.50000 418.400000
9951 16285 10178 1 109.50000 418.400000
1754 16286 3370 1 109.50000 418.400000
1754 16286 4968 1 109.50000 418.400000
1754 16286 9407 1 109.50000 418.400000
3370 16286 4968 1 109.50000 418.400000
3370 16286 9407 1 109.50000 418.400000
4968 16286 9407 1 109.50000 418.400000
55 16287 8096 1 109.50000 418.400000
55 16287 10658 1 109.50000 418.400000
55 16287 10852 1 109.50000 418.400000
8096 16287 10658 1 109.50000 418.400000
8096 16287 10852 1 109.50000 418.400000
10658 16287 10852 1 109.50000 418.400000
4848 16288 5735 1 109.50000 418.400000
4848 16288 7309 1 109.50000 418.400000
4848 16288 11546 1 109.50000 418.400000
5735 16288 7309 1 109.50000 418.400000
5735 16288 11546 1 109.50000 418.400000
7309 16288 11546 1 109.50000 418.400000
7997 16289 8736 1 109.50000 418.400000
7997 16289 10066 1 109.50000 418.400000
7997 16289 10853 1 109.50000 418.400000
8736 16289 10066 1 109.50000 418.400000
8736 16289 10853 1 109.50000 418.400000
10066 16289 10853 1 109.50000 418.400000
9560 16290 9685 1 109.50000 418.400000
9560 16290 10854 1 109.50000 418.400000
9560 16290 10901 1 109.50000 418.400000
9685 16290 10854 1 109.50000 418.400000
9685 16290 10901 1 109.50000 418.400000
10854 16290 10901 1 109.50000 418.400000
4159 16291 5857 1 109.50000 418.400000
4159 16291 6855 1 109.50000 418.400000
4159 16291 10855 1 109.50000 418.400000
5857 16291 6855 1 109.50000 418.400000
5857 16291 10855 1 109.50000 418.400000
6855 16291 10855 1 109.50000 418.400000
4066 16292 4067 1 109.50000 418.400000
4066 16292 8150 1 109.50000 418.400000
4066 16292 8440 1 109.50000 418.400000
4067 16292 8150 1 109.50000 418.400000
4067 16292 8440 1 109.50000 418.400000
8150 16292 8440 1 109.50000 418.400000
4379 16293 8713 1 109.50000 418.400000
4379 16293 10856 1 109.50000 418.400000
4379 16293 10857 1 109.50000 418.400000
8713 16293 10856 1 109.50000 418.400000
8713 16293 10857 1 109.50000 418.400000
10856 16293 10857 1 109.50000 418.400000
4497 16294 5673 1 109.50000 418.400000
4497 16294 10858 1 109.50000 418.400000
4497 16294 11567 1 109.50000 418.400000
5673 16294 10858 1 109.50000 418.400000
5673 16294 11567 1 109.50000 418.400000
10858 16294 11567 1 109.50000 418.400000
1037 16295 7956 1 109.50000 418.400000
1037 16295 9734 1 109.50000 418.400000
1037 16295 11394 1 109.50000 418.400000
7956 16295 9734 1 109.50000 418.400000
7956 16295 11394 1 109.50000 418.400000
9734 16295 11394 1 109.50000 418.400000
665 16296 666 1 109.50000 418.400000
665 16296 5447 1 109.50000 418.400000
665 16296 10859 1 109.50000 418.400000
666 16296 5447 1 109.50000 418.400000
666 16296 10859 1 109.50000 418.400000
5447 16296 10859 1 109.50000 418.400000
10300 16297 10302 1 109.50000 418.400000
10300 16297 10860 1 109.50000 418.400000
10300 16297 10861 1 109.50000 418.400000
10302 16297 10860 1 109.50000 418.400000
10302 16297 10861 1 109.50000 418.400000
10860 16297 10861 1 109.50000 418.400000
319 16298 839 1 109.50000 418.400000
319 16298 7000 1 109.50000 418.400000
319 16298 10145 1 109.50000 418.400000
839 16298 7000 1 109.50000 418.400000
839 16298 10145 1 109.50000 418.400000
7000 16298 10145 1 109.50000 418.400000
6391 16299 7276 1 109.50000 418.400000
6391 16299 9687 1 109.50000 418.400000
6391 16299 10859 1 109.50000 418.400000
7276 16299 9687 1 109.50000 418.400000
7276 16299 10859 1 109.50000 418.400000
9687 16299 10859 1 109.50000 418.400000
2689 16300 7068 1 109.50000 418.400000
2689 16300 8826 1 109.50000 418.400000
2689 16300 10862 1 109.50000 418.400000
7068 16300 8826 1 109.50000 418.400000
7068 16300 10862 1 109.50000 418.400000
8826 16300 10862 1 109.50000 418.400000
2682 16301 2683 1 109.50000 418.400000
2682 16301 3534 1 109.50000 418.400000
2682 16301 4979 1 109.50000 418.400000
2683 16301 3534 1 109.50000 418.400000
2683 16301 4979 1 109.50000 418.400000
3534 16301 4979 1 109.50000 418.400000
1760 16302 8105 1 109.50000 418.400000
1760 16302 9004 1 109.50000 418.400000
1760 16302 11152 1 109.50000 418.400000
8105 16302 9004 1 109.50000 418.400000
8105 16302 11152 1 109.50000 418.400000
9004 16302 11152 1 109.50000 418.400000
554 16303 2181 1 109.50000 418.400000
554 16303 6780 1 109.50000 418.400000
554 16303 10863 1 109.50000 418.400000
2181 16303 6780 1 109.50000 418.400000
2181 16303 10863 1 109.50000 418.400000
6780 16303 10863 1 109.50000 418.400000
3 16304 2221 1 109.50000 418.400000
3 16304 2491 1 109.50000 418.400000
3 16304 5872 1 109.50000 418.400000
2221 16304 2491 1 109.50000 418.400000
2221 16304 5872 1 109.50000 418.400000
2491 16304 5872 1 109.50000 418.400000
1389 16305 2641 1 109.50000 418.400000
1389 16305 7408 1 109.50000 418.400000
1389 16305 7410 1 109.50000 418.400000
2641 16305 7408 1 109.50000 418.400000
2641 16305 7410 1 109.50000 418.400000
7408 16305 7410 1 109.50000 418.400000
8449 16306 8450 1 109.50000 418.400000
8449 16306 9655 1 109.50000 418.400000
8449 16306 9656 1 109.50000 418.400000
8450 16306 9655 1 109.50000 418.400000
8450 16306 9656 1 109.50000 418.400000
9655 16306 9656 1 109.50000 418.400000
6684 16307 8316 1 109.50000 418.400000
6684 16307 10209 1 109.50000 418.400000
6684 16307 10865 1 109.50000 418.400000
8316 16307 10209 1 109.50000 418.400000
8316 16307 10865 1 109.50000 418.400000
10209 16307 10865 1 109.50000 418.400000
9276 16308 9992 1 109.50000 418.400000
9276 16308 10866 1 109.50000 418.400000
9276 16308 11467 1 109.50000 418.400000
9992 16308 10866 1 109.50000 418.400000
9992 16308 11467 1 109.50000 418.400000
10866 16308 11467 1 109.50000 418.400000
5516 16309 6417 1 109.50000 418.400000
5516 16309 6418 1 109.50000 418.400000
5516 16309 6795 1 109.50000 418.400000
6417 16309 6418 1 109.50000 418.400000
6417 16309 6795 1 109.50000 418.400000
6418 16309 6795 1 109.50000 418.400000
6045 16310 6856 1 109.50000 418.400000
6045 16310 7588 1 109.50000 418.400000
6045 16310 8284 1 109.50000 418.400000
6856 16310 7588 1 109.50000 418.400000
6856 16310 8284 1 109.50000 418.400000
7588 16310 8284 1 109.50000 418.400000
8459 16311 10864 1 109.50000 418.400000
8459 16311 10867 1 109.50000 418.400000
8459 16311 11534 1 109.50000 418.400000
10864 16311 10867 1 109.50000 418.400000
10864 16311 11534 1 109.50000 418.400000
10867 16311 11534 1 109.50000 418.400000
9876 16312 9977 1 109.50000 418.400000
9876 16312 10349 1 109.50000 418.400000
9876 16312 10870 1 109.50000 418.400000
9977 16312 10349 1 109.50000 418.400000
9977 16312 10870 1 109.50000 418.400000
10349 16312 10870 1 109.50000 418.400000
8597 16313 8932 1 109.50000 418.400000
8597 16313 9397 1 109.50000 418.400000
8597 16313 9472 1 109.50000 418.400000
8932 16313 9397 1 109.50000 418.400000
8932 16313 9472 1 109.50000 418.400000
9397 16313 9472 1 109.50000 418.400000
7843 16314 10080 1 109.50000 418.400000
7843 16314 10213 1 109.50000 418.400000
7843 16314 11481 1 109.50000 418.400000
10080 16314 10213 1 109.50000 418.400000
10080 16314 11481 1 109.50000 418.400000
10213 16314 11481 1 109.50000 418.400000
7461 16315 7814 1 109.50000 418.400000
7461 16315 10212 1 109.50000 418.400000
7461 16315 10753 1 109.50000 418.400000
7814 16315 10212 1 109.50000 418.400000
7814 16315 10753 1 109.50000 418.400000
10212 16315 10753 1 109.50000 418.400000
2751 16316 6833 1 109.50000 418.400000
2751 16316 10381 1 109.50000 418.400000
2751 16316 10539 1 109.50000 418.400000
6833 16316 10381 1 109.50000 418.400000
6833 16316 10539 1 109.50000 418.400000
10381 16316 10539 1 109.50000 418.400000
2636 16317 4620 1 109.50000 418.400000
2636 16317 5686 1 109.50000 418.400000
2636 16317 10771 1 109.50000 418.400000
4620 16317 5686 1 109.50000 418.400000
4620 16317 10771 1 109.50000 418.400000
5686 16317 10771 1 109.50000 418.400000
2507 16318 4879 1 109.50000 418.400000
2507 16318 9747 1 109.50000 418.400000
2507 16318 10768 1 109.50000 418.400000
4879 16318 9747 1 109.50000 418.400000
4879 16318 10768 1 109.50000 418.400000
9747 16318 10768 1 109.50000 418.400000
7644 16319 7645 1 109.50000 418.400000
7644 16319 10534 1 109.50000 418.400000
7644 16319 10871 1 109.50000 418.400000
7645 16319 10534 1 109.50000 418.400000
7645 16319 10871 1 109.50000 418.400000
10534 16319 10871 1 109.50000 418.400000
10437 16320 10873 1 109.50000 418.400000
10437 16320 10874 1 109.50000 418.400000
10437 16320 11344 1 109.50000 418.400000
10873 16320 10874 1 109.50000 418.400000
10873 16320 11344 1 109.50000 418.400000
10874 16320 11344 1 109.50000 418.400000
8723 16321 9467 1 109.50000 418.400000
8723 16321 10774 1 109.50000 418.400000
8723 16321 10875 1 109.50000 418.400000
9467 16321 10774 1 109.50000 418.400000
9467 16321 10875 1 109.50000 418.400000
10774 16321 10875 1 109.50000 418.400000
5409 16322 6266 1 109.50000 418.400000
5409 16322 10241 1 109.50000 418.400000
5409 16322 10876 1 109.50000 418.400000
6266 16322 10241 1 109.50000 418.400000
6266 16322 10876 1 109.50000 418.400000
10241 16322 10876 1 109.50000 418.400000
3211 16323 10459 1 109.50000 418.400000
3211 16323 10698 1 109.50000 418.400000
3211 16323 10749 1 109.50000 418.400000
10459 16323 10698 1 109.50000 418.400000
10459 16323 10749 1 109.50000 418.400000
10698 16323 10749 1 109.50000 418.400000
3099 16324 7458 1 109.50000 418.400000
3099 16324 8901 1 109.50000 418.400000
3099 16324 9649 1 109.50000 418.400000
7458 16324 8901 1 109.50000 418.400000
7458 16324 9649 1 109.50000 418.400000
8901 16324 9649 1 109.50000 418.400000
6632 16325 8328 1 109.50000 418.400000
6632 16325 8761 1 109.50000 418.400000
6632 16325 10828 1 109.50000 418.400000
8328 16325 8761 1 109.50000 418.400000
8328 16325 10828 1 109.50000 418.400000
8761 16325 10828 1 109.50000 418.400000
688 16326 6412 1 109.50000 418.400000
688 16326 6413 1 109.50000 418.400000
688 16326 6414 1 109.50000 418.400000
6412 16326 6413 1 109.50000 418.400000
6412 16326 6414 1 109.50000 418.400000
6413 16326 6414 1 109.50000 418.400000
112 16327 2871 1 109.50000 418.400000
112 16327 10878 1 109.50000 418.400000
112 16327 10879 1 109.50000 418.400000
2871 16327 10878 1 109.50000 418.400000
2871 16327 10879 1 109.50000 418.400000
10878 16327 10879 1 109.50000 418.400000
3158 16328 7183 1 109.50000 418.400000
3158 16328 10184 1 109.50000 418.400000
3158 16328 10880 1 109.50000 418.400000
7183 16328 10184 1 109.50000 418.400000
7183 16328 10880 1 109.50000 418.400000
10184 16328 10880 1 109.50000 418.400000
1498 16329 4158 1 109.50000 418.400000
1498 16329 10060 1 109.50000 418.400000
1498 16329 10881 1 109.50000 418.400000
4158 16329 10060 1 109.50000 418.400000
4158 16329 10881 1 109.50000 418.400000
10060 16329 10881 1 109.50000 418.400000
6411 16330 8063 1 109.50000 418.400000
6411 16330 8344 1 109.50000 418.400000
6411 16330 8830 1 109.50000 418.400000
8063 16330 8344 1 109.50000 418.400000
8063 16330 8830 1 109.50000 418.400000
8344 16330 8830 1 109.50000 418.400000
536 16331 3497 1 109.50000 418.400000
536 16331 7195 1 109.50000 418.400000
536 16331 8572 1 109.50000 418.400000
3497 16331 7195 1 109.50000 418.400000
3497 16331 8572 1 109.50000 418.400000
7195 16331 8572 1 109.50000 418.400000
2196 16332 2308 1 109.50000 418.400000
2196 16332 4635 1 109.50000 418.400000
2196 16332 10882 1 109.50000 418.400000
2308 16332 4635 1 109.50000 418.400000
2308 16332 10882 1 109.50000 418.400000
4635 16332 10882 1 109.50000 418.400000
8679 16333 8680 1 109.50000 418.400000
8679 16333 10883 1 109.50000 418.400000
8679 16333 10885 1 109.50000 418.400000
8680 16333 10883 1 109.50000 418.400000
8680 16333 10885 1 109.50000 418.400000
10883 16333 10885 1 109.50000 418.400000
240 16334 6907 1 109.50000 418.400000
240 16334 10718 1 109.50000 418.400000
240 16334 10886 1 109.50000 418.400000
6907 16334 10718 1 109.50000 418.400000
6907 16334 10886 1 109.50000 418.400000
10718 16334 10886 1 109.50000 418.400000
4333 16335 6286 1 109.50000 418.400000
4333 16335 7937 1 109.50000 418.400000
4333 16335 10575 1 109.50000 418.400000
6286 16335 7937 1 109.50000 418.400000
6286 16335 10575 1 109.50000 418.400000
7937 16335 10575 1 109.50000 418.400000
1674 16336 6466 1 109.50000 418.400000
1674 16336 8379 1 109.50000 418.400000
1674 16336 10390 1 109.50000 418.400000
6466 16336 8379 1 109.50000 418.400000
6466 16336 10390 1 109.50000 418.400000
8379 16336 10390 1 109.50000 418.400000
2407 16337 6119 1 109.50000 418.400000
2407 16337 9161 1 109.50000 418.400000
2407 16337 10464 1 109.50000 418.400000
6119 16337 9161 1 109.50000 418.400000
6119 16337 10464 1 109.50000 418.400000
9161 16337 10464 1 109.50000 418.400000
7127 16338 9505 1 109.50000 418.400000
7127 16338 9506 1 109.50000 418.400000
7127 16338 11574 1 109.50000 418.400000
9505 16338 9506 1 109.50000 418.400000
9505 16338 11574 1 109.50000 418.400000
9506 16338 11574 1 109.50000 418.400000
681 16339 1046 1 109.50000 418.400000
681 16339 7032 1 109.50000 418.400000
681 16339 9532 1 109.50000 418.400000
1046 16339 7032 1 109.50000 418.400000
1046 16339 9532 1 109.50000 418.400000
7032 16339 9532 1 109.50000 418.400000
2152 16340 5190 1 109.50000 418.400000
2152 16340 8272 1 109.50000 418.400000
2152 16340 10882 1 109.50000 418.400000
5190 16340 8272 1 109.50000 418.400000
5190 16340 10882 1 109.50000 418.400000
8272 16340 10882 1 109.50000 418.400000
8032 16341 9905 1 109.50000 418.400000
8032 16341 10644 1 109.50000 418.400000
8032 16341 10888 1 109.50000 418.400000
9905 16341 10644 1 109.50000 418.400000
9905 16341 10888 1 109.50000 418.400000
10644 16341 10888 1 109.50000 418.400000
970 16342 7607 1 109.50000 418.400000
970 16342 10240 1 109.50000 418.400000
970 16342 10889 1 109.50000 418.400000
7607 16342 10240 1 109.50000 418.400000
7607 16342 10889 1 109.50000 418.400000
10240 16342 10889 1 109.50000 418.400000
8887 16343 9233 1 109.50000 418.400000
8887 16343 10089 1 109.50000 418.400000
8887 16343 10890 1 109.50000 418.400000
9233 16343 10089 1 109.50000 418.400000
9233 16343 10890 1 109.50000 418.400000
10089 16343 10890 1 109.50000 418.400000
6303 16344 9852 1 109.50000 418.400000
6303 16344 11380 1 109.50000 418.400000
6303 16344 11521 1 109.50000 418.400000
9852 16344 11380 1 109.50000 418.400000
9852 16344 11521 1 109.50000 418.400000
11380 16344 11521 1 109.50000 418.400000
4694 16345 5411 1 109.50000 418.400000
4694 16345 7096 1 109.50000 418.400000
4694 16345 9232 1 109.50000 418.400000
5411 16345 7096 1 109.50000 418.400000
5411 16345 9232 1 109.50000 418.400000
7096 16345 9232 1 109.50000 418.400000
262 16346 9690 1 109.50000 418.400000
262 16346 10891 1 109.50000 418.400000
262 16346 11465 1 109.50000 418.400000
9690 16346 10891 1 109.50000 418.400000
9690 16346 11465 1 109.50000 418.400000
10891 16346 11465 1 109.50000 418.400000
9719 16347 10892 1 109.50000 418.400000
9719 16347 10893 1 109.50000 418.400000
9719 16347 10894 1 109.50000 418.400000
10892 16347 10893 1 109.50000 418.400000
10892 16347 10894 1 109.50000 418.400000
10893 16347 10894 1 109.50000 418.400000
5738 16348 7691 1 109.50000 418.400000
5738 16348 10772 1 109.50000 418.400000
5738 16348 10895 1 109.50000 418.400000
7691 16348 10772 1 109.50000 418.400000
7691 16348 10895 1 109.50000 418.400000
10772 16348 10895 1 109.50000 418.400000
6296 16349 7705 1 109.50000 418.400000
6296 16349 7886 1 109.50000 418.400000
6296 16349 10321 1 109.50000 418.400000
7705 16349 7886 1 109.50000 418.400000
7705 16349 10321 1 109.50000 418.400000
7886 16349 10321 1 109.50000 418.400000
3462 16350 9082 1 109.50000 418.400000
3462 16350 9083 1 109.50000 418.400000
3462 16350 9911 1 109.50000 418.400000
9082 16350 9083 1 109.50000 418.400000
9082 16350 9911 1 109.50000 418.400000
9083 16350 9911 1 109.50000 418.400000
1137 16351 2092 1 109.50000 418.400000
1137 16351 9448 1 109.50000 418.400000
1137 16351 10896 1 109.50000 418.400000
2092 16351 9448 1 109.50000 418.400000
2092 16351 10896 1 109.50000 418.400000
9448 16351 10896 1 109.50000 418.400000
810 16352 811 1 109.50000 418.400000
810 16352 812 1 109.50000 418.400000
810 16352 813 1 109.50000 418.400000
811 16352 812 1 109.50000 418.400000
811 16352 813 1 109.50000 418.400000
812 16352 813 1 109.50000 418.400000
2927 16353 3343 1 109.50000 418.400000
2927 16353 4403 1 109.50000 418.400000
2927 16353 10416 1 109.50000 418.400000
3343 16353 4403 1 109.50000 418.400000
3343 16353 10416 1 109.50000 418.400000
4403 16353 10416 1 109.50000 418.400000
43 16354 2074 1 109.50000 418.400000
43 16354 8661 1 109.50000 418.400000
43 16354 9958 1 109.50000 418.400000
2074 16354 8661 1 109.50000 418.400000
2074 16354 9958 1 109.50000 418.400000
8661 16354 9958 1 109.50000 418.400000
1630 16355 5698 1 109.50000 418.400000
1630 16355 9236 1 109.50000 418.400000
1630 16355 10897 1 109.50000 418.400000
5698 16355 9236 1 109.50000 418.400000
5698 16355 10897 1 109.50000 418.400000
9236 16355 10897 1 109.50000 418.400000
4826 16356 9994 1 109.50000 418.400000
4826 16356 9995 1 109.50000 418.400000
4826 16356 10868 1 109.50000 418.400000
9994 16356 9995 1 109.50000 418.400000
9994 16356 10868 1 109.50000 418.400000
9995 16356 10868 1 109.50000 418.400000
6581 16357 10870 1 109.50000 418.400000
6581 16357 10898 1 109.50000 418.400000
6581 16357 10899 1 109.50000 418.400000
10870 16357 10898 1 109.50000 418.400000
10870 16357 10899 1 109.50000 418.400000
10898 16357 10899 1 109.50000 418.400000
1031 16358 8769 1 109.50000 418.400000
1031 16358 10865 1 109.50000 418.400000
1031 16358 10900 1 109.50000 418.400000
8769 16358 10865 1 109.50000 418.400000
8769 16358 10900 1 109.50000 418.400000
10865 16358 10900 1 109.50000 418.400000
8012 16359 9286 1 109.50000 418.400000
8012 16359 9606 1 109.50000 418.400000
8012 16359 9724 1 109.50000 418.400000
9286 16359 9606 1 109.50000 418.400000
9286 16359 9724 1 109.50000 418.400000
9606 16359 9724 1 109.50000 418.400000
1738 16360 1740 1 109.50000 418.400000
1738 16360 7174 1 109.50000 418.400000
1738 16360 10854 1 109.50000 418.400000
1740 16360 7174 1 109.50000 418.400000
1740 16360 10854 1 109.50000 418.400000
7174 16360 10854 1 109.50000 418.400000
1340 16361 4200 1 109.50000 418.400000
1340 16361 8003 1 109.50000 418.400000
1340 16361 8345 1 109.50000 418.400000
4200 16361 8003 1 109.50000 418.400000
4200 16361 8345 1 109.50000 418.400000
8003 16361 8345 1 109.50000 418.400000
7544 16362 9126 1 109.50000 418.400000
7544 16362 9296 1 109.50000 418.400000
7544 16362 10673 1 109.50000 418.400000
9126 16362 9296 1 109.50000 418.400000
9126 16362 10673 1 109.50000 418.400000
9296 16362 10673 1 109.50000 418.400000
3521 16363 5349 1 109.50000 418.400000
3521 16363 7816 1 109.50000 418.400000
3521 16363 8221 1 109.50000 418.400000
5349 16363 7816 1 109.50000 418.400000
5349 16363 8221 1 109.50000 418.400000
7816 16363 8221 1 109.50000 418.400000
7113 16364 9899 1 109.50000 418.400000
7113 16364 11227 1 109.50000 418.400000
7113 16364 11455 1 109.50000 418.400000
9899 16364 11227 1 109.50000 418.400000
9899 16364 11455 1 109.50000 418.400000
11227 16364 11455 1 109.50000 418.400000
8120 16365 8780 1 109.50000 418.400000
8120 16365 10855 1 109.50000 418.400000
8120 16365 10903 1 109.50000 418.400000
8780 16365 10855 1 109.50000 418.400000
8780 16365 10903 1 109.50000 418.400000
10855 16365 10903 1 109.50000 418.400000
942 16366 1593 1 109.50000 418.400000
942 16366 10403 1 109.50000 418.400000
942 16366 10779 1 109.50000 418.400000
1593 16366 10403 1 109.50000 418.400000
1593 16366 10779 1 109.50000 418.400000
10403 16366 10779 1 109.50000 418.400000
859 16367 6760 1 109.50000 418.400000
859 16367 10904 1 109.50000 418.400000
859 16367 10905 1 109.50000 418.400000
6760 16367 10904 1 109.50000 418.400000
6760 16367 10905 1 109.50000 418.400000
10904 16367 10905 1 109.50000 418.400000
494 16368 3029 1 109.50000 418.400000
494 16368 9585 1 109.50000 418.400000
494 16368 10906 1 109.50000 418.400000
3029 16368 9585 1 109.50000 418.400000
3029 16368 10906 1 109.50000 418.400000
9585 16368 10906 1 109.50000 418.400000
6158 16369 8858 1 109.50000 418.400000
6158 16369 9775 1 109.50000 418.400000
6158 16369 10908 1 109.50000 418.400000
8858 16369 9775 1 109.50000 418.400000
8858 16369 10908 1 109.50000 418.400000
9775 16369 10908 1 109.50000 418.400000
5473 16370 9104 1 109.50000 418.400000
5473 16370 9471 1 109.50000 418.400000
5473 16370 11528 1 109.50000 418.400000
9104 16370 9471 1 109.50000 418.400000
9104 16370 11528 1 109.50000 418.400000
9471 16370 11528 1 109.50000 418.400000
2969 16371 8399 1 109.50000 418.400000
2969 16371 10909 1 109.50000 418.400000
2969 16371 10910 1 109.50000 418.400000
8399 16371 10909 1 109.50000 418.400000
8399 16371 10910 1 109.50000 418.400000
10909 16371 10910 1 109.50000 418.400000
8275 16372 10439 1 109.50000 418.400000
8275 16372 10911 1 109.50000 418.400000
8275 16372 11444 1 109.50000 418.400000
10439 16372 10911 1 109.50000 418.400000
10439 16372 11444 1 109.50000 418.400000
10911 16372 11444 1 109.50000 418.400000
6480 16373 8869 1 109.50000 418.400000
6480 16373 10867 1 109.50000 418.400000
6480 16373 10912 1 109.50000 418.400000
8869 16373 10867 1 109.50000 418.400000
8869 16373 10912 1 109.50000 418.400000
10867 16373 10912 1 109.50000 418.400000
2790 16374 2799 1 109.50000 418.400000
2790 16374 4006 1 109.50000 418.400000
2790 16374 10617 1 109.50000 418.400000
2799 16374 4006 1 109.50000 418.400000
2799 16374 10617 1 109.50000 418.400000
4006 16374 10617 1 109.50000 418.400000
3041 16375 6187 1 109.50000 418.400000
3041 16375 11198 1 109.50000 418.400000
3041 16375 11199 1 109.50000 418.400000
6187 16375 11198 1 109.50000 418.400000
6187 16375 11199 1 109.50000 418.400000
11198 16375 11199 1 109.50000 418.400000
6330 16376 6891 1 109.50000 418.400000
6330 16376 9789 1 109.50000 418.400000
6330 16376 9819 1 109.50000 418.400000
6891 16376 9789 1 109.50000 418.400000
6891 16376 9819 1 109.50000 418.400000
9789 16376 9819 1 109.50000 418.400000
4697 16377 8967 1 109.50000 418.400000
4697 16377 10889 1 109.50000 418.400000
4697 16377 10914 1 109.50000 418.400000
8967 16377 10889 1 109.50000 418.400000
8967 16377 10914 1 109.50000 418.400000
10889 16377 10914 1 109.50000 418.400000
2103 16378 2411 1 109.50000 418.400000
2103 16378 8577 1 109.50000 418.400000
2103 16378 8706 1 109.50000 418.400000
2411 16378 8577 1 109.50000 418.400000
2411 16378 8706 1 109.50000 418.400000
8577 16378 8706 1 109.50000 418.400000
2102 16379 3651 1 109.50000 418.400000
2102 16379 5999 1 109.50000 418.400000
2102 16379 10884 1 109.50000 418.400000
3651 16379 5999 1 109.50000 418.400000
3651 16379 10884 1 109.50000 418.400000
5999 16379 10884 1 109.50000 418.400000
8911 16380 9425 1 109.50000 418.400000
8911 16380 10211 1 109.50000 418.400000
8911 16380 10915 1 109.50000 418.400000
9425 16380 10211 1 109.50000 418.400000
9425 16380 10915 1 109.50000 418.400000
10211 16380 10915 1 109.50000 418.400000
9582 16381 9593 1 109.50000 418.400000
9582 16381 10832 1 109.50000 418.400000
9582 16381 10916 1 109.50000 418.400000
9593 16381 10832 1 109.50000 418.400000
9593 16381 10916 1 109.50000 418.400000
10832 16381 10916 1 109.50000 418.400000
2373 16382 4155 1 109.50000 418.400000
2373 16382 10138 1 109.50000 418.400000
2373 16382 10917 1 109.50000 418.400000
4155 16382 10138 1 109.50000 418.400000
4155 16382 10917 1 109.50000 418.400000
10138 16382 10917 1 109.50000 418.400000
2769 16383 6783 1 109.50000 418.400000
2769 16383 9772 1 109.50000 418.400000
2769 16383 10714 1 109.50000 418.400000
6783 16383 9772 1 109.50000 418.400000
6783 16383 10714 1 109.50000 418.400000
9772 16383 10714 1 109.50000 418.400000
3149 16384 7071 1 109.50000 418.400000
3149 16384 8531 1 109.50000 418.400000
3149 16384 10282 1 109.50000 418.400000
7071 16384 8531 1 109.50000 418.400000
7071 16384 10282 1 109.50000 418.400000
8531 16384 10282 1 109.50000 418.400000
3060 16385 9600 1 109.50000 418.400000
3060 16385 10597 1 109.50000 418.400000
3060 16385 10918 1 109.50000 418.400000
9600 16385 10597 1 109.50000 418.400000
9600 16385 10918 1 109.50000 418.400000
10597 16385 10918 1 109.50000 418.400000
6939 16386 9172 1 109.50000 418.400000
6939 16386 11156 1 109.50000 418.400000
6939 16386 11382 1 109.50000 418.400000
9172 16386 11156 1 109.50000 418.400000
9172 16386 11382 1 109.50000 418.400000
11156 16386 11382 1 109.50000 418.400000
1876 16387 8050 1 109.50000 418.400000
1876 16387 9047 1 109.50000 418.400000
1876 16387 10581 1 109.50000 418.400000
8050 16387 9047 1 109.50000 418.400000
8050 16387 10581 1 109.50000 418.400000
9047 16387 10581 1 109.50000 418.400000
427 16388 7259 1 109.50000 418.400000
427 16388 7685 1 109.50000 418.400000
427 16388 10797 1 109.50000 418.400000
7259 16388 7685 1 109.50000 418.400000
7259 16388 10797 1 109.50000 418.400000
7685 16388 10797 1 109.50000 418.400000
385 16389 4541 1 109.50000 418.400000
385 16389 8253 1 109.50000 418.400000
385 16389 9618 1 109.50000 418.400000
4541 16389 8253 1 109.50000 418.400000
4541 16389 9618 1 109.50000 418.400000
8253 16389 9618 1 109.50000 418.400000
4529 16390 9957 1 109.50000 418.400000
4529 16390 10150 1 109.50000 418.400000
4529 16390 10151 1 109.50000 418.400000
9957 16390 10150 1 109.50000 418.400000
9957 16390 10151 1 109.50000 418.400000
10150 16390 10151 1 109.50000 418.400000
551 16391 2245 1 109.50000 418.400000
551 16391 4003 1 109.50000 418.400000
551 16391 6297 1 109.50000 418.400000
2245 16391 4003 1 109.50000 418.400000
2245 16391 6297 1 109.50000 418.400000
4003 16391 6297 1 109.50000 418.400000
5049 16392 9041 1 109.50000 418.400000
5049 16392 9042 1 109.50000 418.400000
5049 16392 10919 1 109.50000 418.400000
9041 16392 9042 1 109.50000 418.400000
9041 16392 10919 1 109.50000 418.400000
9042 16392 10919 1 109.50000 418.400000
91 16393 9216 1 109.50000 418.400000
91 16393 9362 1 109.50000 418.400000
91 16393 10903 1 109.50000 418.400000
9216 16393 9362 1 109.50000 418.400000
9216 16393 10903 1 109.50000 418.400000
9362 16393 10903 1 109.50000 418.400000
6200 16394 7505 1 109.50000 418.400000
6200 16394 10687 1 109.50000 418.400000
6200 16394 10876 1 109.50000 418.400000
7505 16394 10687 1 109.50000 418.400000
7505 16394 10876 1 109.50000 418.400000
10687 16394 10876 1 109.50000 418.400000
4825 16395 6168 1 109.50000 418.400000
4825 16395 9103 1 109.50000 418.400000
4825 16395 10532 1 109.50000 418.400000
6168 16395 9103 1 109.50000 418.400000
6168 16395 10532 1 109.50000 418.400000
9103 16395 10532 1 109.50000 418.400000
7407 16396 8716 1 109.50000 418.400000
7407 16396 10921 1 109.50000 418.400000
7407 16396 10922 1 109.50000 418.400000
8716 16396 10921 1 109.50000 418.400000
8716 16396 10922 1 109.50000 418.400000
10921 16396 10922 1 109.50000 418.400000
8799 16397 10705 1 109.50000 418.400000
8799 16397 10923 1 109.50000 418.400000
8799 16397 11466 1 109.50000 418.400000
10705 16397 10923 1 109.50000 418.400000
10705 16397 11466 1 109.50000 418.400000
10923 16397 11466 1 109.50000 418.400000
5252 16398 5253 1 109.50000 418.400000
5252 16398 6619 1 109.50000 418.400000
5252 16398 10001 1 109.50000 418.400000
5253 16398 6619 1 109.50000 418.400000
5253 16398 10001 1 109.50000 418.400000
6619 16398 10001 1 109.50000 418.400000
5786 16399 9740 1 109.50000 418.400000
5786 16399 10814 1 109.50000 418.400000
5786 16399 11356 1 109.50000 418.400000
9740 16399 10814 1 109.50000 418.400000
9740 16399 11356 1 109.50000 418.400000
10814 16399 11356 1 109.50000 418.400000
2523 16400 6872 1 109.50000 418.400000
2523 16400 8185 1 109.50000 418.400000
2523 16400 9259 1 109.50000 418.400000
6872 16400 8185 1 109.50000 418.400000
6872 16400 9259 1 109.50000 418.400000
8185 16400 9259 1 109.50000 418.400000
3509 16401 5943 1 109.50000 418.400000
3509 16401 5944 1 109.50000 418.400000
3509 16401 5945 1 109.50000 418.400000
5943 16401 5944 1 109.50000 418.400000
5943 16401 5945 1 109.50000 418.400000
5944 16401 5945 1 109.50000 418.400000
6441 16402 8569 1 109.50000 418.400000
6441 16402 10759 1 109.50000 418.400000
6441 16402 11555 1 109.50000 418.400000
8569 16402 10759 1 109.50000 418.400000
8569 16402 11555 1 109.50000 418.400000
10759 16402 11555 1 109.50000 418.400000
7975 16403 9989 1 109.50000 418.400000
7975 16403 10269 1 109.50000 418.400000
7975 16403 10924 1 109.50000 418.400000
9989 16403 10269 1 109.50000 418.400000
9989 16403 10924 1 109.50000 418.400000
10269 16403 10924 1 109.50000 418.400000
3889 16404 6295 1 109.50000 418.400000
3889 16404 7887 1 109.50000 418.400000
3889 16404 8411 1 109.50000 418.400000
6295 16404 7887 1 109.50000 418.400000
6295 16404 8411 1 109.50000 418.400000
7887 16404 8411 1 109.50000 418.400000
3570 16405 8709 1 109.50000 418.400000
3570 16405 9743 1 109.50000 418.400000
3570 16405 11531 1 109.50000 418.400000
8709 16405 9743 1 109.50000 418.400000
8709 16405 11531 1 109.50000 418.400000
9743 16405 11531 1 109.50000 418.400000
5237 16406 6122 1 109.50000 418.400000
5237 16406 6784 1 109.50000 418.400000
5237 16406 10629 1 109.50000 418.400000
6122 16406 6784 1 109.50000 418.400000
6122 16406 10629 1 109.50000 418.400000
6784 16406 10629 1 109.50000 418.400000
4279 16407 6109 1 109.50000 418.400000
4279 16407 10376 1 109.50000 418.400000
4279 16407 10925 1 109.50000 418.400000
6109 16407 10376 1 109.50000 418.400000
6109 16407 10925 1 109.50000 418.400000
10376 16407 10925 1 109.50000 418.400000
1436 16408 4389 1 109.50000 418.400000
1436 16408 8757 1 109.50000 418.400000
1436 16408 10712 1 109.50000 418.400000
4389 16408 8757 1 109.50000 418.400000
4389 16408 10712 1 109.50000 418.400000
8757 16408 10712 1 109.50000 418.400000
1870 16409 2546 1 109.50000 418.400000
1870 16409 9122 1 109.50000 418.400000
1870 16409 9518 1 109.50000 418.400000
2546 16409 9122 1 109.50000 418.400000
2546 16409 9518 1 109.50000 418.400000
9122 16409 9518 1 109.50000 418.400000
8298 16410 10570 1 109.50000 418.400000
8298 16410 10926 1 109.50000 418.400000
8298 16410 11452 1 109.50000 418.400000
10570 16410 10926 1 109.50000 418.400000
10570 16410 11452 1 109.50000 418.400000
10926 16410 11452 1 109.50000 418.400000
1844 16411 10453 1 109.50000 418.400000
1844 16411 10908 1 109.50000 418.400000
1844 16411 10927 1 109.50000 418.400000
10453 16411 10908 1 109.50000 418.400000
10453 16411 10927 1 109.50000 418.400000
10908 16411 10927 1 109.50000 418.400000
4031 16412 7264 1 109.50000 418.400000
4031 16412 10488 1 109.50000 418.400000
4031 16412 11395 1 109.50000 418.400000
7264 16412 10488 1 109.50000 418.400000
7264 16412 11395 1 109.50000 418.400000
10488 16412 11395 1 109.50000 418.400000
5550 16413 7615 1 109.50000 418.400000
5550 16413 10928 1 109.50000 418.400000
5550 16413 10929 1 109.50000 418.400000
7615 16413 10928 1 109.50000 418.400000
7615 16413 10929 1 109.50000 418.400000
10928 16413 10929 1 109.50000 418.400000
9300 16414 9349 1 109.50000 418.400000
9300 16414 10930 1 109.50000 418.400000
9300 16414 11017 1 109.50000 418.400000
9349 16414 10930 1 109.50000 418.400000
9349 16414 11017 1 109.50000 418.400000
10930 16414 11017 1 109.50000 418.400000
1462 16415 8608 1 109.50000 418.400000
1462 16415 9525 1 109.50000 418.400000
1462 16415 9947 1 109.50000 418.400000
8608 16415 9525 1 109.50000 418.400000
8608 16415 9947 1 109.50000 418.400000
9525 16415 9947 1 109.50000 418.400000
2156 16416 4857 1 109.50000 418.400000
2156 16416 9074 1 109.50000 418.400000
2156 16416 10426 1 109.50000 418.400000
4857 16416 9074 1 109.50000 418.400000
4857 16416 10426 1 109.50000 418.400000
9074 16416 10426 1 109.50000 418.400000
1828 16417 2231 1 109.50000 418.400000
1828 16417 5705 1 109.50000 418.400000
1828 16417 10042 1 109.50000 418.400000
2231 16417 5705 1 109.50000 418.400000
2231 16417 10042 1 109.50000 418.400000
5705 16417 10042 1 109.50000 418.400000
2028 16418 3313 1 109.50000 418.400000
2028 16418 7727 1 109.50000 418.400000
2028 16418 9359 1 109.50000 418.400000
3313 16418 7727 1 109.50000 418.400000
3313 16418 9359 1 109.50000 418.400000
7727 16418 9359 1 109.50000 418.400000
1452 16419 9647 1 109.50000 418.400000
1452 16419 10487 1 109.50000 418.400000
1452 16419 10657 1 109.50000 418.400000
9647 16419 10487 1 109.50000 418.400000
9647 16419 10657 1 109.50000 418.400000
10487 16419 10657 1 109.50000 418.400000
3043 16420 3046 1 109.50000 418.400000
3043 16420 8683 1 109.50000 418.400000
3043 16420 10025 1 109.50000 418.400000
3046 16420 8683 1 109.50000 418.400000
3046 16420 10025 1 109.50000 418.400000
8683 16420 10025 1 109.50000 418.400000
7435 16421 9528 1 109.50000 418.400000
7435 16421 10334 1 109.50000 418.400000
7435 16421 10931 1 109.50000 418.400000
9528 16421 10334 1 109.50000 418.400000
9528 16421 10931 1 109.50000 418.400000
10334 16421 10931 1 109.50000 418.400000
6047 16422 6552 1 109.50000 418.400000
6047 16422 6587 1 109.50000 418.400000
6047 16422 7963 1 109.50000 418.400000
6552 16422 6587 1 109.50000 418.400000
6552 16422 7963 1 109.50000 418.400000
6587 16422 7963 1 109.50000 418.400000
1362 16423 7116 1 109.50000 418.400000
1362 16423 9829 1 109.50000 418.400000
1362 16423 10732 1 109.50000 418.400000
7116 16423 9829 1 109.50000 418.400000
7116 16423 10732 1 109.50000 418.400000
9829 16423 10732 1 109.50000 418.400000
1149 16424 4240 1 109.50000 418.400000
1149 16424 7147 1 109.50000 418.400000
1149 16424 10834 1 109.50000 418.400000
4240 16424 7147 1 109.50000 418.400000
4240 16424 10834 1 109.50000 418.400000
7147 16424 10834 1 109.50000 418.400000
5381 16425 8630 1 109.50000 418.400000
5381 16425 8700 1 109.50000 418.400000
5381 16425 10932 1 109.50000 418.400000
8630 16425 8700 1 109.50000 418.400000
8630 16425 10932 1 109.50000 418.400000
8700 16425 10932 1 109.50000 418.400000
206 16426 4662 1 109.50000 418.400000
206 16426 10277 1 109.50000 418.400000
206 16426 10737 1 109.50000 418.400000
4662 16426 10277 1 109.50000 418.400000
4662 16426 10737 1 109.50000 418.400000
10277 16426 10737 1 109.50000 418.400000
3515 16427 3826 1 109.50000 418.400000
3515 16427 5072 1 109.50000 418.400000
3515 16427 6175 1 109.50000 418.400000
3826 16427 5072 1 109.50000 418.400000
3826 16427 6175 1 109.50000 418.400000
5072 16427 6175 1 109.50000 418.400000
361 16428 2397 1 109.50000 418.400000
361 16428 10504 1 109.50000 418.400000
361 16428 10933 1 109.50000 418.400000
2397 16428 10504 1 109.50000 418.400000
2397 16428 10933 1 109.50000 418.400000
10504 16428 10933 1 109.50000 418.400000
6108 16429 6197 1 109.50000 418.400000
6108 16429 10801 1 109.50000 418.400000
6108 16429 11264 1 109.50000 418.400000
6197 16429 10801 1 109.50000 418.400000
6197 16429 11264 1 109.50000 418.400000
10801 16429 11264 1 109.50000 418.400000
1294 16430 1443 1 109.50000 418.400000
1294 16430 3468 1 109.50000 418.400000
1294 16430 9661 1 109.50000 418.400000
1443 16430 3468 1 109.50000 418.400000
1443 16430 9661 1 109.50000 418.400000
3468 16430 9661 1 109.50000 418.400000
1904 16431 9358 1 109.50000 418.400000
1904 16431 9901 1 109.50000 418.400000
1904 16431 10934 1 109.50000 418.400000
9358 16431 9901 1 109.50000 418.400000
9358 16431 10934 1 109.50000 418.400000
9901 16431 10934 1 109.50000 418.400000
73 16432 3562 1 109.50000 418.400000
73 16432 3564 1 109.50000 418.400000
73 16432 3565 1 109.50000 418.400000
3562 16432 3564 1 109.50000 418.400000
3562 16432 3565 1 109.50000 418.400000
3564 16432 3565 1 109.50000 418.400000
1975 16433 1977 1 109.50000 418.400000
1975 16433 6247 1 109.50000 418.400000
1975 16433 10636 1 109.50000 418.400000
1977 16433 6247 1 109.50000 418.400000
1977 16433 10636 1 109.50000 418.400000
6247 16433 10636 1 109.50000 418.400000
538 16434 6125 1 109.50000 418.400000
538 16434 7819 1 109.50000 418.400000
538 16434 10443 1 109.50000 418.400000
6125 16434 7819 1 109.50000 418.400000
6125 16434 10443 1 109.50000 418.400000
7819 16434 10443 1 109.50000 418.400000
1176 16435 3705 1 109.50000 418.400000
1176 16435 7655 1 109.50000 418.400000
1176 16435 10493 1 109.50000 418.400000
3705 16435 7655 1 109.50000 418.400000
3705 16435 10493 1 109.50000 418.400000
7655 16435 10493 1 109.50000 418.400000
6317 16436 10681 1 109.50000 418.400000
6317 16436 10863 1 109.50000 418.400000
6317 16436 10935 1 109.50000 418.400000
10681 16436 10863 1 109.50000 418.400000
10681 16436 10935 1 109.50000 418.400000
10863 16436 10935 1 109.50000 418.400000
1357 16437 5585 1 109.50000 418.400000
1357 16437 6812 1 109.50000 418.400000
1357 16437 8417 1 109.50000 418.400000
5585 16437 6812 1 109.50000 418.400000
5585 16437 8417 1 109.50000 418.400000
6812 16437 8417 1 109.50000 418.400000
1575 16438 1576 1 109.50000 418.400000
1575 16438 8450 1 109.50000 418.400000
1575 16438 9851 1 109.50000 418.400000
1576 16438 8450 1 109.50000 418.400000
1576 16438 9851 1 109.50000 418.400000
8450 16438 9851 1 109.50000 418.400000
1485 16439 3481 1 109.50000 418.400000
1485 16439 6803 1 109.50000 418.400000
1485 16439 9706 1 109.50000 418.400000
3481 16439 6803 1 109.50000 418.400000
3481 16439 9706 1 109.50000 418.400000
6803 16439 9706 1 109.50000 418.400000
452 16440 6068 1 109.50000 418.400000
452 16440 8026 1 109.50000 418.400000
452 16440 10878 1 109.50000 418.400000
6068 16440 8026 1 109.50000 418.400000
6068 16440 10878 1 109.50000 418.400000
8026 16440 10878 1 109.50000 418.400000
320 16441 3192 1 109.50000 418.400000
320 16441 7764 1 109.50000 418.400000
320 16441 10337 1 109.50000 418.400000
3192 16441 7764 1 109.50000 418.400000
3192 16441 10337 1 109.50000 418.400000
7764 16441 10337 1 109.50000 418.400000
5505 16442 7125 1 109.50000 418.400000
5505 16442 7222 1 109.50000 418.400000
5505 16442 9985 1 109.50000 418.400000
7125 16442 7222 1 109.50000 418.400000
7125 16442 9985 1 109.50000 418.400000
7222 16442 9985 1 109.50000 418.400000
1070 16443 5255 1 109.50000 418.400000
1070 16443 9608 1 109.50000 418.400000
1070 16443 10875 1 109.50000 418.400000
5255 16443 9608 1 109.50000 418.400000
5255 16443 10875 1 109.50000 418.400000
9608 16443 10875 1 109.50000 418.400000
3388 16444 5659 1 109.50000 418.400000
3388 16444 9333 1 109.50000 418.400000
3388 16444 10045 1 109.50000 418.400000
5659 16444 9333 1 109.50000 418.400000
5659 16444 10045 1 109.50000 418.400000
9333 16444 10045 1 109.50000 418.400000
1632 16445 8767 1 109.50000 418.400000
1632 16445 10715 1 109.50000 418.400000
1632 16445 10936 1 109.50000 418.400000
8767 16445 10715 1 109.50000 418.400000
8767 16445 10936 1 109.50000 418.400000
10715 16445 10936 1 109.50000 418.400000
3801 16446 4804 1 109.50000 418.400000
3801 16446 7027 1 109.50000 418.400000
3801 16446 10683 1 109.50000 418.400000
4804 16446 7027 1 109.50000 418.400000
4804 16446 10683 1 109.50000 418.400000
7027 16446 10683 1 109.50000 418.400000
8611 16447 8614 1 109.50000 418.400000
8611 16447 8840 1 109.50000 418.400000
8611 16447 10937 1 109.50000 418.400000
8614 16447 8840 1 109.50000 418.400000
8614 16447 10937 1 109.50000 418.400000
8840 16447 10937 1 109.50000 418.400000
6142 16448 6337 1 109.50000 418.400000
6142 16448 7735 1 109.50000 418.400000
6142 16448 10938 1 109.50000 418.400000
6337 16448 7735 1 109.50000 418.400000
6337 16448 10938 1 109.50000 418.400000
7735 16448 10938 1 109.50000 418.400000
3318 16449 5479 1 109.50000 418.400000
3318 16449 6064 1 109.50000 418.400000
3318 16449 10320 1 109.50000 418.400000
5479 16449 6064 1 109.50000 418.400000
5479 16449 10320 1 109.50000 418.400000
6064 16449 10320 1 109.50000 418.400000
1178 16450 6597 1 109.50000 418.400000
1178 16450 7702 1 109.50000 418.400000
1178 16450 9832 1 109.50000 418.400000
6597 16450 7702 1 109.50000 418.400000
6597 16450 9832 1 109.50000 418.400000
7702 16450 9832 1 109.50000 418.400000
5356 16451 9950 1 109.50000 418.400000
5356 16451 10911 1 109.50000 418.400000
5356 16451 11536 1 109.50000 418.400000
9950 16451 10911 1 109.50000 418.400000
9950 16451 11536 1 109.50000 418.400000
10911 16451 11536 1 109.50000 418.400000
1727 16452 6638 1 109.50000 418.400000
1727 16452 7818 1 109.50000 418.400000
1727 16452 11346 1 109.50000 418.400000
6638 16452 7818 1 109.50000 418.400000
6638 16452 11346 1 109.50000 418.400000
7818 16452 11346 1 109.50000 418.400000
352 16453 1479 1 109.50000 418.400000
352 16453 7944 1 109.50000 418.400000
352 16453 10939 1 109.50000 418.400000
1479 16453 7944 1 109.50000 418.400000
1479 16453 10939 1 109.50000 418.400000
7944 16453 10939 1 109.50000 418.400000
3844 16454 6584 1 109.50000 418.400000
3844 16454 9265 1 109.50000 418.400000
3844 16454 10941 1 109.50000 418.400000
6584 16454 9265 1 109.50000 418.400000
6584 16454 10941 1 109.50000 418.400000
9265 16454 10941 1 109.50000 418.400000
272 16455 6225 1 109.50000 418.400000
272 16455 9827 1 109.50000 418.400000
272 16455 11583 1 109.50000 418.400000
6225 16455 9827 1 109.50000 418.400000
6225 16455 11583 1 109.50000 418.400000
9827 16455 11583 1 109.50000 418.400000
8815 16456 10457 1 109.50000 418.400000
8815 16456 10942 1 109.50000 418.400000
8815 16456 11383 1 109.50000 418.400000
10457 16456 10942 1 109.50000 418.400000
10457 16456 11383 1 109.50000 418.400000
10942 16456 11383 1 109.50000 418.400000
4437 16457 4853 1 109.50000 418.400000
4437 16457 7741 1 109.50000 418.400000
4437 16457 11470 1 109.50000 418.400000
4853 16457 7741 1 109.50000 418.400000
4853 16457 11470 1 109.50000 418.400000
7741 16457 11470 1 109.50000 418.400000
2961 16458 7423 1 109.50000 418.400000
2961 16458 9013 1 109.50000 418.400000
2961 16458 9369 1 109.50000 418.400000
7423 16458 9013 1 109.50000 418.400000
7423 16458 9369 1 109.50000 418.400000
9013 16458 9369 1 109.50000 418.400000
5567 16459 7131 1 109.50000 418.400000
5567 16459 7132 1 109.50000 418.400000
5567 16459 10084 1 109.50000 418.400000
7131 16459 7132 1 109.50000 418.400000
7131 16459 10084 1 109.50000 418.400000
7132 16459 10084 1 109.50000 418.400000
7825 16460 10058 1 109.50000 418.400000
7825 16460 10217 1 109.50000 418.400000
7825 16460 10456 1 109.50000 418.400000
10058 16460 10217 1 109.50000 418.400000
10058 16460 10456 1 109.50000 418.400000
10217 16460 10456 1 109.50000 418.400000
2629 16461 5862 1 109.50000 418.400000
2629 16461 10943 1 109.50000 418.400000
2629 16461 10944 1 109.50000 418.400000
5862 16461 10943 1 109.50000 418.400000
5862 16461 10944 1 109.50000 418.400000
10943 16461 10944 1 109.50000 418.400000
3737 16462 6679 1 109.50000 418.400000
3737 16462 7679 1 109.50000 418.400000
3737 16462 9708 1 109.50000 418.400000
6679 16462 7679 1 109.50000 418.400000
6679 16462 9708 1 109.50000 418.400000
7679 16462 9708 1 109.50000 418.400000
976 16463 3014 1 109.50000 418.400000
976 16463 10811 1 109.50000 418.400000
976 16463 10945 1 109.50000 418.400000
3014 16463 10811 1 109.50000 418.400000
3014 16463 10945 1 109.50000 418.400000
10811 16463 10945 1 109.50000 418.400000
7228 16464 8653 1 109.50000 418.400000
7228 16464 9113 1 109.50000 418.400000
7228 16464 10946 1 109.50000 418.400000
8653 16464 9113 1 109.50000 418.400000
8653 16464 10946 1 109.50000 418.400000
9113 16464 10946 1 109.50000 418.400000
3716 16465 6459 1 109.50000 418.400000
3716 16465 9341 1 109.50000 418.400000
3716 16465 10947 1 109.50000 418.400000
6459 16465 9341 1 109.50000 418.400000
6459 16465 10947 1 109.50000 418.400000
9341 16465 10947 1 109.50000 418.400000
2822 16466 4848 1 109.50000 418.400000
2822 16466 4849 1 109.50000 418.400000
2822 16466 10948 1 109.50000 418.400000
4848 16466 4849 1 109.50000 418.400000
4848 16466 10948 1 109.50000 418.400000
4849 16466 10948 1 109.50000 418.400000
107 16467 2062 1 109.50000 418.400000
107 16467 2768 1 109.50000 418.400000
107 16467 10527 1 109.50000 418.400000
2062 16467 2768 1 109.50000 418.400000
2062 16467 10527 1 109.50000 418.400000
2768 16467 10527 1 109.50000 418.400000
518 16468 9247 1 109.50000 418.400000
518 16468 9744 1 109.50000 418.400000
518 16468 11477 1 109.50000 418.400000
9247 16468 9744 1 109.50000 418.400000
9247 16468 11477 1 109.50000 418.400000
9744 16468 11477 1 109.50000 418.400000
1017 16469 8550 1 109.50000 418.400000
1017 16469 10475 1 109.50000 418.400000
1017 16469 10857 1 109.50000 418.400000
8550 16469 10475 1 109.50000 418.400000
8550 16469 10857 1 109.50000 418.400000
10475 16469 10857 1 109.50000 418.400000
10219 16470 10860 1 109.50000 418.400000
10219 16470 10951 1 109.50000 418.400000
10219 16470 10952 1 109.50000 418.400000
10860 16470 10951 1 109.50000 418.400000
10860 16470 10952 1 109.50000 418.400000
10951 16470 10952 1 109.50000 418.400000
9066 16471 9976 1 109.50000 418.400000
9066 16471 10348 1 109.50000 418.400000
9066 16471 10953 1 109.50000 418.400000
9976 16471 10348 1 109.50000 418.400000
9976 16471 10953 1 109.50000 418.400000
10348 16471 10953 1 109.50000 418.400000
836 16472 4727 1 109.50000 418.400000
836 16472 10013 1 109.50000 418.400000
836 16472 10900 1 109.50000 418.400000
4727 16472 10013 1 109.50000 418.400000
4727 16472 10900 1 109.50000 418.400000
10013 16472 10900 1 109.50000 418.400000
4139 16473 4361 1 109.50000 418.400000
4139 16473 5260 1 109.50000 418.400000
4139 16473 9654 1 109.50000 418.400000
4361 16473 5260 1 109.50000 418.400000
4361 16473 9654 1 109.50000 418.400000
5260 16473 9654 1 109.50000 418.400000
1826 16474 1989 1 109.50000 418.400000
1826 16474 8164 1 109.50000 418.400000
1826 16474 10954 1 109.50000 418.400000
1989 16474 8164 1 109.50000 418.400000
1989 16474 10954 1 109.50000 418.400000
8164 16474 10954 1 109.50000 418.400000
5545 16475 5547 1 109.50000 418.400000
5545 16475 7949 1 109.50000 418.400000
5545 16475 10955 1 109.50000 418.400000
5547 16475 7949 1 109.50000 418.400000
5547 16475 10955 1 109.50000 418.400000
7949 16475 10955 1 109.50000 418.400000
3075 16476 7994 1 109.50000 418.400000
3075 16476 9302 1 109.50000 418.400000
3075 16476 10640 1 109.50000 418.400000
7994 16476 9302 1 109.50000 418.400000
7994 16476 10640 1 109.50000 418.400000
9302 16476 10640 1 109.50000 418.400000
1057 16477 5507 1 109.50000 418.400000
1057 16477 8477 1 109.50000 418.400000
1057 16477 10956 1 109.50000 418.400000
5507 16477 8477 1 109.50000 418.400000
5507 16477 10956 1 109.50000 418.400000
8477 16477 10956 1 109.50000 418.400000
2816 16478 3206 1 109.50000 418.400000
2816 16478 9998 1 109.50000 418.400000
2816 16478 10141 1 109.50000 418.400000
3206 16478 9998 1 109.50000 418.400000
3206 16478 10141 1 109.50000 418.400000
9998 16478 10141 1 109.50000 418.400000
1781 16479 6734 1 109.50000 418.400000
1781 16479 6735 1 109.50000 418.400000
1781 16479 11375 1 109.50000 418.400000
6734 16479 6735 1 109.50000 418.400000
6734 16479 11375 1 109.50000 418.400000
6735 16479 11375 1 109.50000 418.400000
3855 16480 6298 1 109.50000 418.400000
3855 16480 7566 1 109.50000 418.400000
3855 16480 10242 1 109.50000 418.400000
6298 16480 7566 1 109.50000 418.400000
6298 16480 10242 1 109.50000 418.400000
7566 16480 10242 1 109.50000 418.400000
10829 16481 10957 1 109.50000 418.400000
10829 16481 11305 1 109.50000 418.400000
10829 16481 11581 1 109.50000 418.400000
10957 16481 11305 1 109.50000 418.400000
10957 16481 11581 1 109.50000 418.400000
11305 16481 11581 1 109.50000 418.400000
2206 16482 4940 1 109.50000 418.400000
2206 16482 10074 1 109.50000 418.400000
2206 16482 10825 1 109.50000 418.400000
4940 16482 10074 1 109.50000 418.400000
4940 16482 10825 1 109.50000 418.400000
10074 16482 10825 1 109.50000 418.400000
1419 16483 6711 1 109.50000 418.400000
1419 16483 8831 1 109.50000 418.400000
1419 16483 9121 1 109.50000 418.400000
6711 16483 8831 1 109.50000 418.400000
6711 16483 9121 1 109.50000 418.400000
8831 16483 9121 1 109.50000 418.400000
3524 16484 5373 1 109.50000 418.400000
3524 16484 5772 1 109.50000 418.400000
3524 16484 9263 1 109.50000 418.400000
5373 16484 5772 1 109.50000 418.400000
5373 16484 9263 1 109.50000 418.400000
5772 16484 9263 1 109.50000 418.400000
4265 16485 6654 1 109.50000 418.400000
4265 16485 7372 1 109.50000 418.400000
4265 16485 7750 1 109.50000 418.400000
6654 16485 7372 1 109.50000 418.400000
6654 16485 7750 1 109.50000 418.400000
7372 16485 7750 1 109.50000 418.400000
3987 16486 7079 1 109.50000 418.400000
3987 16486 8625 1 109.50000 418.400000
3987 16486 10631 1 109.50000 418.400000
7079 16486 8625 1 109.50000 418.400000
7079 16486 10631 1 109.50000 418.400000
8625 16486 10631 1 109.50000 418.400000
6724 16487 6974 1 109.50000 418.400000
6724 16487 7164 1 109.50000 418.400000
6724 16487 10958 1 109.50000 418.400000
6974 16487 7164 1 109.50000 418.400000
6974 16487 10958 1 109.50000 418.400000
7164 16487 10958 1 109.50000 418.400000
6390 16488 7754 1 109.50000 418.400000
6390 16488 10565 1 109.50000 418.400000
6390 16488 10842 1 109.50000 418.400000
7754 16488 10565 1 109.50000 418.400000
7754 16488 10842 1 109.50000 418.400000
10565 16488 10842 1 109.50000 418.400000
985 16489 10949 1 109.50000 418.400000
985 16489 11404 1 109.50000 418.400000
985 16489 11469 1 109.50000 418.400000
10949 16489 11404 1 109.50000 418.400000
10949 16489 11469 1 109.50000 418.400000
11404 16489 11469 1 109.50000 418.400000
8492 16490 10959 1 109.50000 418.400000
8492 16490 10960 1 109.50000 418.400000
8492 16490 10961 1 109.50000 418.400000
10959 16490 10960 1 109.50000 418.400000
10959 16490 10961 1 109.50000 418.400000
10960 16490 10961 1 109.50000 418.400000
3137 16491 3523 1 109.50000 418.400000
3137 16491 8977 1 109.50000 418.400000
3137 16491 10962 1 109.50000 418.400000
3523 16491 8977 1 109.50000 418.400000
3523 16491 10962 1 109.50000 418.400000
8977 16491 10962 1 109.50000 418.400000
826 16492 2854 1 109.50000 418.400000
826 16492 5089 1 109.50000 418.400000
826 16492 10223 1 109.50000 418.400000
2854 16492 5089 1 109.50000 418.400000
2854 16492 10223 1 109.50000 418.400000
5089 16492 10223 1 109.50000 418.400000
4818 16493 6211 1 109.50000 418.400000
4818 16493 8183 1 109.50000 418.400000
4818 16493 10963 1 109.50000 418.400000
6211 16493 8183 1 109.50000 418.400000
6211 16493 10963 1 109.50000 418.400000
8183 16493 10963 1 109.50000 418.400000
3683 16494 5574 1 109.50000 418.400000
3683 16494 6864 1 109.50000 418.400000
3683 16494 10966 1 109.50000 418.400000
5574 16494 6864 1 109.50000 418.400000
5574 16494 10966 1 109.50000 418.400000
6864 16494 10966 1 109.50000 418.400000
2519 16495 8821 1 109.50000 418.400000
2519 16495 9714 1 109.50000 418.400000
2519 16495 10113 1 109.50000 418.400000
8821 16495 9714 1 109.50000 418.400000
8821 16495 10113 1 109.50000 418.400000
9714 16495 10113 1 109.50000 418.400000
7033 16496 9109 1 109.50000 418.400000
7033 16496 10729 1 109.50000 418.400000
7033 16496 10967 1 109.50000 418.400000
9109 16496 10729 1 109.50000 418.400000
9109 16496 10967 1 109.50000 418.400000
10729 16496 10967 1 109.50000 418.400000
795 16497 5177 1 109.50000 418.400000
795 16497 10806 1 109.50000 418.400000
795 16497 10968 1 109.50000 418.400000
5177 16497 10806 1 109.50000 418.400000
5177 16497 10968 1 109.50000 418.400000
10806 16497 10968 1 109.50000 418.400000
8740 16498 10744 1 109.50000 418.400000
8740 16498 10824 1 109.50000 418.400000
8740 16498 10969 1 109.50000 418.400000
10744 16498 10824 1 109.50000 418.400000
10744 16498 10969 1 109.50000 418.400000
10824 16498 10969 1 109.50000 418.400000
7733 16499 7877 1 109.50000 418.400000
7733 16499 10940 1 109.50000 418.400000
7733 16499 11280 1 109.50000 418.400000
7877 16499 10940 1 109.50000 418.400000
7877 16499 11280 1 109.50000 418.400000
10940 16499 11280 1 109.50000 418.400000
5353 16500 8112 1 109.50000 418.400000
5353 16500 9774 1 109.50000 418.400000
5353 16500 10970 1 109.50000 418.400000
8112 16500 9774 1 109.50000 418.400000
8112 16500 10970 1 109.50000 418.400000
9774 16500 10970 1 109.50000 418.400000
7758 16501 10365 1 109.50000 418.400000
7758 16501 10388 1 109.50000 418.400000
7758 16501 10971 1 109.50000 418.400000
10365 16501 10388 1 109.50000 418.400000
10365 16501 10971 1 109.50000 418.400000
10388 16501 10971 1 109.50000 418.400000
8233 16502 9723 1 109.50000 418.400000
8233 16502 10130 1 109.50000 418.400000
8233 16502 10972 1 109.50000 418.400000
9723 16502 10130 1 109.50000 418.400000
9723 16502 10972 1 109.50000 418.400000
10130 16502 10972 1 109.50000 418.400000
4243 16503 4965 1 109.50000 418.400000
4243 16503 6556 1 109.50000 418.400000
4243 16503 8993 1 109.50000 418.400000
4965 16503 6556 1 109.50000 418.400000
4965 16503 8993 1 109.50000 418.400000
6556 16503 8993 1 109.50000 418.400000
1104 16504 6947 1 109.50000 418.400000
1104 16504 8109 1 109.50000 418.400000
1104 16504 10128 1 109.50000 418.400000
6947 16504 8109 1 109.50000 418.400000
6947 16504 10128 1 109.50000 418.400000
8109 16504 10128 1 109.50000 418.400000
1989 16505 1990 1 109.50000 418.400000
1989 16505 7199 1 109.50000 418.400000
1989 16505 10973 1 109.50000 418.400000
1990 16505 7199 1 109.50000 418.400000
1990 16505 10973 1 109.50000 418.400000
7199 16505 10973 1 109.50000 418.400000
66 16506 5220 1 109.50000 418.400000
66 16506 8262 1 109.50000 418.400000
66 16506 11402 1 109.50000 418.400000
5220 16506 8262 1 109.50000 418.400000
5220 16506 11402 1 109.50000 418.400000
8262 16506 11402 1 109.50000 418.400000
1306 16507 2398 1 109.50000 418.400000
1306 16507 2401 1 109.50000 418.400000
1306 16507 4936 1 109.50000 418.400000
2398 16507 2401 1 109.50000 418.400000
2398 16507 4936 1 109.50000 418.400000
2401 16507 4936 1 109.50000 418.400000
5454 16508 6877 1 109.50000 418.400000
5454 16508 10020 1 109.50000 418.400000
5454 16508 10975 1 109.50000 418.400000
6877 16508 10020 1 109.50000 418.400000
6877 16508 10975 1 109.50000 418.400000
10020 16508 10975 1 109.50000 418.400000
1572 16509 2632 1 109.50000 418.400000
1572 16509 4967 1 109.50000 418.400000
1572 16509 9026 1 109.50000 418.400000
2632 16509 4967 1 109.50000 418.400000
2632 16509 9026 1 109.50000 418.400000
4967 16509 9026 1 109.50000 418.400000
7881 16510 8818 1 109.50000 418.400000
7881 16510 10205 1 109.50000 418.400000
7881 16510 10763 1 109.50000 418.400000
8818 16510 10205 1 109.50000 418.400000
8818 16510 10763 1 109.50000 418.400000
10205 16510 10763 1 109.50000 418.400000
5394 16511 10592 1 109.50000 418.400000
5394 16511 10976 1 109.50000 418.400000
5394 16511 11473 1 109.50000 418.400000
10592 16511 10976 1 109.50000 418.400000
10592 16511 11473 1 109.50000 418.400000
10976 16511 11473 1 109.50000 418.400000
3224 16512 4080 1 109.50000 418.400000
3224 16512 4495 1 109.50000 418.400000
3224 16512 10736 1 109.50000 418.400000
4080 16512 4495 1 109.50000 418.400000
4080 16512 10736 1 109.50000 418.400000
4495 16512 10736 1 109.50000 418.400000
3467 16513 5385 1 109.50000 418.400000
3467 16513 9023 1 109.50000 418.400000
3467 16513 10769 1 109.50000 418.400000
5385 16513 9023 1 109.50000 418.400000
5385 16513 10769 1 109.50000 418.400000
9023 16513 10769 1 109.50000 418.400000
4613 16514 10919 1 109.50000 418.400000
4613 16514 10977 1 109.50000 418.400000
4613 16514 10978 1 109.50000 418.400000
10919 16514 10977 1 109.50000 418.400000
10919 16514 10978 1 109.50000 418.400000
10977 16514 10978 1 109.50000 418.400000
264 16515 1732 1 109.50000 418.400000
264 16515 10494 1 109.50000 418.400000
264 16515 10979 1 109.50000 418.400000
1732 16515 10494 1 109.50000 418.400000
1732 16515 10979 1 109.50000 418.400000
10494 16515 10979 1 109.50000 418.400000
7021 16516 7345 1 109.50000 418.400000
7021 16516 10964 1 109.50000 418.400000
7021 16516 10981 1 109.50000 418.400000
7345 16516 10964 1 109.50000 418.400000
7345 16516 10981 1 109.50000 418.400000
10964 16516 10981 1 109.50000 418.400000
4856 16517 4889 1 109.50000 418.400000
4856 16517 10367 1 109.50000 418.400000
4856 16517 10982 1 109.50000 418.400000
4889 16517 10367 1 109.50000 418.400000
4889 16517 10982 1 109.50000 418.400000
10367 16517 10982 1 109.50000 418.400000
3537 16518 9859 1 109.50000 418.400000
3537 16518 11258 1 109.50000 418.400000
3537 16518 11570 1 109.50000 418.400000
9859 16518 11258 1 109.50000 418.400000
9859 16518 11570 1 109.50000 418.400000
11258 16518 11570 1 109.50000 418.400000
1221 16519 2349 1 109.50000 418.400000
1221 16519 2602 1 109.50000 418.400000
1221 16519 10694 1 109.50000 418.400000
2349 16519 2602 1 109.50000 418.400000
2349 16519 10694 1 109.50000 418.400000
2602 16519 10694 1 109.50000 418.400000
4605 16520 8535 1 109.50000 418.400000
4605 16520 9573 1 109.50000 418.400000
4605 16520 9855 1 109.50000 418.400000
8535 16520 9573 1 109.50000 418.400000
8535 16520 9855 1 109.50000 418.400000
9573 16520 9855 1 109.50000 418.400000
1125 16521 4127 1 109.50000 418.400000
1125 16521 8807 1 109.50000 418.400000
1125 16521 10676 1 109.50000 418.400000
4127 16521 8807 1 109.50000 418.400000
4127 16521 10676 1 109.50000 418.400000
8807 16521 10676 1 109.50000 418.400000
7390 16522 10983 1 109.50000 418.400000
7390 16522 10984 1 109.50000 418.400000
7390 16522 10985 1 109.50000 418.400000
10983 16522 10984 1 109.50000 418.400000
10983 16522 10985 1 109.50000 418.400000
10984 16522 10985 1 109.50000 418.400000
3428 16523 8103 1 109.50000 418.400000
3428 16523 9157 1 109.50000 418.400000
3428 16523 10986 1 109.50000 418.400000
8103 16523 9157 1 109.50000 418.400000
8103 16523 10986 1 109.50000 418.400000
9157 16523 10986 1 109.50000 418.400000
242 16524 3690 1 109.50000 418.400000
242 16524 4646 1 109.50000 418.400000
242 16524 7486 1 109.50000 418.400000
3690 16524 4646 1 109.50000 418.400000
3690 16524 7486 1 109.50000 418.400000
4646 16524 7486 1 109.50000 418.400000
3546 16525 3888 1 109.50000 418.400000
3546 16525 6828 1 109.50000 418.400000
3546 16525 9203 1 109.50000 418.400000
3888 16525 6828 1 109.50000 418.400000
3888 16525 9203 1 109.50000 418.400000
6828 16525 9203 1 109.50000 418.400000
1528 16526 7517 1 109.50000 418.400000
1528 16526 8509 1 109.50000 418.400000
1528 16526 10874 1 109.50000 418.400000
7517 16526 8509 1 109.50000 418.400000
7517 16526 10874 1 109.50000 418.400000
8509 16526 10874 1 109.50000 418.400000
6531 16527 10395 1 109.50000 418.400000
6531 16527 10780 1 109.50000 418.400000
6531 16527 10987 1 109.50000 418.400000
10395 16527 10780 1 109.50000 418.400000
10395 16527 10987 1 109.50000 418.400000
10780 16527 10987 1 109.50000 418.400000
9191 16528 10671 1 109.50000 418.400000
9191 16528 10988 1 109.50000 418.400000
9191 16528 11553 1 109.50000 418.400000
10671 16528 10988 1 109.50000 418.400000
10671 16528 11553 1 109.50000 418.400000
10988 16528 11553 1 109.50000 418.400000
2639 16529 9480 1 109.50000 418.400000
2639 16529 10956 1 109.50000 418.400000
2639 16529 10989 1 109.50000 418.400000
9480 16529 10956 1 109.50000 418.400000
9480 16529 10989 1 109.50000 418.400000
10956 16529 10989 1 109.50000 418.400000
4221 16530 5270 1 109.50000 418.400000
4221 16530 10866 1 109.50000 418.400000
4221 16530 11492 1 109.50000 418.400000
5270 16530 10866 1 109.50000 418.400000
5270 16530 11492 1 109.50000 418.400000
10866 16530 11492 1 109.50000 418.400000
4504 16531 6012 1 109.50000 418.400000
4504 16531 8560 1 109.50000 418.400000
4504 16531 9704 1 109.50000 418.400000
6012 16531 8560 1 109.50000 418.400000
6012 16531 9704 1 109.50000 418.400000
8560 16531 9704 1 109.50000 418.400000
5816 16532 6239 1 109.50000 418.400000
5816 16532 6378 1 109.50000 418.400000
5816 16532 8142 1 109.50000 418.400000
6239 16532 6378 1 109.50000 418.400000
6239 16532 8142 1 109.50000 418.400000
6378 16532 8142 1 109.50000 418.400000
3242 16533 6114 1 109.50000 418.400000
3242 16533 7513 1 109.50000 418.400000
3242 16533 10669 1 109.50000 418.400000
6114 16533 7513 1 109.50000 418.400000
6114 16533 10669 1 109.50000 418.400000
7513 16533 10669 1 109.50000 418.400000
2026 16534 5542 1 109.50000 418.400000
2026 16534 11327 1 109.50000 418.400000
2026 16534 11494 1 109.50000 418.400000
5542 16534 11327 1 109.50000 418.400000
5542 16534 11494 1 109.50000 418.400000
11327 16534 11494 1 109.50000 418.400000
5671 16535 7291 1 109.50000 418.400000
5671 16535 10536 1 109.50000 418.400000
5671 16535 11523 1 109.50000 418.400000
7291 16535 10536 1 109.50000 418.400000
7291 16535 11523 1 109.50000 418.400000
10536 16535 11523 1 109.50000 418.400000
776 16536 7745 1 109.50000 418.400000
776 16536 9363 1 109.50000 418.400000
776 16536 10990 1 109.50000 418.400000
7745 16536 9363 1 109.50000 418.400000
7745 16536 10990 1 109.50000 418.400000
9363 16536 10990 1 109.50000 418.400000
6287 16537 8544 1 109.50000 418.400000
6287 16537 9431 1 109.50000 418.400000
6287 16537 10692 1 109.50000 418.400000
8544 16537 9431 1 109.50000 418.400000
8544 16537 10692 1 109.50000 418.400000
9431 16537 10692 1 109.50000 418.400000
516 16538 3339 1 109.50000 418.400000
516 16538 3596 1 109.50000 418.400000
516 16538 10982 1 109.50000 418.400000
3339 16538 3596 1 109.50000 418.400000
3339 16538 10982 1 109.50000 418.400000
3596 16538 10982 1 109.50000 418.400000
5627 16539 7257 1 109.50000 418.400000
5627 16539 10991 1 109.50000 418.400000
5627 16539 11474 1 109.50000 418.400000
7257 16539 10991 1 109.50000 418.400000
7257 16539 11474 1 109.50000 418.400000
10991 16539 11474 1 109.50000 418.400000
295 16540 7237 1 109.50000 418.400000
295 16540 9160 1 109.50000 418.400000
295 16540 10775 1 109.50000 418.400000
7237 16540 9160 1 109.50000 418.400000
7237 16540 10775 1 109.50000 418.400000
9160 16540 10775 1 109.50000 418.400000
4863 16541 10333 1 109.50000 418.400000
4863 16541 10444 1 109.50000 418.400000
4863 16541 10724 1 109.50000 418.400000
10333 16541 10444 1 109.50000 418.400000
10333 16541 10724 1 109.50000 418.400000
10444 16541 10724 1 109.50000 418.400000
3785 16542 6140 1 109.50000 418.400000
3785 16542 6252 1 109.50000 418.400000
3785 16542 6504 1 109.50000 418.400000
6140 16542 6252 1 109.50000 418.400000
6140 16542 6504 1 109.50000 418.400000
6252 16542 6504 1 109.50000 418.400000
5923 16543 6104 1 109.50000 418.400000
5923 16543 8209 1 109.50000 418.400000
5923 16543 10951 1 109.50000 418.400000
6104 16543 8209 1 109.50000 418.400000
6104 16543 10951 1 109.50000 418.400000
8209 16543 10951 1 109.50000 418.400000
6564 16544 7545 1 109.50000 418.400000
6564 16544 7599 1 109.50000 418.400000
6564 16544 7998 1 109.50000 418.400000
7545 16544 7599 1 109.50000 418.400000
7545 16544 7998 1 109.50000 418.400000
7599 16544 7998 1 109.50000 418.400000
2119 16545 8387 1 109.50000 418.400000
2119 16545 8690 1 109.50000 418.400000
2119 16545 10641 1 109.50000 418.400000
8387 16545 8690 1 109.50000 418.400000
8387 16545 10641 1 109.50000 418.400000
8690 16545 10641 1 109.50000 418.400000
2056 16546 3636 1 109.50000 418.400000
2056 16546 8099 1 109.50000 418.400000
2056 16546 8101 1 109.50000 418.400000
3636 16546 8099 1 109.50000 418.400000
3636 16546 8101 1 109.50000 418.400000
8099 16546 8101 1 109.50000 418.400000
9199 16547 9595 1 109.50000 418.400000
9199 16547 9597 1 109.50000 418.400000
9199 16547 10643 1 109.50000 418.400000
9595 16547 9597 1 109.50000 418.400000
9595 16547 10643 1 109.50000 418.400000
9597 16547 10643 1 109.50000 418.400000
9200 16548 9871 1 109.50000 418.400000
9200 16548 9894 1 109.50000 418.400000
9200 16548 10531 1 109.50000 418.400000
9871 16548 9894 1 109.50000 418.400000
9871 16548 10531 1 109.50000 418.400000
9894 16548 10531 1 109.50000 418.400000
3207 16549 9561 1 109.50000 418.400000
3207 16549 11362 1 109.50000 418.400000
3207 16549 11531 1 109.50000 418.400000
9561 16549 11362 1 109.50000 418.400000
9561 16549 11531 1 109.50000 418.400000
11362 16549 11531 1 109.50000 418.400000
3033 16550 4759 1 109.50000 418.400000
3033 16550 10622 1 109.50000 418.400000
3033 16550 10662 1 109.50000 418.400000
4759 16550 10622 1 109.50000 418.400000
4759 16550 10662 1 109.50000 418.400000
10622 16550 10662 1 109.50000 418.400000
7752 16551 10460 1 109.50000 418.400000
7752 16551 10663 1 109.50000 418.400000
7752 16551 10992 1 109.50000 418.400000
10460 16551 10663 1 109.50000 418.400000
10460 16551 10992 1 109.50000 418.400000
10663 16551 10992 1 109.50000 418.400000
2737 16552 5238 1 109.50000 418.400000
2737 16552 5239 1 109.50000 418.400000
2737 16552 9820 1 109.50000 418.400000
5238 16552 5239 1 109.50000 418.400000
5238 16552 9820 1 109.50000 418.400000
5239 16552 9820 1 109.50000 418.400000
6644 16553 8276 1 109.50000 418.400000
6644 16553 9778 1 109.50000 418.400000
6644 16553 10838 1 109.50000 418.400000
8276 16553 9778 1 109.50000 418.400000
8276 16553 10838 1 109.50000 418.400000
9778 16553 10838 1 109.50000 418.400000
5886 16554 8266 1 109.50000 418.400000
5886 16554 10738 1 109.50000 418.400000
5886 16554 10993 1 109.50000 418.400000
8266 16554 10738 1 109.50000 418.400000
8266 16554 10993 1 109.50000 418.400000
10738 16554 10993 1 109.50000 418.400000
3314 16555 6979 1 109.50000 418.400000
3314 16555 8698 1 109.50000 418.400000
3314 16555 9409 1 109.50000 418.400000
6979 16555 8698 1 109.50000 418.400000
6979 16555 9409 1 109.50000 418.400000
8698 16555 9409 1 109.50000 418.400000
5850 16556 6958 1 109.50000 418.400000
5850 16556 10727 1 109.50000 418.400000
5850 16556 10994 1 109.50000 418.400000
6958 16556 10727 1 109.50000 418.400000
6958 16556 10994 1 109.50000 418.400000
10727 16556 10994 1 109.50000 418.400000
67 16557 1300 1 109.50000 418.400000
67 16557 6408 1 109.50000 418.400000
67 16557 10816 1 109.50000 418.400000
1300 16557 6408 1 109.50000 418.400000
1300 16557 10816 1 109.50000 418.400000
6408 16557 10816 1 109.50000 418.400000
182 16558 8148 1 109.50000 418.400000
182 16558 8149 1 109.50000 418.400000
182 16558 10970 1 109.50000 418.400000
8148 16558 8149 1 109.50000 418.400000
8148 16558 10970 1 109.50000 418.400000
8149 16558 10970 1 109.50000 418.400000
3085 16559 5476 1 109.50000 418.400000
3085 16559 5553 1 109.50000 418.400000
3085 16559 8907 1 109.50000 418.400000
5476 16559 5553 1 109.50000 418.400000
5476 16559 8907 1 109.50000 418.400000
5553 16559 8907 1 109.50000 418.400000
2113 16560 7148 1 109.50000 418.400000
2113 16560 9667 1 109.50000 418.400000
2113 16560 9920 1 109.50000 418.400000
7148 16560 9667 1 109.50000 418.400000
7148 16560 9920 1 109.50000 418.400000
9667 16560 9920 1 109.50000 418.400000
7917 16561 8894 1 109.50000 418.400000
7917 16561 9196 1 109.50000 418.400000
7917 16561 10434 1 109.50000 418.400000
8894 16561 9196 1 109.50000 418.400000
8894 16561 10434 1 109.50000 418.400000
9196 16561 10434 1 109.50000 418.400000
852 16562 7932 1 109.50000 418.400000
852 16562 9921 1 109.50000 418.400000
852 16562 10635 1 109.50000 418.400000
7932 16562 9921 1 109.50000 418.400000
7932 16562 10635 1 109.50000 418.400000
9921 16562 10635 1 109.50000 418.400000
1444 16563 9025 1 109.50000 418.400000
1444 16563 10995 1 109.50000 418.400000
1444 16563 11462 1 109.50000 418.400000
9025 16563 10995 1 109.50000 418.400000
9025 16563 11462 1 109.50000 418.400000
10995 16563 11462 1 109.50000 418.400000
5362 16564 6722 1 109.50000 418.400000
5362 16564 7263 1 109.50000 418.400000
5362 16564 10656 1 109.50000 418.400000
6722 16564 7263 1 109.50000 418.400000
6722 16564 10656 1 109.50000 418.400000
7263 16564 10656 1 109.50000 418.400000
3080 16565 8376 1 109.50000 418.400000
3080 16565 9345 1 109.50000 418.400000
3080 16565 10612 1 109.50000 418.400000
8376 16565 9345 1 109.50000 418.400000
8376 16565 10612 1 109.50000 418.400000
9345 16565 10612 1 109.50000 418.400000
7575 16566 9945 1 109.50000 418.400000
7575 16566 10018 1 109.50000 418.400000
7575 16566 10109 1 109.50000 418.400000
9945 16566 10018 1 109.50000 418.400000
9945 16566 10109 1 109.50000 418.400000
10018 16566 10109 1 109.50000 418.400000
730 16567 6566 1 109.50000 418.400000
730 16567 10067 1 109.50000 418.400000
730 16567 10996 1 109.50000 418.400000
6566 16567 10067 1 109.50000 418.400000
6566 16567 10996 1 109.50000 418.400000
10067 16567 10996 1 109.50000 418.400000
1488 16568 3765 1 109.50000 418.400000
1488 16568 10469 1 109.50000 418.400000
1488 16568 10997 1 109.50000 418.400000
3765 16568 10469 1 109.50000 418.400000
3765 16568 10997 1 109.50000 418.400000
10469 16568 10997 1 109.50000 418.400000
1637 16569 5766 1 109.50000 418.400000
1637 16569 5989 1 109.50000 418.400000
1637 16569 9182 1 109.50000 418.400000
5766 16569 5989 1 109.50000 418.400000
5766 16569 9182 1 109.50000 418.400000
5989 16569 9182 1 109.50000 418.400000
4339 16570 9625 1 109.50000 418.400000
4339 16570 10427 1 109.50000 418.400000
4339 16570 10820 1 109.50000 418.400000
9625 16570 10427 1 109.50000 418.400000
9625 16570 10820 1 109.50000 418.400000
10427 16570 10820 1 109.50000 418.400000
4380 16571 5548 1 109.50000 418.400000
4380 16571 9705 1 109.50000 418.400000
4380 16571 9707 1 109.50000 418.400000
5548 16571 9705 1 109.50000 418.400000
5548 16571 9707 1 109.50000 418.400000
9705 16571 9707 1 109.50000 418.400000
1183 16572 6799 1 109.50000 418.400000
1183 16572 7163 1 109.50000 418.400000
1183 16572 10977 1 109.50000 418.400000
6799 16572 7163 1 109.50000 418.400000
6799 16572 10977 1 109.50000 418.400000
7163 16572 10977 1 109.50000 418.400000
4190 16573 7090 1 109.50000 418.400000
4190 16573 7634 1 109.50000 418.400000
4190 16573 10599 1 109.50000 418.400000
7090 16573 7634 1 109.50000 418.400000
7090 16573 10599 1 109.50000 418.400000
7634 16573 10599 1 109.50000 418.400000
4217 16574 6060 1 109.50000 418.400000
4217 16574 10735 1 109.50000 418.400000
4217 16574 10998 1 109.50000 418.400000
6060 16574 10735 1 109.50000 418.400000
6060 16574 10998 1 109.50000 418.400000
10735 16574 10998 1 109.50000 418.400000
100 16575 4258 1 109.50000 418.400000
100 16575 7890 1 109.50000 418.400000
100 16575 9996 1 109.50000 418.400000
4258 16575 7890 1 109.50000 418.400000
4258 16575 9996 1 109.50000 418.400000
7890 16575 9996 1 109.50000 418.400000
5289 16576 7853 1 109.50000 418.400000
5289 16576 10999 1 109.50000 418.400000
5289 16576 11000 1 109.50000 418.400000
7853 16576 10999 1 109.50000 418.400000
7853 16576 11000 1 109.50000 418.400000
10999 16576 11000 1 109.50000 418.400000
7047 16577 7541 1 109.50000 418.400000
7047 16577 11001 1 109.50000 418.400000
7047 16577 11002 1 109.50000 418.400000
7541 16577 11001 1 109.50000 418.400000
7541 16577 11002 1 109.50000 418.400000
11001 16577 11002 1 109.50000 418.400000
1179 16578 5263 1 109.50000 418.400000
1179 16578 5636 1 109.50000 418.400000
1179 16578 7160 1 109.50000 418.400000
5263 16578 5636 1 109.50000 418.400000
5263 16578 7160 1 109.50000 418.400000
5636 16578 7160 1 109.50000 418.400000
2409 16579 4398 1 109.50000 418.400000
2409 16579 11003 1 109.50000 418.400000
2409 16579 11004 1 109.50000 418.400000
4398 16579 11003 1 109.50000 418.400000
4398 16579 11004 1 109.50000 418.400000
11003 16579 11004 1 109.50000 418.400000
5244 16580 6271 1 109.50000 418.400000
5244 16580 9675 1 109.50000 418.400000
5244 16580 10204 1 109.50000 418.400000
6271 16580 9675 1 109.50000 418.400000
6271 16580 10204 1 109.50000 418.400000
9675 16580 10204 1 109.50000 418.400000
6144 16581 6987 1 109.50000 418.400000
6144 16581 8304 1 109.50000 418.400000
6144 16581 11335 1 109.50000 418.400000
6987 16581 8304 1 109.50000 418.400000
6987 16581 11335 1 109.50000 418.400000
8304 16581 11335 1 109.50000 418.400000
901 16582 4360 1 109.50000 418.400000
901 16582 6944 1 109.50000 418.400000
901 16582 8640 1 109.50000 418.400000
4360 16582 6944 1 109.50000 418.400000
4360 16582 8640 1 109.50000 418.400000
6944 16582 8640 1 109.50000 418.400000
6432 16583 8889 1 109.50000 418.400000
6432 16583 9221 1 109.50000 418.400000
6432 16583 9786 1 109.50000 418.400000
8889 16583 9221 1 109.50000 418.400000
8889 16583 9786 1 109.50000 418.400000
9221 16583 9786 1 109.50000 418.400000
231 16584 6718 1 109.50000 418.400000
231 16584 9372 1 109.50000 418.400000
231 16584 10016 1 109.50000 418.400000
6718 16584 9372 1 109.50000 418.400000
6718 16584 10016 1 109.50000 418.400000
9372 16584 10016 1 109.50000 418.400000
1784 16585 2536 1 109.50000 418.400000
1784 16585 4410 1 109.50000 418.400000
1784 16585 4757 1 109.50000 418.400000
2536 16585 4410 1 109.50000 418.400000
2536 16585 4757 1 109.50000 418.400000
4410 16585 4757 1 109.50000 418.400000
1728 16586 9257 1 109.50000 418.400000
1728 16586 9435 1 109.50000 418.400000
1728 16586 9726 1 109.50000 418.400000
9257 16586 9435 1 109.50000 418.400000
9257 16586 9726 1 109.50000 418.400000
9435 16586 9726 1 109.50000 418.400000
1700 16587 3399 1 109.50000 418.400000
1700 16587 10535 1 109.50000 418.400000
1700 16587 11005 1 109.50000 418.400000
3399 16587 10535 1 109.50000 418.400000
3399 16587 11005 1 109.50000 418.400000
10535 16587 11005 1 109.50000 418.400000
6680 16588 7140 1 109.50000 418.400000
6680 16588 10926 1 109.50000 418.400000
6680 16588 10928 1 109.50000 418.400000
7140 16588 10926 1 109.50000 418.400000
7140 16588 10928 1 109.50000 418.400000
10926 16588 10928 1 109.50000 418.400000
3795 16589 4990 1 109.50000 418.400000
3795 16589 8824 1 109.50000 418.400000
3795 16589 10962 1 109.50000 418.400000
4990 16589 8824 1 109.50000 418.400000
4990 16589 10962 1 109.50000 418.400000
8824 16589 10962 1 109.50000 418.400000
2259 16590 5129 1 109.50000 418.400000
2259 16590 7335 1 109.50000 418.400000
2259 16590 9294 1 109.50000 418.400000
5129 16590 7335 1 109.50000 418.400000
5129 16590 9294 1 109.50000 418.400000
7335 16590 9294 1 109.50000 418.400000
708 16591 7806 1 109.50000 418.400000
708 16591 10841 1 109.50000 418.400000
708 16591 11221 1 109.50000 418.400000
7806 16591 10841 1 109.50000 418.400000
7806 16591 11221 1 109.50000 418.400000
10841 16591 11221 1 109.50000 418.400000
2198 16592 3711 1 109.50000 418.400000
2198 16592 6114 1 109.50000 418.400000
2198 16592 10275 1 109.50000 418.400000
3711 16592 6114 1 109.50000 418.400000
3711 16592 10275 1 109.50000 418.400000
6114 16592 10275 1 109.50000 418.400000
4852 16593 8378 1 109.50000 418.400000
4852 16593 8933 1 109.50000 418.400000
4852 16593 9279 1 109.50000 418.400000
8378 16593 8933 1 109.50000 418.400000
8378 16593 9279 1 109.50000 418.400000
8933 16593 9279 1 109.50000 418.400000
8429 16594 11007 1 109.50000 418.400000
8429 16594 11008 1 109.50000 418.400000
8429 16594 11228 1 109.50000 418.400000
11007 16594 11008 1 109.50000 418.400000
11007 16594 11228 1 109.50000 418.400000
11008 16594 11228 1 109.50000 418.400000
1293 16595 8472 1 109.50000 418.400000
1293 16595 9646 1 109.50000 418.400000
1293 16595 10563 1 109.50000 418.400000
8472 16595 9646 1 109.50000 418.400000
8472 16595 10563 1 109.50000 418.400000
9646 16595 10563 1 109.50000 418.400000
789 16596 1245 1 109.50000 418.400000
789 16596 10484 1 109.50000 418.400000
789 16596 10955 1 109.50000 418.400000
1245 16596 10484 1 109.50000 418.400000
1245 16596 10955 1 109.50000 418.400000
10484 16596 10955 1 109.50000 418.400000
6425 16597 10611 1 109.50000 418.400000
6425 16597 11009 1 109.50000 418.400000
6425 16597 11380 1 109.50000 418.400000
10611 16597 11009 1 109.50000 418.400000
10611 16597 11380 1 109.50000 418.400000
11009 16597 11380 1 109.50000 418.400000
5058 16598 9500 1 109.50000 418.400000
5058 16598 9650 1 109.50000 418.400000
5058 16598 10758 1 109.50000 418.400000
9500 16598 9650 1 109.50000 418.400000
9500 16598 10758 1 109.50000 418.400000
9650 16598 10758 1 109.50000 418.400000
6091 16599 8522 1 109.50000 418.400000
6091 16599 8902 1 109.50000 418.400000
6091 16599 10925 1 109.50000 418.400000
8522 16599 8902 1 109.50000 418.400000
8522 16599 10925 1 109.50000 418.400000
8902 16599 10925 1 109.50000 418.400000
2354 16600 6078 1 109.50000 418.400000
2354 16600 9913 1 109.50000 418.400000
2354 16600 10969 1 109.50000 418.400000
6078 16600 9913 1 109.50000 418.400000
6078 16600 10969 1 109.50000 418.400000
9913 16600 10969 1 109.50000 418.400000
2518 16601 3100 1 109.50000 418.400000
2518 16601 10950 1 109.50000 418.400000
2518 16601 11143 1 109.50000 418.400000
3100 16601 10950 1 109.50000 418.400000
3100 16601 11143 1 109.50000 418.400000
10950 16601 11143 1 109.50000 418.400000
3470 16602 10046 1 109.50000 418.400000
3470 16602 10995 1 109.50000 418.400000
3470 16602 11310 1 109.50000 418.400000
10046 16602 10995 1 109.50000 418.400000
10046 16602 11310 1 109.50000 418.400000
10995 16602 11310 1 109.50000 418.400000
4416 16603 8402 1 109.50000 418.400000
4416 16603 10187 1 109.50000 418.400000
4416 16603 10435 1 109.50000 418.400000
8402 16603 10187 1 109.50000 418.400000
8402 16603 10435 1 109.50000 418.400000
10187 16603 10435 1 109.50000 418.400000
5080 16604 7318 1 109.50000 418.400000
5080 16604 8888 1 109.50000 418.400000
5080 16604 10543 1 109.50000 418.400000
7318 16604 8888 1 109.50000 418.400000
7318 16604 10543 1 109.50000 418.400000
8888 16604 10543 1 109.50000 418.400000
4899 16605 10466 1 109.50000 418.400000
4899 16605 10523 1 109.50000 418.400000
4899 16605 11010 1 109.50000 418.400000
10466 16605 10523 1 109.50000 418.400000
10466 16605 11010 1 109.50000 418.400000
10523 16605 11010 1 109.50000 418.400000
998 16606 2402 1 109.50000 418.400000
998 16606 8006 1 109.50000 418.400000
998 16606 9185 1 109.50000 418.400000
2402 16606 8006 1 109.50000 418.400000
2402 16606 9185 1 109.50000 418.400000
8006 16606 9185 1 109.50000 418.400000
8574 16607 8583 1 109.50000 418.400000
8574 16607 9543 1 109.50000 418.400000
8574 16607 10905 1 109.50000 418.400000
8583 16607 9543 1 109.50000 418.400000
8583 16607 10905 1 109.50000 418.400000
9543 16607 10905 1 109.50000 418.400000
2599 16608 5100 1 109.50000 418.400000
2599 16608 11011 1 109.50000 418.400000
2599 16608 11072 1 109.50000 418.400000
5100 16608 11011 1 109.50000 418.400000
5100 16608 11072 1 109.50000 418.400000
11011 16608 11072 1 109.50000 418.400000
879 16609 5096 1 109.50000 418.400000
879 16609 7642 1 109.50000 418.400000
879 16609 10136 1 109.50000 418.400000
5096 16609 7642 1 109.50000 418.400000
5096 16609 10136 1 109.50000 418.400000
7642 16609 10136 1 109.50000 418.400000
1967 16610 4386 1 109.50000 418.400000
1967 16610 8123 1 109.50000 418.400000
1967 16610 9794 1 109.50000 418.400000
4386 16610 8123 1 109.50000 418.400000
4386 16610 9794 1 109.50000 418.400000
8123 16610 9794 1 109.50000 418.400000
548 16611 1880 1 109.50000 418.400000
548 16611 3857 1 109.50000 418.400000
548 16611 11012 1 109.50000 418.400000
1880 16611 3857 1 109.50000 418.400000
1880 16611 11012 1 109.50000 418.400000
3857 16611 11012 1 109.50000 418.400000
2242 16612 9120 1 109.50000 418.400000
2242 16612 10927 1 109.50000 418.400000
2242 16612 11013 1 109.50000 418.400000
9120 16612 10927 1 109.50000 418.400000
9120 16612 11013 1 109.50000 418.400000
10927 16612 11013 1 109.50000 418.400000
5366 16613 5725 1 109.50000 418.400000
5366 16613 10980 1 109.50000 418.400000
5366 16613 11014 1 109.50000 418.400000
5725 16613 10980 1 109.50000 418.400000
5725 16613 11014 1 109.50000 418.400000
10980 16613 11014 1 109.50000 418.400000
5632 16614 5633 1 109.50000 418.400000
5632 16614 10169 1 109.50000 418.400000
5632 16614 11015 1 109.50000 418.400000
5633 16614 10169 1 109.50000 418.400000
5633 16614 11015 1 109.50000 418.400000
10169 16614 11015 1 109.50000 418.400000
2006 16615 7362 1 109.50000 418.400000
2006 16615 7915 1 109.50000 418.400000
2006 16615 11016 1 109.50000 418.400000
7362 16615 7915 1 109.50000 418.400000
7362 16615 11016 1 109.50000 418.400000
7915 16615 11016 1 109.50000 418.400000
1403 16616 4357 1 109.50000 418.400000
1403 16616 10739 1 109.50000 418.400000
1403 16616 10930 1 109.50000 418.400000
4357 16616 10739 1 109.50000 418.400000
4357 16616 10930 1 109.50000 418.400000
10739 16616 10930 1 109.50000 418.400000
9604 16617 10163 1 109.50000 418.400000
9604 16617 11018 1 109.50000 418.400000
9604 16617 11019 1 109.50000 418.400000
10163 16617 11018 1 109.50000 418.400000
10163 16617 11019 1 109.50000 418.400000
11018 16617 11019 1 109.50000 418.400000
6848 16618 7155 1 109.50000 418.400000
6848 16618 10697 1 109.50000 418.400000
6848 16618 10952 1 109.50000 418.400000
7155 16618 10697 1 109.50000 418.400000
7155 16618 10952 1 109.50000 418.400000
10697 16618 10952 1 109.50000 418.400000
661 16619 1304 1 109.50000 418.400000
661 16619 7350 1 109.50000 418.400000
661 16619 10338 1 109.50000 418.400000
1304 16619 7350 1 109.50000 418.400000
1304 16619 10338 1 109.50000 418.400000
7350 16619 10338 1 109.50000 418.400000
3021 16620 7052 1 109.50000 418.400000
3021 16620 9781 1 109.50000 418.400000
3021 16620 9930 1 109.50000 418.400000
7052 16620 9781 1 109.50000 418.400000
7052 16620 9930 1 109.50000 418.400000
9781 16620 9930 1 109.50000 418.400000
4790 16621 9021 1 109.50000 418.400000
4790 16621 10756 1 109.50000 418.400000
4790 16621 11290 1 109.50000 418.400000
9021 16621 10756 1 109.50000 418.400000
9021 16621 11290 1 109.50000 418.400000
10756 16621 11290 1 109.50000 418.400000
7091 16622 7092 1 109.50000 418.400000
7091 16622 8208 1 109.50000 418.400000
7091 16622 10301 1 109.50000 418.400000
7092 16622 8208 1 109.50000 418.400000
7092 16622 10301 1 109.50000 418.400000
8208 16622 10301 1 109.50000 418.400000
5699 16623 8064 1 109.50000 418.400000
5699 16623 10372 1 109.50000 418.400000
5699 16623 10936 1 109.50000 418.400000
8064 16623 10372 1 109.50000 418.400000
8064 16623 10936 1 109.50000 418.400000
10372 16623 10936 1 109.50000 418.400000
919 16624 2926 1 109.50000 418.400000
919 16624 9611 1 109.50000 418.400000
919 16624 10260 1 109.50000 418.400000
2926 16624 9611 1 109.50000 418.400000
2926 16624 10260 1 109.50000 418.400000
9611 16624 10260 1 109.50000 418.400000
8274 16625 8943 1 109.50000 418.400000
8274 16625 10730 1 109.50000 418.400000
8274 16625 11020 1 109.50000 418.400000
8943 16625 10730 1 109.50000 418.400000
8943 16625 11020 1 109.50000 418.400000
10730 16625 11020 1 109.50000 418.400000
5695 16626 8490 1 109.50000 418.400000
5695 16626 10319 1 109.50000 418.400000
5695 16626 11022 1 109.50000 418.400000
8490 16626 10319 1 109.50000 418.400000
8490 16626 11022 1 109.50000 418.400000
10319 16626 11022 1 109.50000 418.400000
183 16627 9733 1 109.50000 418.400000
183 16627 10364 1 109.50000 418.400000
183 16627 11023 1 109.50000 418.400000
9733 16627 10364 1 109.50000 418.400000
9733 16627 11023 1 109.50000 418.400000
10364 16627 11023 1 109.50000 418.400000
7108 16628 7789 1 109.50000 418.400000
7108 16628 10915 1 109.50000 418.400000
7108 16628 10966 1 109.50000 418.400000
7789 16628 10915 1 109.50000 418.400000
7789 16628 10966 1 109.50000 418.400000
10915 16628 10966 1 109.50000 418.400000
585 16629 2153 1 109.50000 418.400000
585 16629 2204 1 109.50000 418.400000
585 16629 2820 1 109.50000 418.400000
2153 16629 2204 1 109.50000 418.400000
2153 16629 2820 1 109.50000 418.400000
2204 16629 2820 1 109.50000 418.400000
4585 16630 7277 1 109.50000 418.400000
4585 16630 7279 1 109.50000 418.400000
4585 16630 10346 1 109.50000 418.400000
7277 16630 7279 1 109.50000 418.400000
7277 16630 10346 1 109.50000 418.400000
7279 16630 10346 1 109.50000 418.400000
2430 16631 2946 1 109.50000 418.400000
2430 16631 4298 1 109.50000 418.400000
2430 16631 7417 1 109.50000 418.400000
2946 16631 4298 1 109.50000 418.400000
2946 16631 7417 1 109.50000 418.400000
4298 16631 7417 1 109.50000 418.400000
115 16632 4165 1 109.50000 418.400000
115 16632 8098 1 109.50000 418.400000
115 16632 10208 1 109.50000 418.400000
4165 16632 8098 1 109.50000 418.400000
4165 16632 10208 1 109.50000 418.400000
8098 16632 10208 1 109.50000 418.400000
2742 16633 9553 1 109.50000 418.400000
2742 16633 11024 1 109.50000 418.400000
2742 16633 11025 1 109.50000 418.400000
9553 16633 11024 1 109.50000 418.400000
9553 16633 11025 1 109.50000 418.400000
11024 16633 11025 1 109.50000 418.400000
5755 16634 6206 1 109.50000 418.400000
5755 16634 9536 1 109.50000 418.400000
5755 16634 11026 1 109.50000 418.400000
6206 16634 9536 1 109.50000 418.400000
6206 16634 11026 1 109.50000 418.400000
9536 16634 11026 1 109.50000 418.400000
7473 16635 8803 1 109.50000 418.400000
7473 16635 10091 1 109.50000 418.400000
7473 16635 10871 1 109.50000 418.400000
8803 16635 10091 1 109.50000 418.400000
8803 16635 10871 1 109.50000 418.400000
10091 16635 10871 1 109.50000 418.400000
7060 16636 7649 1 109.50000 418.400000
7060 16636 9462 1 109.50000 418.400000
7060 16636 10458 1 109.50000 418.400000
7649 16636 9462 1 109.50000 418.400000
7649 16636 10458 1 109.50000 418.400000
9462 16636 10458 1 109.50000 418.400000
7586 16637 9111 1 109.50000 418.400000
7586 16637 10442 1 109.50000 418.400000
7586 16637 10607 1 109.50000 418.400000
9111 16637 10442 1 109.50000 418.400000
9111 16637 10607 1 109.50000 418.400000
10442 16637 10607 1 109.50000 418.400000
7924 16638 8988 1 109.50000 418.400000
7924 16638 10490 1 109.50000 418.400000
7924 16638 11027 1 109.50000 418.400000
8988 16638 10490 1 109.50000 418.400000
8988 16638 11027 1 109.50000 418.400000
10490 16638 11027 1 109.50000 418.400000
7411 16639 8403 1 109.50000 418.400000
7411 16639 9134 1 109.50000 418.400000
7411 16639 10305 1 109.50000 418.400000
8403 16639 9134 1 109.50000 418.400000
8403 16639 10305 1 109.50000 418.400000
9134 16639 10305 1 109.50000 418.400000
1930 16640 9177 1 109.50000 418.400000
1930 16640 10318 1 109.50000 418.400000
1930 16640 11028 1 109.50000 418.400000
9177 16640 10318 1 109.50000 418.400000
9177 16640 11028 1 109.50000 418.400000
10318 16640 11028 1 109.50000 418.400000
7472 16641 7895 1 109.50000 418.400000
7472 16641 11029 1 109.50000 418.400000
7472 16641 11030 1 109.50000 418.400000
7895 16641 11029 1 109.50000 418.400000
7895 16641 11030 1 109.50000 418.400000
11029 16641 11030 1 109.50000 418.400000
9108 16642 10483 1 109.50000 418.400000
9108 16642 10498 1 109.50000 418.400000
9108 16642 11031 1 109.50000 418.400000
10483 16642 10498 1 109.50000 418.400000
10483 16642 11031 1 109.50000 418.400000
10498 16642 11031 1 109.50000 418.400000
2086 16643 9664 1 109.50000 418.400000
2086 16643 10655 1 109.50000 418.400000
2086 16643 10770 1 109.50000 418.400000
9664 16643 10655 1 109.50000 418.400000
9664 16643 10770 1 109.50000 418.400000
10655 16643 10770 1 109.50000 418.400000
1871 16644 6659 1 109.50000 418.400000
1871 16644 7015 1 109.50000 418.400000
1871 16644 7723 1 109.50000 418.400000
6659 16644 7015 1 109.50000 418.400000
6659 16644 7723 1 109.50000 418.400000
7015 16644 7723 1 109.50000 418.400000
110 16645 1198 1 109.50000 418.400000
110 16645 4754 1 109.50000 418.400000
110 16645 4755 1 109.50000 418.400000
1198 16645 4754 1 109.50000 418.400000
1198 16645 4755 1 109.50000 418.400000
4754 16645 4755 1 109.50000 418.400000
5867 16646 10177 1 109.50000 418.400000
5867 16646 10520 1 109.50000 418.400000
5867 16646 10893 1 109.50000 418.400000
10177 16646 10520 1 109.50000 418.400000
10177 16646 10893 1 109.50000 418.400000
10520 16646 10893 1 109.50000 418.400000
3742 16647 8121 1 109.50000 418.400000
3742 16647 11012 1 109.50000 418.400000
3742 16647 11033 1 109.50000 418.400000
8121 16647 11012 1 109.50000 418.400000
8121 16647 11033 1 109.50000 418.400000
11012 16647 11033 1 109.50000 418.400000
1614 16648 6305 1 109.50000 418.400000
1614 16648 6993 1 109.50000 418.400000
1614 16648 10751 1 109.50000 418.400000
6305 16648 6993 1 109.50000 418.400000
6305 16648 10751 1 109.50000 418.400000
6993 16648 10751 1 109.50000 418.400000
7874 16649 10144 1 109.50000 418.400000
7874 16649 10462 1 109.50000 418.400000
7874 16649 10831 1 109.50000 418.400000
10144 16649 10462 1 109.50000 418.400000
10144 16649 10831 1 109.50000 418.400000
10462 16649 10831 1 109.50000 418.400000
2106 16650 5597 1 109.50000 418.400000
2106 16650 7319 1 109.50000 418.400000
2106 16650 10856 1 109.50000 418.400000
5597 16650 7319 1 109.50000 418.400000
5597 16650 10856 1 109.50000 418.400000
7319 16650 10856 1 109.50000 418.400000
9583 16651 10463 1 109.50000 418.400000
9583 16651 11390 1 109.50000 418.400000
9583 16651 11503 1 109.50000 418.400000
10463 16651 11390 1 109.50000 418.400000
10463 16651 11503 1 109.50000 418.400000
11390 16651 11503 1 109.50000 418.400000
4087 16652 10165 1 109.50000 418.400000
4087 16652 11369 1 109.50000 418.400000
4087 16652 11529 1 109.50000 418.400000
10165 16652 11369 1 109.50000 418.400000
10165 16652 11529 1 109.50000 418.400000
11369 16652 11529 1 109.50000 418.400000
4176 16653 5339 1 109.50000 418.400000
4176 16653 9155 1 109.50000 418.400000
4176 16653 10693 1 109.50000 418.400000
5339 16653 9155 1 109.50000 418.400000
5339 16653 10693 1 109.50000 418.400000
9155 16653 10693 1 109.50000 418.400000
1932 16654 3611 1 109.50000 418.400000
1932 16654 9101 1 109.50000 418.400000
1932 16654 10999 1 109.50000 418.400000
3611 16654 9101 1 109.50000 418.400000
3611 16654 10999 1 109.50000 418.400000
9101 16654 10999 1 109.50000 418.400000
2904 16655 7294 1 109.50000 418.400000
2904 16655 8561 1 109.50000 418.400000
2904 16655 10061 1 109.50000 418.400000
7294 16655 8561 1 109.50000 418.400000
7294 16655 10061 1 109.50000 418.400000
8561 16655 10061 1 109.50000 418.400000
165 16656 2621 1 109.50000 418.400000
165 16656 3505 1 109.50000 418.400000
165 16656 10182 1 109.50000 418.400000
2621 16656 3505 1 109.50000 418.400000
2621 16656 10182 1 109.50000 418.400000
3505 16656 10182 1 109.50000 418.400000
6118 16657 8756 1 109.50000 418.400000
6118 16657 9208 1 109.50000 418.400000
6118 16657 11034 1 109.50000 418.400000
8756 16657 9208 1 109.50000 418.400000
8756 16657 11034 1 109.50000 418.400000
9208 16657 11034 1 109.50000 418.400000
1853 16658 6289 1 109.50000 418.400000
1853 16658 6316 1 109.50000 418.400000
1853 16658 10883 1 109.50000 418.400000
6289 16658 6316 1 109.50000 418.400000
6289 16658 10883 1 109.50000 418.400000
6316 16658 10883 1 109.50000 418.400000
1323 16659 1342 1 109.50000 418.400000
1323 16659 2830 1 109.50000 418.400000
1323 16659 9036 1 109.50000 418.400000
1342 16659 2830 1 109.50000 418.400000
1342 16659 9036 1 109.50000 418.400000
2830 16659 9036 1 109.50000 418.400000
5702 16660 8566 1 109.50000 418.400000
5702 16660 9367 1 109.50000 418.400000
5702 16660 10890 1 109.50000 418.400000
8566 16660 9367 1 109.50000 418.400000
8566 16660 10890 1 109.50000 418.400000
9367 16660 10890 1 109.50000 418.400000
1157 16661 1468 1 109.50000 418.400000
1157 16661 8843 1 109.50000 418.400000
1157 16661 10143 1 109.50000 418.400000
1468 16661 8843 1 109.50000 418.400000
1468 16661 10143 1 109.50000 418.400000
8843 16661 10143 1 109.50000 418.400000
6570 16662 8267 1 109.50000 418.400000
6570 16662 9478 1 109.50000 418.400000
6570 16662 11004 1 109.50000 418.400000
8267 16662 9478 1 109.50000 418.400000
8267 16662 11004 1 109.50000 418.400000
9478 16662 11004 1 109.50000 418.400000
1521 16663 10452 1 109.50000 418.400000
1521 16663 10879 1 109.50000 418.400000
1521 16663 11035 1 109.50000 418.400000
10452 16663 10879 1 109.50000 418.400000
10452 16663 11035 1 109.50000 418.400000
10879 16663 11035 1 109.50000 418.400000
3671 16664 3763 1 109.50000 418.400000
3671 16664 4800 1 109.50000 418.400000
3671 16664 9444 1 109.50000 418.400000
3763 16664 4800 1 109.50000 418.400000
3763 16664 9444 1 109.50000 418.400000
4800 16664 9444 1 109.50000 418.400000
1310 16665 3155 1 109.50000 418.400000
1310 16665 7965 1 109.50000 418.400000
1310 16665 11036 1 109.50000 418.400000
3155 16665 7965 1 109.50000 418.400000
3155 16665 11036 1 109.50000 418.400000
7965 16665 11036 1 109.50000 418.400000
7639 16666 9055 1 109.50000 418.400000
7639 16666 9587 1 109.50000 418.400000
7639 16666 10679 1 109.50000 418.400000
9055 16666 9587 1 109.50000 418.400000
9055 16666 10679 1 109.50000 418.400000
9587 16666 10679 1 109.50000 418.400000
913 16667 8250 1 109.50000 418.400000
913 16667 10236 1 109.50000 418.400000
913 16667 11037 1 109.50000 418.400000
8250 16667 10236 1 109.50000 418.400000
8250 16667 11037 1 109.50000 418.400000
10236 16667 11037 1 109.50000 418.400000
2724 16668 4970 1 109.50000 418.400000
2724 16668 8598 1 109.50000 418.400000
2724 16668 9599 1 109.50000 418.400000
4970 16668 8598 1 109.50000 418.400000
4970 16668 9599 1 109.50000 418.400000
8598 16668 9599 1 109.50000 418.400000
607 16669 7211 1 109.50000 418.400000
607 16669 8921 1 109.50000 418.400000
607 16669 11038 1 109.50000 418.400000
7211 16669 8921 1 109.50000 418.400000
7211 16669 11038 1 109.50000 418.400000
8921 16669 11038 1 109.50000 418.400000
23 16670 10199 1 109.50000 418.400000
23 16670 10685 1 109.50000 418.400000
23 16670 10971 1 109.50000 418.400000
10199 16670 10685 1 109.50000 418.400000
10199 16670 10971 1 109.50000 418.400000
10685 16670 10971 1 109.50000 418.400000
6617 16671 8588 1 109.50000 418.400000
6617 16671 9756 1 109.50000 418.400000
6617 16671 11505 1 109.50000 418.400000
8588 16671 9756 1 109.50000 418.400000
8588 16671 11505 1 109.50000 418.400000
9756 16671 11505 1 109.50000 418.400000
1721 16672 5573 1 109.50000 418.400000
1721 16672 8732 1 109.50000 418.400000
1721 16672 10064 1 109.50000 418.400000
5573 16672 8732 1 109.50000 418.400000
5573 16672 10064 1 109.50000 418.400000
8732 16672 10064 1 109.50000 418.400000
6031 16673 6032 1 109.50000 418.400000
6031 16673 6494 1 109.50000 418.400000
6031 16673 10495 1 109.50000 418.400000
6032 16673 6494 1 109.50000 418.400000
6032 16673 10495 1 109.50000 418.400000
6494 16673 10495 1 109.50000 418.400000
2262 16674 8745 1 109.50000 418.400000
2262 16674 9373 1 109.50000 418.400000
2262 16674 10308 1 109.50000 418.400000
8745 16674 9373 1 109.50000 418.400000
8745 16674 10308 1 109.50000 418.400000
9373 16674 10308 1 109.50000 418.400000
1024 16675 1908 1 109.50000 418.400000
1024 16675 4101 1 109.50000 418.400000
1024 16675 10728 1 109.50000 418.400000
1908 16675 4101 1 109.50000 418.400000
1908 16675 10728 1 109.50000 418.400000
4101 16675 10728 1 109.50000 418.400000
233 16676 3059 1 109.50000 418.400000
233 16676 4478 1 109.50000 418.400000
233 16676 10185 1 109.50000 418.400000
3059 16676 4478 1 109.50000 418.400000
3059 16676 10185 1 109.50000 418.400000
4478 16676 10185 1 109.50000 418.400000
2539 16677 4469 1 109.50000 418.400000
2539 16677 10958 1 109.50000 418.400000
2539 16677 11039 1 109.50000 418.400000
4469 16677 10958 1 109.50000 418.400000
4469 16677 11039 1 109.50000 418.400000
10958 16677 11039 1 109.50000 418.400000
4735 16678 9701 1 109.50000 418.400000
4735 16678 10916 1 109.50000 418.400000
4735 16678 11503 1 109.50000 418.400000
9701 16678 10916 1 109.50000 418.400000
9701 16678 11503 1 109.50000 418.400000
10916 16678 11503 1 109.50000 418.400000
7130 16679 8470 1 109.50000 418.400000
7130 16679 8990 1 109.50000 418.400000
7130 16679 10946 1 109.50000 418.400000
8470 16679 8990 1 109.50000 418.400000
8470 16679 10946 1 109.50000 418.400000
8990 16679 10946 1 109.50000 418.400000
5635 16680 5805 1 109.50000 418.400000
5635 16680 10473 1 109.50000 418.400000
5635 16680 10810 1 109.50000 418.400000
5805 16680 10473 1 109.50000 418.400000
5805 16680 10810 1 109.50000 418.400000
10473 16680 10810 1 109.50000 418.400000
3159 16681 6420 1 109.50000 418.400000
3159 16681 7240 1 109.50000 418.400000
3159 16681 7241 1 109.50000 418.400000
6420 16681 7240 1 109.50000 418.400000
6420 16681 7241 1 109.50000 418.400000
7240 16681 7241 1 109.50000 418.400000
2129 16682 3870 1 109.50000 418.400000
2129 16682 4465 1 109.50000 418.400000
2129 16682 8486 1 109.50000 418.400000
3870 16682 4465 1 109.50000 418.400000
3870 16682 8486 1 109.50000 418.400000
4465 16682 8486 1 109.50000 418.400000
1509 16683 5818 1 109.50000 418.400000
1509 16683 10387 1 109.50000 418.400000
1509 16683 10885 1 109.50000 418.400000
5818 16683 10387 1 109.50000 418.400000
5818 16683 10885 1 109.50000 418.400000
10387 16683 10885 1 109.50000 418.400000
4316 16684 5316 1 109.50000 418.400000
4316 16684 6284 1 109.50000 418.400000
4316 16684 8992 1 109.50000 418.400000
5316 16684 6284 1 109.50000 418.400000
5316 16684 8992 1 109.50000 418.400000
6284 16684 8992 1 109.50000 418.400000
4022 16685 4025 1 109.50000 418.400000
4022 16685 9388 1 109.50000 418.400000
4022 16685 11040 1 109.50000 418.400000
4025 16685 9388 1 109.50000 418.400000
4025 16685 11040 1 109.50000 418.400000
9388 16685 11040 1 109.50000 418.400000
4505 16686 8126 1 109.50000 418.400000
4505 16686 8270 1 109.50000 418.400000
4505 16686 8495 1 109.50000 418.400000
8126 16686 8270 1 109.50000 418.400000
8126 16686 8495 1 109.50000 418.400000
8270 16686 8495 1 109.50000 418.400000
179 16687 4317 1 109.50000 418.400000
179 16687 8773 1 109.50000 418.400000
179 16687 10777 1 109.50000 418.400000
4317 16687 8773 1 109.50000 418.400000
4317 16687 10777 1 109.50000 418.400000
8773 16687 10777 1 109.50000 418.400000
3861 16688 10761 1 109.50000 418.400000
3861 16688 10924 1 109.50000 418.400000
3861 16688 10963 1 109.50000 418.400000
10761 16688 10924 1 109.50000 418.400000
10761 16688 10963 1 109.50000 418.400000
10924 16688 10963 1 109.50000 418.400000
4695 16689 9933 1 109.50000 418.400000
4695 16689 11041 1 109.50000 418.400000
4695 16689 11042 1 109.50000 418.400000
9933 16689 11041 1 109.50000 418.400000
9933 16689 11042 1 109.50000 418.400000
11041 16689 11042 1 109.50000 418.400000
4763 16690 5742 1 109.50000 418.400000
4763 16690 5744 1 109.50000 418.400000
4763 16690 9888 1 109.50000 418.400000
5742 16690 5744 1 109.50000 418.400000
5742 16690 9888 1 109.50000 418.400000
5744 16690 9888 1 109.50000 418.400000
2346 16691 4641 1 109.50000 418.400000
2346 16691 6227 1 109.50000 418.400000
2346 16691 7082 1 109.50000 418.400000
4641 16691 6227 1 109.50000 418.400000
4641 16691 7082 1 109.50000 418.400000
6227 16691 7082 1 109.50000 418.400000
1933 16692 10313 1 109.50000 418.400000
1933 16692 10721 1 109.50000 418.400000
1933 16692 10746 1 109.50000 418.400000
10313 16692 10721 1 109.50000 418.400000
10313 16692 10746 1 109.50000 418.400000
10721 16692 10746 1 109.50000 418.400000
309 16693 938 1 109.50000 418.400000
309 16693 11003 1 109.50000 418.400000
309 16693 11161 1 109.50000 418.400000
938 16693 11003 1 109.50000 418.400000
938 16693 11161 1 109.50000 418.400000
11003 16693 11161 1 109.50000 418.400000
964 16694 4784 1 109.50000 418.400000
964 16694 5898 1 109.50000 418.400000
964 16694 11043 1 109.50000 418.400000
4784 16694 5898 1 109.50000 418.400000
4784 16694 11043 1 109.50000 418.400000
5898 16694 11043 1 109.50000 418.400000
819 16695 6030 1 109.50000 418.400000
819 16695 9470 1 109.50000 418.400000
819 16695 10826 1 109.50000 418.400000
6030 16695 9470 1 109.50000 418.400000
6030 16695 10826 1 109.50000 418.400000
9470 16695 10826 1 109.50000 418.400000
2893 16696 11044 1 109.50000 418.400000
2893 16696 11196 1 109.50000 418.400000
2893 16696 11305 1 109.50000 418.400000
11044 16696 11196 1 109.50000 418.400000
11044 16696 11305 1 109.50000 418.400000
11196 16696 11305 1 109.50000 418.400000
2057 16697 4117 1 109.50000 418.400000
2057 16697 10343 1 109.50000 418.400000
2057 16697 10613 1 109.50000 418.400000
4117 16697 10343 1 109.50000 418.400000
4117 16697 10613 1 109.50000 418.400000
10343 16697 10613 1 109.50000 418.400000
8647 16698 10085 1 109.50000 418.400000
8647 16698 10303 1 109.50000 418.400000
8647 16698 11045 1 109.50000 418.400000
10085 16698 10303 1 109.50000 418.400000
10085 16698 11045 1 109.50000 418.400000
10303 16698 11045 1 109.50000 418.400000
4725 16699 7388 1 109.50000 418.400000
4725 16699 10070 1 109.50000 418.400000
4725 16699 10210 1 109.50000 418.400000
7388 16699 10070 1 109.50000 418.400000
7388 16699 10210 1 109.50000 418.400000
10070 16699 10210 1 109.50000 418.400000
5928 16700 7858 1 109.50000 418.400000
5928 16700 7896 1 109.50000 418.400000
5928 16700 8295 1 109.50000 418.400000
7858 16700 7896 1 109.50000 418.400000
7858 16700 8295 1 109.50000 418.400000
7896 16700 8295 1 109.50000 418.400000
6304 16701 10619 1 109.50000 418.400000
6304 16701 11046 1 109.50000 418.400000
6304 16701 11047 1 109.50000 418.400000
10619 16701 11046 1 109.50000 418.400000
10619 16701 11047 1 109.50000 418.400000
11046 16701 11047 1 109.50000 418.400000
1915 16702 6291 1 109.50000 418.400000
1915 16702 8446 1 109.50000 418.400000
1915 16702 10794 1 109.50000 418.400000
6291 16702 8446 1 109.50000 418.400000
6291 16702 10794 1 109.50000 418.400000
8446 16702 10794 1 109.50000 418.400000
9928 16703 10702 1 109.50000 418.400000
9928 16703 10745 1 109.50000 418.400000
9928 16703 11048 1 109.50000 418.400000
10702 16703 10745 1 109.50000 418.400000
10702 16703 11048 1 109.50000 418.400000
10745 16703 11048 1 109.50000 418.400000
3494 16704 5449 1 109.50000 418.400000
3494 16704 8321 1 109.50000 418.400000
3494 16704 11049 1 109.50000 418.400000
5449 16704 8321 1 109.50000 418.400000
5449 16704 11049 1 109.50000 418.400000
8321 16704 11049 1 109.50000 418.400000
1568 16705 2824 1 109.50000 418.400000
1568 16705 8451 1 109.50000 418.400000
1568 16705 8454 1 109.50000 418.400000
2824 16705 8451 1 109.50000 418.400000
2824 16705 8454 1 109.50000 418.400000
8451 16705 8454 1 109.50000 418.400000
1002 16706 2189 1 109.50000 418.400000
1002 16706 10799 1 109.50000 418.400000
1002 16706 11050 1 109.50000 418.400000
2189 16706 10799 1 109.50000 418.400000
2189 16706 11050 1 109.50000 418.400000
10799 16706 11050 1 109.50000 418.400000
2915 16707 7696 1 109.50000 418.400000
2915 16707 10529 1 109.50000 418.400000
2915 16707 10778 1 109.50000 418.400000
7696 16707 10529 1 109.50000 418.400000
7696 16707 10778 1 109.50000 418.400000
10529 16707 10778 1 109.50000 418.400000
3140 16708 6874 1 109.50000 418.400000
3140 16708 8903 1 109.50000 418.400000
3140 16708 9242 1 109.50000 418.400000
6874 16708 8903 1 109.50000 418.400000
6874 16708 9242 1 109.50000 418.400000
8903 16708 9242 1 109.50000 418.400000
8922 16709 9295 1 109.50000 418.400000
8922 16709 10273 1 109.50000 418.400000
8922 16709 10645 1 109.50000 418.400000
9295 16709 10273 1 109.50000 418.400000
9295 16709 10645 1 109.50000 418.400000
10273 16709 10645 1 109.50000 418.400000
791 16710 4491 1 109.50000 418.400000
791 16710 5413 1 109.50000 418.400000
791 16710 10230 1 109.50000 418.400000
4491 16710 5413 1 109.50000 418.400000
4491 16710 10230 1 109.50000 418.400000
5413 16710 10230 1 109.50000 418.400000
834 16711 1924 1 109.50000 418.400000
834 16711 8236 1 109.50000 418.400000
834 16711 10660 1 109.50000 418.400000
1924 16711 8236 1 109.50000 418.400000
1924 16711 10660 1 109.50000 418.400000
8236 16711 10660 1 109.50000 418.400000
7311 16712 8290 1 109.50000 418.400000
7311 16712 11269 1 109.50000 418.400000
7311 16712 11324 1 109.50000 418.400000
8290 16712 11269 1 109.50000 418.400000
8290 16712 11324 1 109.50000 418.400000
11269 16712 11324 1 109.50000 418.400000
7716 16713 8712 1 109.50000 418.400000
7716 16713 10553 1 109.50000 418.400000
7716 16713 11051 1 109.50000 418.400000
8712 16713 10553 1 109.50000 418.400000
8712 16713 11051 1 109.50000 418.400000
10553 16713 11051 1 109.50000 418.400000
4538 16714 5790 1 109.50000 418.400000
4538 16714 6640 1 109.50000 418.400000
4538 16714 8656 1 109.50000 418.400000
5790 16714 6640 1 109.50000 418.400000
5790 16714 8656 1 109.50000 418.400000
6640 16714 8656 1 109.50000 418.400000
95 16715 495 1 109.50000 418.400000
95 16715 4558 1 109.50000 418.400000
95 16715 9552 1 109.50000 418.400000
495 16715 4558 1 109.50000 418.400000
495 16715 9552 1 109.50000 418.400000
4558 16715 9552 1 109.50000 418.400000
2907 16716 2908 1 109.50000 418.400000
2907 16716 8540 1 109.50000 418.400000
2907 16716 10378 1 109.50000 418.400000
2908 16716 8540 1 109.50000 418.400000
2908 16716 10378 1 109.50000 418.400000
8540 16716 10378 1 109.50000 418.400000
4651 16717 10422 1 109.50000 418.400000
4651 16717 10760 1 109.50000 418.400000
4651 16717 11023 1 109.50000 418.400000
10422 16717 10760 1 109.50000 418.400000
10422 16717 11023 1 109.50000 418.400000
10760 16717 11023 1 109.50000 418.400000
10389 16718 10594 1 109.50000 418.400000
10389 16718 11020 1 109.50000 418.400000
10389 16718 11021 1 109.50000 418.400000
10594 16718 11020 1 109.50000 418.400000
10594 16718 11021 1 109.50000 418.400000
11020 16718 11021 1 109.50000 418.400000
4961 16719 10119 1 109.50000 418.400000
4961 16719 10306 1 109.50000 418.400000
4961 16719 11052 1 109.50000 418.400000
10119 16719 10306 1 109.50000 418.400000
10119 16719 11052 1 109.50000 418.400000
10306 16719 11052 1 109.50000 418.400000
2687 16720 4740 1 109.50000 418.400000
2687 16720 9745 1 109.50000 418.400000
2687 16720 11053 1 109.50000 418.400000
4740 16720 9745 1 109.50000 418.400000
4740 16720 11053 1 109.50000 418.400000
9745 16720 11053 1 109.50000 418.400000
4480 16721 4481 1 109.50000 418.400000
4480 16721 6824 1 109.50000 418.400000
4480 16721 11008 1 109.50000 418.400000
4481 16721 6824 1 109.50000 418.400000
4481 16721 11008 1 109.50000 418.400000
6824 16721 11008 1 109.50000 418.400000
5483 16722 8119 1 109.50000 418.400000
5483 16722 8947 1 109.50000 418.400000
5483 16722 9630 1 109.50000 418.400000
8119 16722 8947 1 109.50000 418.400000
8119 16722 9630 1 109.50000 418.400000
8947 16722 9630 1 109.50000 418.400000
7405 16723 9609 1 109.50000 418.400000
7405 16723 9610 1 109.50000 418.400000
7405 16723 9611 1 109.50000 418.400000
9609 16723 9610 1 109.50000 418.400000
9609 16723 9611 1 109.50000 418.400000
9610 16723 9611 1 109.50000 418.400000
104 16724 7826 1 109.50000 418.400000
104 16724 9079 1 109.50000 418.400000
104 16724 11056 1 109.50000 418.400000
7826 16724 9079 1 109.50000 418.400000
7826 16724 11056 1 109.50000 418.400000
9079 16724 11056 1 109.50000 418.400000
4423 16725 5226 1 109.50000 418.400000
4423 16725 5956 1 109.50000 418.400000
4423 16725 9872 1 109.50000 418.400000
5226 16725 5956 1 109.50000 418.400000
5226 16725 9872 1 109.50000 418.400000
5956 16725 9872 1 109.50000 418.400000
2456 16726 6621 1 109.50000 418.400000
2456 16726 8648 1 109.50000 418.400000
2456 16726 10357 1 109.50000 418.400000
6621 16726 8648 1 109.50000 418.400000
6621 16726 10357 1 109.50000 418.400000
8648 16726 10357 1 109.50000 418.400000
108 16727 170 1 109.50000 418.400000
108 16727 3078 1 109.50000 418.400000
108 16727 8065 1 109.50000 418.400000
170 16727 3078 1 109.50000 418.400000
170 16727 8065 1 109.50000 418.400000
3078 16727 8065 1 109.50000 418.400000
7761 16728 7829 1 109.50000 418.400000
7761 16728 8613 1 109.50000 418.400000
7761 16728 11038 1 109.50000 418.400000
7829 16728 8613 1 109.50000 418.400000
7829 16728 11038 1 109.50000 418.400000
8613 16728 11038 1 109.50000 418.400000
3194 16729 3196 1 109.50000 418.400000
3194 16729 8374 1 109.50000 418.400000
3194 16729 11037 1 109.50000 418.400000
3196 16729 8374 1 109.50000 418.400000
3196 16729 11037 1 109.50000 418.400000
8374 16729 11037 1 109.50000 418.400000
7869 16730 9450 1 109.50000 418.400000
7869 16730 10227 1 109.50000 418.400000
7869 16730 11006 1 109.50000 418.400000
9450 16730 10227 1 109.50000 418.400000
9450 16730 11006 1 109.50000 418.400000
10227 16730 11006 1 109.50000 418.400000
2929 16731 5227 1 109.50000 418.400000
2929 16731 9353 1 109.50000 418.400000
2929 16731 10190 1 109.50000 418.400000
5227 16731 9353 1 109.50000 418.400000
5227 16731 10190 1 109.50000 418.400000
9353 16731 10190 1 109.50000 418.400000
3321 16732 3718 1 109.50000 418.400000
3321 16732 10630 1 109.50000 418.400000
3321 16732 11057 1 109.50000 418.400000
3718 16732 10630 1 109.50000 418.400000
3718 16732 11057 1 109.50000 418.400000
10630 16732 11057 1 109.50000 418.400000
7095 16733 7670 1 109.50000 418.400000
7095 16733 9443 1 109.50000 418.400000
7095 16733 10722 1 109.50000 418.400000
7670 16733 9443 1 109.50000 418.400000
7670 16733 10722 1 109.50000 418.400000
9443 16733 10722 1 109.50000 418.400000
892 16734 8281 1 109.50000 418.400000
892 16734 10401 1 109.50000 418.400000
892 16734 11058 1 109.50000 418.400000
8281 16734 10401 1 109.50000 418.400000
8281 16734 11058 1 109.50000 418.400000
10401 16734 11058 1 109.50000 418.400000
4745 16735 8610 1 109.50000 418.400000
4745 16735 9692 1 109.50000 418.400000
4745 16735 10501 1 109.50000 418.400000
8610 16735 9692 1 109.50000 418.400000
8610 16735 10501 1 109.50000 418.400000
9692 16735 10501 1 109.50000 418.400000
2305 16736 8861 1 109.50000 418.400000
2305 16736 8970 1 109.50000 418.400000
2305 16736 11059 1 109.50000 418.400000
8861 16736 8970 1 109.50000 418.400000
8861 16736 11059 1 109.50000 418.400000
8970 16736 11059 1 109.50000 418.400000
9668 16737 10569 1 109.50000 418.400000
9668 16737 10902 1 109.50000 418.400000
9668 16737 11260 1 109.50000 418.400000
10569 16737 10902 1 109.50000 418.400000
10569 16737 11260 1 109.50000 418.400000
10902 16737 11260 1 109.50000 418.400000
7526 16738 9050 1 109.50000 418.400000
7526 16738 11060 1 109.50000 418.400000
7526 16738 11061 1 109.50000 418.400000
9050 16738 11060 1 109.50000 418.400000
9050 16738 11061 1 109.50000 418.400000
11060 16738 11061 1 109.50000 418.400000
10124 16739 11062 1 109.50000 418.400000
10124 16739 11182 1 109.50000 418.400000
10124 16739 11604 1 109.50000 418.400000
11062 16739 11182 1 109.50000 418.400000
11062 16739 11604 1 109.50000 418.400000
11182 16739 11604 1 109.50000 418.400000
1615 16740 3457 1 109.50000 418.400000
1615 16740 9099 1 109.50000 418.400000
1615 16740 10339 1 109.50000 418.400000
3457 16740 9099 1 109.50000 418.400000
3457 16740 10339 1 109.50000 418.400000
9099 16740 10339 1 109.50000 418.400000
3082 16741 7300 1 109.50000 418.400000
3082 16741 9941 1 109.50000 418.400000
3082 16741 11063 1 109.50000 418.400000
7300 16741 9941 1 109.50000 418.400000
7300 16741 11063 1 109.50000 418.400000
9941 16741 11063 1 109.50000 418.400000
3355 16742 5225 1 109.50000 418.400000
3355 16742 8226 1 109.50000 418.400000
3355 16742 10803 1 109.50000 418.400000
5225 16742 8226 1 109.50000 418.400000
5225 16742 10803 1 109.50000 418.400000
8226 16742 10803 1 109.50000 418.400000
7357 16743 8145 1 109.50000 418.400000
7357 16743 10354 1 109.50000 418.400000
7357 16743 10700 1 109.50000 418.400000
8145 16743 10354 1 109.50000 418.400000
8145 16743 10700 1 109.50000 418.400000
10354 16743 10700 1 109.50000 418.400000
3757 16744 8606 1 109.50000 418.400000
3757 16744 8691 1 109.50000 418.400000
3757 16744 10505 1 109.50000 418.400000
8606 16744 8691 1 109.50000 418.400000
8606 16744 10505 1 109.50000 418.400000
8691 16744 10505 1 109.50000 418.400000
2564 16745 3312 1 109.50000 418.400000
2564 16745 3684 1 109.50000 418.400000
2564 16745 8882 1 109.50000 418.400000
3312 16745 3684 1 109.50000 418.400000
3312 16745 8882 1 109.50000 418.400000
3684 16745 8882 1 109.50000 418.400000
2083 16746 2339 1 109.50000 418.400000
2083 16746 3316 1 109.50000 418.400000
2083 16746 11064 1 109.50000 418.400000
2339 16746 3316 1 109.50000 418.400000
2339 16746 11064 1 109.50000 418.400000
3316 16746 11064 1 109.50000 418.400000
489 16747 7798 1 109.50000 418.400000
489 16747 9610 1 109.50000 418.400000
489 16747 10642 1 109.50000 418.400000
7798 16747 9610 1 109.50000 418.400000
7798 16747 10642 1 109.50000 418.400000
9610 16747 10642 1 109.50000 418.400000
4373 16748 5576 1 109.50000 418.400000
4373 16748 7904 1 109.50000 418.400000
4373 16748 11065 1 109.50000 418.400000
5576 16748 7904 1 109.50000 418.400000
5576 16748 11065 1 109.50000 418.400000
7904 16748 11065 1 109.50000 418.400000
5195 16749 5503 1 109.50000 418.400000
5195 16749 9375 1 109.50000 418.400000
5195 16749 10561 1 109.50000 418.400000
5503 16749 9375 1 109.50000 418.400000
5503 16749 10561 1 109.50000 418.400000
9375 16749 10561 1 109.50000 418.400000
6571 16750 10073 1 109.50000 418.400000
6571 16750 10976 1 109.50000 418.400000
6571 16750 11066 1 109.50000 418.400000
10073 16750 10976 1 109.50000 418.400000
10073 16750 11066 1 109.50000 418.400000
10976 16750 11066 1 109.50000 418.400000
5680 16751 8147 1 109.50000 418.400000
5680 16751 9141 1 109.50000 418.400000
5680 16751 10524 1 109.50000 418.400000
8147 16751 9141 1 109.50000 418.400000
8147 16751 10524 1 109.50000 418.400000
9141 16751 10524 1 109.50000 418.400000
44 16752 807 1 109.50000 418.400000
44 16752 4858 1 109.50000 418.400000
44 16752 4988 1 109.50000 418.400000
807 16752 4858 1 109.50000 418.400000
807 16752 4988 1 109.50000 418.400000
4858 16752 4988 1 109.50000 418.400000
6059 16753 10041 1 109.50000 418.400000
6059 16753 10379 1 109.50000 418.400000
6059 16753 11068 1 109.50000 418.400000
10041 16753 10379 1 109.50000 418.400000
10041 16753 11068 1 109.50000 418.400000
10379 16753 11068 1 109.50000 418.400000
3529 16754 7111 1 109.50000 418.400000
3529 16754 8333 1 109.50000 418.400000
3529 16754 10682 1 109.50000 418.400000
7111 16754 8333 1 109.50000 418.400000
7111 16754 10682 1 109.50000 418.400000
8333 16754 10682 1 109.50000 418.400000
10030 16755 10544 1 109.50000 418.400000
10030 16755 11069 1 109.50000 418.400000
10030 16755 11243 1 109.50000 418.400000
10544 16755 11069 1 109.50000 418.400000
10544 16755 11243 1 109.50000 418.400000
11069 16755 11243 1 109.50000 418.400000
3406 16756 5580 1 109.50000 418.400000
3406 16756 6416 1 109.50000 418.400000
3406 16756 11070 1 109.50000 418.400000
5580 16756 6416 1 109.50000 418.400000
5580 16756 11070 1 109.50000 418.400000
6416 16756 11070 1 109.50000 418.400000
1092 16757 9907 1 109.50000 418.400000
1092 16757 10160 1 109.50000 418.400000
1092 16757 11071 1 109.50000 418.400000
9907 16757 10160 1 109.50000 418.400000
9907 16757 11071 1 109.50000 418.400000
10160 16757 11071 1 109.50000 418.400000
6863 16758 10933 1 109.50000 418.400000
6863 16758 11072 1 109.50000 418.400000
6863 16758 11073 1 109.50000 418.400000
10933 16758 11072 1 109.50000 418.400000
10933 16758 11073 1 109.50000 418.400000
11072 16758 11073 1 109.50000 418.400000
323 16759 2317 1 109.50000 418.400000
323 16759 5853 1 109.50000 418.400000
323 16759 11050 1 109.50000 418.400000
2317 16759 5853 1 109.50000 418.400000
2317 16759 11050 1 109.50000 418.400000
5853 16759 11050 1 109.50000 418.400000
8454 16760 10608 1 109.50000 418.400000
8454 16760 10943 1 109.50000 418.400000
8454 16760 10948 1 109.50000 418.400000
10608 16760 10943 1 109.50000 418.400000
10608 16760 10948 1 109.50000 418.400000
10943 16760 10948 1 109.50000 418.400000
4507 16761 7643 1 109.50000 418.400000
4507 16761 10095 1 109.50000 418.400000
4507 16761 10798 1 109.50000 418.400000
7643 16761 10095 1 109.50000 418.400000
7643 16761 10798 1 109.50000 418.400000
10095 16761 10798 1 109.50000 418.400000
833 16762 1720 1 109.50000 418.400000
833 16762 3848 1 109.50000 418.400000
833 16762 9624 1 109.50000 418.400000
1720 16762 3848 1 109.50000 418.400000
1720 16762 9624 1 109.50000 418.400000
3848 16762 9624 1 109.50000 418.400000
5544 16763 6401 1 109.50000 418.400000
5544 16763 7038 1 109.50000 418.400000
5544 16763 11074 1 109.50000 418.400000
6401 16763 7038 1 109.50000 418.400000
6401 16763 11074 1 109.50000 418.400000
7038 16763 11074 1 109.50000 418.400000
721 16764 4292 1 109.50000 418.400000
721 16764 11075 1 109.50000 418.400000
721 16764 11567 1 109.50000 418.400000
4292 16764 11075 1 109.50000 418.400000
4292 16764 11567 1 109.50000 418.400000
11075 16764 11567 1 109.50000 418.400000
7982 16765 8934 1 109.50000 418.400000
7982 16765 9862 1 109.50000 418.400000
7982 16765 10429 1 109.50000 418.400000
8934 16765 9862 1 109.50000 418.400000
8934 16765 10429 1 109.50000 418.400000
9862 16765 10429 1 109.50000 418.400000
2522 16766 4681 1 109.50000 418.400000
2522 16766 7190 1 109.50000 418.400000
2522 16766 10717 1 109.50000 418.400000
4681 16766 7190 1 109.50000 418.400000
4681 16766 10717 1 109.50000 418.400000
7190 16766 10717 1 109.50000 418.400000
4106 16767 6040 1 109.50000 418.400000
4106 16767 9125 1 109.50000 418.400000
4106 16767 9126 1 109.50000 418.400000
6040 16767 9125 1 109.50000 418.400000
6040 16767 9126 1 109.50000 418.400000
9125 16767 9126 1 109.50000 418.400000
7802 16768 8130 1 109.50000 418.400000
7802 16768 9818 1 109.50000 418.400000
7802 16768 10968 1 109.50000 418.400000
8130 16768 9818 1 109.50000 418.400000
8130 16768 10968 1 109.50000 418.400000
9818 16768 10968 1 109.50000 418.400000
4748 16769 8538 1 109.50000 418.400000
4748 16769 9332 1 109.50000 418.400000
4748 16769 9863 1 109.50000 418.400000
8538 16769 9332 1 109.50000 418.400000
8538 16769 9863 1 109.50000 418.400000
9332 16769 9863 1 109.50000 418.400000
9064 16770 10861 1 109.50000 418.400000
9064 16770 10895 1 109.50000 418.400000
9064 16770 10975 1 109.50000 418.400000
10861 16770 10895 1 109.50000 418.400000
10861 16770 10975 1 109.50000 418.400000
10895 16770 10975 1 109.50000 418.400000
1257 16771 1577 1 109.50000 418.400000
1257 16771 8612 1 109.50000 418.400000
1257 16771 11076 1 109.50000 418.400000
1577 16771 8612 1 109.50000 418.400000
1577 16771 11076 1 109.50000 418.400000
8612 16771 11076 1 109.50000 418.400000
2500 16772 2921 1 109.50000 418.400000
2500 16772 7708 1 109.50000 418.400000
2500 16772 11200 1 109.50000 418.400000
2921 16772 7708 1 109.50000 418.400000
2921 16772 11200 1 109.50000 418.400000
7708 16772 11200 1 109.50000 418.400000
9139 16773 10411 1 109.50000 418.400000
9139 16773 10858 1 109.50000 418.400000
9139 16773 11075 1 109.50000 418.400000
10411 16773 10858 1 109.50000 418.400000
10411 16773 11075 1 109.50000 418.400000
10858 16773 11075 1 109.50000 418.400000
4074 16774 4313 1 109.50000 418.400000
4074 16774 4680 1 109.50000 418.400000
4074 16774 5906 1 109.50000 418.400000
4313 16774 4680 1 109.50000 418.400000
4313 16774 5906 1 109.50000 418.400000
4680 16774 5906 1 109.50000 418.400000
8228 16775 8812 1 109.50000 418.400000
8228 16775 10528 1 109.50000 418.400000
8228 16775 11028 1 109.50000 418.400000
8812 16775 10528 1 109.50000 418.400000
8812 16775 11028 1 109.50000 418.400000
10528 16775 11028 1 109.50000 418.400000
2355 16776 4004 1 109.50000 418.400000
2355 16776 9117 1 109.50000 418.400000
2355 16776 9285 1 109.50000 418.400000
4004 16776 9117 1 109.50000 418.400000
4004 16776 9285 1 109.50000 418.400000
9117 16776 9285 1 109.50000 418.400000
7536 16777 9106 1 109.50000 418.400000
7536 16777 10279 1 109.50000 418.400000
7536 16777 10310 1 109.50000 418.400000
9106 16777 10279 1 109.50000 418.400000
9106 16777 10310 1 109.50000 418.400000
10279 16777 10310 1 109.50000 418.400000
6302 16778 11009 1 109.50000 418.400000
6302 16778 11052 1 109.50000 418.400000
6302 16778 11521 1 109.50000 418.400000
11009 16778 11052 1 109.50000 418.400000
11009 16778 11521 1 109.50000 418.400000
11052 16778 11521 1 109.50000 418.400000
912 16779 2798 1 109.50000 418.400000
912 16779 6520 1 109.50000 418.400000
912 16779 11000 1 109.50000 418.400000
2798 16779 6520 1 109.50000 418.400000
2798 16779 11000 1 109.50000 418.400000
6520 16779 11000 1 109.50000 418.400000
3007 16780 5512 1 109.50000 418.400000
3007 16780 7916 1 109.50000 418.400000
3007 16780 11077 1 109.50000 418.400000
5512 16780 7916 1 109.50000 418.400000
5512 16780 11077 1 109.50000 418.400000
7916 16780 11077 1 109.50000 418.400000
1758 16781 5737 1 109.50000 418.400000
1758 16781 8731 1 109.50000 418.400000
1758 16781 9623 1 109.50000 418.400000
5737 16781 8731 1 109.50000 418.400000
5737 16781 9623 1 109.50000 418.400000
8731 16781 9623 1 109.50000 418.400000
3841 16782 7004 1 109.50000 418.400000
3841 16782 10904 1 109.50000 418.400000
3841 16782 10994 1 109.50000 418.400000
7004 16782 10904 1 109.50000 418.400000
7004 16782 10994 1 109.50000 418.400000
10904 16782 10994 1 109.50000 418.400000
365 16783 556 1 109.50000 418.400000
365 16783 1992 1 109.50000 418.400000
365 16783 10840 1 109.50000 418.400000
556 16783 1992 1 109.50000 418.400000
556 16783 10840 1 109.50000 418.400000
1992 16783 10840 1 109.50000 418.400000
6353 16784 8303 1 109.50000 418.400000
6353 16784 8809 1 109.50000 418.400000
6353 16784 10807 1 109.50000 418.400000
8303 16784 8809 1 109.50000 418.400000
8303 16784 10807 1 109.50000 418.400000
8809 16784 10807 1 109.50000 418.400000
3107 16785 8975 1 109.50000 418.400000
3107 16785 10194 1 109.50000 418.400000
3107 16785 10195 1 109.50000 418.400000
8975 16785 10194 1 109.50000 418.400000
8975 16785 10195 1 109.50000 418.400000
10194 16785 10195 1 109.50000 418.400000
2318 16786 3731 1 109.50000 418.400000
2318 16786 9396 1 109.50000 418.400000
2318 16786 10987 1 109.50000 418.400000
3731 16786 9396 1 109.50000 418.400000
3731 16786 10987 1 109.50000 418.400000
9396 16786 10987 1 109.50000 418.400000
5536 16787 9566 1 109.50000 418.400000
5536 16787 10918 1 109.50000 418.400000
5536 16787 11035 1 109.50000 418.400000
9566 16787 10918 1 109.50000 418.400000
9566 16787 11035 1 109.50000 418.400000
10918 16787 11035 1 109.50000 418.400000
8817 16788 9689 1 109.50000 418.400000
8817 16788 9890 1 109.50000 418.400000
8817 16788 10935 1 109.50000 418.400000
9689 16788 9890 1 109.50000 418.400000
9689 16788 10935 1 109.50000 418.400000
9890 16788 10935 1 109.50000 418.400000
6931 16789 10047 1 109.50000 418.400000
6931 16789 11078 1 109.50000 418.400000
6931 16789 11292 1 109.50000 418.400000
10047 16789 11078 1 109.50000 418.400000
10047 16789 11292 1 109.50000 418.400000
11078 16789 11292 1 109.50000 418.400000
7471 16790 8124 1 109.50000 418.400000
7471 16790 9317 1 109.50000 418.400000
7471 16790 10096 1 109.50000 418.400000
8124 16790 9317 1 109.50000 418.400000
8124 16790 10096 1 109.50000 418.400000
9317 16790 10096 1 109.50000 418.400000
1112 16791 5188 1 109.50000 418.400000
1112 16791 9395 1 109.50000 418.400000
1112 16791 11510 1 109.50000 418.400000
5188 16791 9395 1 109.50000 418.400000
5188 16791 11510 1 109.50000 418.400000
9395 16791 11510 1 109.50000 418.400000
4337 16792 11071 1 109.50000 418.400000
4337 16792 11079 1 109.50000 418.400000
4337 16792 11080 1 109.50000 418.400000
11071 16792 11079 1 109.50000 418.400000
11071 16792 11080 1 109.50000 418.400000
11079 16792 11080 1 109.50000 418.400000
2963 16793 5043 1 109.50000 418.400000
2963 16793 8444 1 109.50000 418.400000
2963 16793 11543 1 109.50000 418.400000
5043 16793 8444 1 109.50000 418.400000
5043 16793 11543 1 109.50000 418.400000
8444 16793 11543 1 109.50000 418.400000
5701 16794 7692 1 109.50000 418.400000
5701 16794 9217 1 109.50000 418.400000
5701 16794 9917 1 109.50000 418.400000
7692 16794 9217 1 109.50000 418.400000
7692 16794 9917 1 109.50000 418.400000
9217 16794 9917 1 109.50000 418.400000
1751 16795 4604 1 109.50000 418.400000
1751 16795 10764 1 109.50000 418.400000
1751 16795 11549 1 109.50000 418.400000
4604 16795 10764 1 109.50000 418.400000
4604 16795 11549 1 109.50000 418.400000
10764 16795 11549 1 109.50000 418.400000
2457 16796 2708 1 109.50000 418.400000
2457 16796 4603 1 109.50000 418.400000
2457 16796 11081 1 109.50000 418.400000
2708 16796 4603 1 109.50000 418.400000
2708 16796 11081 1 109.50000 418.400000
4603 16796 11081 1 109.50000 418.400000
2437 16797 3256 1 109.50000 418.400000
2437 16797 9826 1 109.50000 418.400000
2437 16797 10005 1 109.50000 418.400000
3256 16797 9826 1 109.50000 418.400000
3256 16797 10005 1 109.50000 418.400000
9826 16797 10005 1 109.50000 418.400000
5116 16798 9651 1 109.50000 418.400000
5116 16798 9700 1 109.50000 418.400000
5116 16798 11077 1 109.50000 418.400000
9651 16798 9700 1 109.50000 418.400000
9651 16798 11077 1 109.50000 418.400000
9700 16798 11077 1 109.50000 418.400000
4940 16799 4942 1 109.50000 418.400000
4940 16799 8358 1 109.50000 418.400000
4940 16799 10481 1 109.50000 418.400000
4942 16799 8358 1 109.50000 418.400000
4942 16799 10481 1 109.50000 418.400000
8358 16799 10481 1 109.50000 418.400000
4045 16800 5614 1 109.50000 418.400000
4045 16800 10595 1 109.50000 418.400000
4045 16800 11082 1 109.50000 418.400000
5614 16800 10595 1 109.50000 418.400000
5614 16800 11082 1 109.50000 418.400000
10595 16800 11082 1 109.50000 418.400000
5691 16801 7796 1 109.50000 418.400000
5691 16801 9382 1 109.50000 418.400000
5691 16801 11080 1 109.50000 418.400000
7796 16801 9382 1 109.50000 418.400000
7796 16801 11080 1 109.50000 418.400000
9382 16801 11080 1 109.50000 418.400000
1407 16802 10329 1 109.50000 418.400000
1407 16802 10385 1 109.50000 418.400000
1407 16802 11551 1 109.50000 418.400000
10329 16802 10385 1 109.50000 418.400000
10329 16802 11551 1 109.50000 418.400000
10385 16802 11551 1 109.50000 418.400000
5282 16803 5376 1 109.50000 418.400000
5282 16803 8870 1 109.50000 418.400000
5282 16803 10216 1 109.50000 418.400000
5376 16803 8870 1 109.50000 418.400000
5376 16803 10216 1 109.50000 418.400000
8870 16803 10216 1 109.50000 418.400000
812 16804 5064 1 109.50000 418.400000
812 16804 8201 1 109.50000 418.400000
812 16804 10017 1 109.50000 418.400000
5064 16804 8201 1 109.50000 418.400000
5064 16804 10017 1 109.50000 418.400000
8201 16804 10017 1 109.50000 418.400000
3640 16805 9376 1 109.50000 418.400000
3640 16805 10913 1 109.50000 418.400000
3640 16805 10920 1 109.50000 418.400000
9376 16805 10913 1 109.50000 418.400000
9376 16805 10920 1 109.50000 418.400000
10913 16805 10920 1 109.50000 418.400000
1797 16806 5186 1 109.50000 418.400000
1797 16806 6339 1 109.50000 418.400000
1797 16806 10846 1 109.50000 418.400000
5186 16806 6339 1 109.50000 418.400000
5186 16806 10846 1 109.50000 418.400000
6339 16806 10846 1 109.50000 418.400000
1127 16807 7880 1 109.50000 418.400000
1127 16807 9660 1 109.50000 418.400000
1127 16807 11083 1 109.50000 418.400000
7880 16807 9660 1 109.50000 418.400000
7880 16807 11083 1 109.50000 418.400000
9660 16807 11083 1 109.50000 418.400000
731 16808 6766 1 109.50000 418.400000
731 16808 10228 1 109.50000 418.400000
731 16808 10568 1 109.50000 418.400000
6766 16808 10228 1 109.50000 418.400000
6766 16808 10568 1 109.50000 418.400000
10228 16808 10568 1 109.50000 418.400000
235 16809 842 1 109.50000 418.400000
235 16809 9780 1 109.50000 418.400000
235 16809 10691 1 109.50000 418.400000
842 16809 9780 1 109.50000 418.400000
842 16809 10691 1 109.50000 418.400000
9780 16809 10691 1 109.50000 418.400000
1384 16810 4385 1 109.50000 418.400000
1384 16810 5213 1 109.50000 418.400000
1384 16810 6280 1 109.50000 418.400000
4385 16810 5213 1 109.50000 418.400000
4385 16810 6280 1 109.50000 418.400000
5213 16810 6280 1 109.50000 418.400000
4969 16811 8335 1 109.50000 418.400000
4969 16811 9962 1 109.50000 418.400000
4969 16811 10653 1 109.50000 418.400000
8335 16811 9962 1 109.50000 418.400000
8335 16811 10653 1 109.50000 418.400000
9962 16811 10653 1 109.50000 418.400000
6046 16812 6381 1 109.50000 418.400000
6046 16812 9612 1 109.50000 418.400000
6046 16812 10696 1 109.50000 418.400000
6381 16812 9612 1 109.50000 418.400000
6381 16812 10696 1 109.50000 418.400000
9612 16812 10696 1 109.50000 418.400000
1230 16813 8864 1 109.50000 418.400000
1230 16813 11025 1 109.50000 418.400000
1230 16813 11045 1 109.50000 418.400000
8864 16813 11025 1 109.50000 418.400000
8864 16813 11045 1 109.50000 418.400000
11025 16813 11045 1 109.50000 418.400000
1531 16814 2481 1 109.50000 418.400000
1531 16814 8352 1 109.50000 418.400000
1531 16814 9342 1 109.50000 418.400000
2481 16814 8352 1 109.50000 418.400000
2481 16814 9342 1 109.50000 418.400000
8352 16814 9342 1 109.50000 418.400000
6992 16815 7845 1 109.50000 418.400000
6992 16815 8420 1 109.50000 418.400000
6992 16815 11084 1 109.50000 418.400000
7845 16815 8420 1 109.50000 418.400000
7845 16815 11084 1 109.50000 418.400000
8420 16815 11084 1 109.50000 418.400000
3410 16816 8170 1 109.50000 418.400000
3410 16816 8346 1 109.50000 418.400000
3410 16816 9626 1 109.50000 418.400000
8170 16816 8346 1 109.50000 418.400000
8170 16816 9626 1 109.50000 418.400000
8346 16816 9626 1 109.50000 418.400000
7244 16817 7464 1 109.50000 418.400000
7244 16817 8015 1 109.50000 418.400000
7244 16817 11085 1 109.50000 418.400000
7464 16817 8015 1 109.50000 418.400000
7464 16817 11085 1 109.50000 418.400000
8015 16817 11085 1 109.50000 418.400000
8166 16818 8434 1 109.50000 418.400000
8166 16818 8436 1 109.50000 418.400000
8166 16818 9790 1 109.50000 418.400000
8434 16818 8436 1 109.50000 418.400000
8434 16818 9790 1 109.50000 418.400000
8436 16818 9790 1 109.50000 418.400000
368 16819 369 1 109.50000 418.400000
368 16819 370 1 109.50000 418.400000
368 16819 9982 1 109.50000 418.400000
369 16819 370 1 109.50000 418.400000
369 16819 9982 1 109.50000 418.400000
370 16819 9982 1 109.50000 418.400000
1901 16820 5626 1 109.50000 418.400000
1901 16820 9931 1 109.50000 418.400000
1901 16820 10294 1 109.50000 418.400000
5626 16820 9931 1 109.50000 418.400000
5626 16820 10294 1 109.50000 418.400000
9931 16820 10294 1 109.50000 418.400000
4160 16821 4215 1 109.50000 418.400000
4160 16821 10057 1 109.50000 418.400000
4160 16821 11086 1 109.50000 418.400000
4215 16821 10057 1 109.50000 418.400000
4215 16821 11086 1 109.50000 418.400000
10057 16821 11086 1 109.50000 418.400000
2452 16822 8619 1 109.50000 418.400000
2452 16822 8954 1 109.50000 418.400000
2452 16822 11522 1 109.50000 418.400000
8619 16822 8954 1 109.50000 418.400000
8619 16822 11522 1 109.50000 418.400000
8954 16822 11522 1 109.50000 418.400000
1095 16823 4802 1 109.50000 418.400000
1095 16823 10726 1 109.50000 418.400000
1095 16823 10937 1 109.50000 418.400000
4802 16823 10726 1 109.50000 418.400000
4802 16823 10937 1 109.50000 418.400000
10726 16823 10937 1 109.50000 418.400000
6177 16824 8820 1 109.50000 418.400000
6177 16824 10026 1 109.50000 418.400000
6177 16824 11087 1 109.50000 418.400000
8820 16824 10026 1 109.50000 418.400000
8820 16824 11087 1 109.50000 418.400000
10026 16824 11087 1 109.50000 418.400000
5943 16825 7934 1 109.50000 418.400000
5943 16825 9268 1 109.50000 418.400000
5943 16825 9408 1 109.50000 418.400000
7934 16825 9268 1 109.50000 418.400000
7934 16825 9408 1 109.50000 418.400000
9268 16825 9408 1 109.50000 418.400000
2610 16826 4204 1 109.50000 418.400000
2610 16826 6245 1 109.50000 418.400000
2610 16826 9411 1 109.50000 418.400000
4204 16826 6245 1 109.50000 418.400000
4204 16826 9411 1 109.50000 418.400000
6245 16826 9411 1 109.50000 418.400000
3854 16827 5842 1 109.50000 418.400000
3854 16827 10170 1 109.50000 418.400000
3854 16827 10285 1 109.50000 418.400000
5842 16827 10170 1 109.50000 418.400000
5842 16827 10285 1 109.50000 418.400000
10170 16827 10285 1 109.50000 418.400000
4208 16828 8473 1 109.50000 418.400000
4208 16828 9009 1 109.50000 418.400000
4208 16828 10424 1 109.50000 418.400000
8473 16828 9009 1 109.50000 418.400000
8473 16828 10424 1 109.50000 418.400000
9009 16828 10424 1 109.50000 418.400000
7882 16829 10620 1 109.50000 418.400000
7882 16829 10851 1 109.50000 418.400000
7882 16829 11088 1 109.50000 418.400000
10620 16829 10851 1 109.50000 418.400000
10620 16829 11088 1 109.50000 418.400000
10851 16829 11088 1 109.50000 418.400000
3580 16830 7041 1 109.50000 418.400000
3580 16830 9959 1 109.50000 418.400000
3580 16830 10941 1 109.50000 418.400000
7041 16830 9959 1 109.50000 418.400000
7041 16830 10941 1 109.50000 418.400000
9959 16830 10941 1 109.50000 418.400000
9857 16831 10719 1 109.50000 418.400000
9857 16831 11089 1 109.50000 418.400000
9857 16831 11090 1 109.50000 418.400000
10719 16831 11089 1 109.50000 418.400000
10719 16831 11090 1 109.50000 418.400000
11089 16831 11090 1 109.50000 418.400000
1215 16832 3499 1 109.50000 418.400000
1215 16832 9825 1 109.50000 418.400000
1215 16832 11091 1 109.50000 418.400000
3499 16832 9825 1 109.50000 418.400000
3499 16832 11091 1 109.50000 418.400000
9825 16832 11091 1 109.50000 418.400000
1843 16833 5477 1 109.50000 418.400000
1843 16833 10823 1 109.50000 418.400000
1843 16833 11051 1 109.50000 418.400000
5477 16833 10823 1 109.50000 418.400000
5477 16833 11051 1 109.50000 418.400000
10823 16833 11051 1 109.50000 418.400000
3543 16834 11092 1 109.50000 418.400000
3543 16834 11168 1 109.50000 418.400000
3543 16834 11388 1 109.50000 418.400000
11092 16834 11168 1 109.50000 418.400000
11092 16834 11388 1 109.50000 418.400000
11168 16834 11388 1 109.50000 418.400000
2279 16835 3225 1 109.50000 418.400000
2279 16835 6345 1 109.50000 418.400000
2279 16835 9291 1 109.50000 418.400000
3225 16835 6345 1 109.50000 418.400000
3225 16835 9291 1 109.50000 418.400000
6345 16835 9291 1 109.50000 418.400000
4029 16836 7771 1 109.50000 418.400000
4029 16836 8373 1 109.50000 418.400000
4029 16836 10415 1 109.50000 418.400000
7771 16836 8373 1 109.50000 418.400000
7771 16836 10415 1 109.50000 418.400000
8373 16836 10415 1 109.50000 418.400000
735 16837 3185 1 109.50000 418.400000
735 16837 10191 1 109.50000 418.400000
735 16837 10393 1 109.50000 418.400000
3185 16837 10191 1 109.50000 418.400000
3185 16837 10393 1 109.50000 418.400000
10191 16837 10393 1 109.50000 418.400000
1231 16838 3418 1 109.50000 418.400000
1231 16838 11171 1 109.50000 418.400000
1231 16838 11513 1 109.50000 418.400000
3418 16838 11171 1 109.50000 418.400000
3418 16838 11513 1 109.50000 418.400000
11171 16838 11513 1 109.50000 418.400000
4668 16839 6117 1 109.50000 418.400000
4668 16839 9254 1 109.50000 418.400000
4668 16839 10898 1 109.50000 418.400000
6117 16839 9254 1 109.50000 418.400000
6117 16839 10898 1 109.50000 418.400000
9254 16839 10898 1 109.50000 418.400000
466 16840 6821 1 109.50000 418.400000
466 16840 8167 1 109.50000 418.400000
466 16840 11061 1 109.50000 418.400000
6821 16840 8167 1 109.50000 418.400000
6821 16840 11061 1 109.50000 418.400000
8167 16840 11061 1 109.50000 418.400000
1750 16841 10502 1 109.50000 418.400000
1750 16841 10574 1 109.50000 418.400000
1750 16841 10583 1 109.50000 418.400000
10502 16841 10574 1 109.50000 418.400000
10502 16841 10583 1 109.50000 418.400000
10574 16841 10583 1 109.50000 418.400000
2300 16842 7197 1 109.50000 418.400000
2300 16842 8846 1 109.50000 418.400000
2300 16842 11093 1 109.50000 418.400000
7197 16842 8846 1 109.50000 418.400000
7197 16842 11093 1 109.50000 418.400000
8846 16842 11093 1 109.50000 418.400000
412 16843 1026 1 109.50000 418.400000
412 16843 2829 1 109.50000 418.400000
412 16843 5278 1 109.50000 418.400000
1026 16843 2829 1 109.50000 418.400000
1026 16843 5278 1 109.50000 418.400000
2829 16843 5278 1 109.50000 418.400000
3052 16844 7671 1 109.50000 418.400000
3052 16844 7672 1 109.50000 418.400000
3052 16844 10366 1 109.50000 418.400000
7671 16844 7672 1 109.50000 418.400000
7671 16844 10366 1 109.50000 418.400000
7672 16844 10366 1 109.50000 418.400000
2678 16845 4864 1 109.50000 418.400000
2678 16845 8945 1 109.50000 418.400000
2678 16845 10445 1 109.50000 418.400000
4864 16845 8945 1 109.50000 418.400000
4864 16845 10445 1 109.50000 418.400000
8945 16845 10445 1 109.50000 418.400000
9835 16846 10766 1 109.50000 418.400000
9835 16846 11081 1 109.50000 418.400000
9835 16846 11549 1 109.50000 418.400000
10766 16846 11081 1 109.50000 418.400000
10766 16846 11549 1 109.50000 418.400000
11081 16846 11549 1 109.50000 418.400000
1227 16847 1319 1 109.50000 418.400000
1227 16847 3083 1 109.50000 418.400000
1227 16847 3653 1 109.50000 418.400000
1319 16847 3083 1 109.50000 418.400000
1319 16847 3653 1 109.50000 418.400000
3083 16847 3653 1 109.50000 418.400000
928 16848 1014 1 109.50000 418.400000
928 16848 5720 1 109.50000 418.400000
928 16848 10198 1 109.50000 418.400000
1014 16848 5720 1 109.50000 418.400000
1014 16848 10198 1 109.50000 418.400000
5720 16848 10198 1 109.50000 418.400000
6095 16849 8537 1 109.50000 418.400000
6095 16849 8854 1 109.50000 418.400000
6095 16849 9096 1 109.50000 418.400000
8537 16849 8854 1 109.50000 418.400000
8537 16849 9096 1 109.50000 418.400000
8854 16849 9096 1 109.50000 418.400000
4607 16850 6525 1 109.50000 418.400000
4607 16850 8280 1 109.50000 418.400000
4607 16850 9313 1 109.50000 418.400000
6525 16850 8280 1 109.50000 418.400000
6525 16850 9313 1 109.50000 418.400000
8280 16850 9313 1 109.50000 418.400000
6782 16851 7105 1 109.50000 418.400000
6782 16851 9420 1 109.50000 418.400000
6782 16851 10249 1 109.50000 418.400000
7105 16851 9420 1 109.50000 418.400000
7105 16851 10249 1 109.50000 418.400000
9420 16851 10249 1 109.50000 418.400000
5417 16852 7568 1 109.50000 418.400000
5417 16852 9505 1 109.50000 418.400000
5417 16852 10795 1 109.50000 418.400000
7568 16852 9505 1 109.50000 418.400000
7568 16852 10795 1 109.50000 418.400000
9505 16852 10795 1 109.50000 418.400000
9399 16853 10762 1 109.50000 418.400000
9399 16853 10818 1 109.50000 418.400000
9399 16853 10979 1 109.50000 418.400000
10762 16853 10818 1 109.50000 418.400000
10762 16853 10979 1 109.50000 418.400000
10818 16853 10979 1 109.50000 418.400000
3974 16854 4432 1 109.50000 418.400000
3974 16854 4519 1 109.50000 418.400000
3974 16854 11479 1 109.50000 418.400000
4432 16854 4519 1 109.50000 418.400000
4432 16854 11479 1 109.50000 418.400000
4519 16854 11479 1 109.50000 418.400000
7863 16855 10587 1 109.50000 418.400000
7863 16855 11241 1 109.50000 418.400000
7863 16855 11315 1 109.50000 418.400000
10587 16855 11241 1 109.50000 418.400000
10587 16855 11315 1 109.50000 418.400000
11241 16855 11315 1 109.50000 418.400000
3658 16856 5167 1 109.50000 418.400000
3658 16856 6505 1 109.50000 418.400000
3658 16856 8860 1 109.50000 418.400000
5167 16856 6505 1 109.50000 418.400000
5167 16856 8860 1 109.50000 418.400000
6505 16856 8860 1 109.50000 418.400000
1631 16857 1633 1 109.50000 418.400000
1631 16857 2956 1 109.50000 418.400000
1631 16857 11057 1 109.50000 418.400000
1633 16857 2956 1 109.50000 418.400000
1633 16857 11057 1 109.50000 418.400000
2956 16857 11057 1 109.50000 418.400000
2462 16858 8028 1 109.50000 418.400000
2462 16858 8308 1 109.50000 418.400000
2462 16858 10330 1 109.50000 418.400000
8028 16858 8308 1 109.50000 418.400000
8028 16858 10330 1 109.50000 418.400000
8308 16858 10330 1 109.50000 418.400000
2461 16859 8205 1 109.50000 418.400000
2461 16859 10562 1 109.50000 418.400000
2461 16859 11094 1 109.50000 418.400000
8205 16859 10562 1 109.50000 418.400000
8205 16859 11094 1 109.50000 418.400000
10562 16859 11094 1 109.50000 418.400000
1696 16860 2144 1 109.50000 418.400000
1696 16860 9002 1 109.50000 418.400000
1696 16860 9181 1 109.50000 418.400000
2144 16860 9002 1 109.50000 418.400000
2144 16860 9181 1 109.50000 418.400000
9002 16860 9181 1 109.50000 418.400000
3784 16861 7442 1 109.50000 418.400000
3784 16861 10533 1 109.50000 418.400000
3784 16861 10572 1 109.50000 418.400000
7442 16861 10533 1 109.50000 418.400000
7442 16861 10572 1 109.50000 418.400000
10533 16861 10572 1 109.50000 418.400000
4404 16862 5045 1 109.50000 418.400000
4404 16862 6021 1 109.50000 418.400000
4404 16862 10646 1 109.50000 418.400000
5045 16862 6021 1 109.50000 418.400000
5045 16862 10646 1 109.50000 418.400000
6021 16862 10646 1 109.50000 418.400000
6801 16863 7522 1 109.50000 418.400000
6801 16863 8845 1 109.50000 418.400000
6801 16863 10901 1 109.50000 418.400000
7522 16863 8845 1 109.50000 418.400000
7522 16863 10901 1 109.50000 418.400000
8845 16863 10901 1 109.50000 418.400000
544 16864 9461 1 109.50000 418.400000
544 16864 10877 1 109.50000 418.400000
544 16864 11002 1 109.50000 418.400000
9461 16864 10877 1 109.50000 418.400000
9461 16864 11002 1 109.50000 418.400000
10877 16864 11002 1 109.50000 418.400000
1190 16865 9058 1 109.50000 418.400000
1190 16865 10589 1 109.50000 418.400000
1190 16865 10983 1 109.50000 418.400000
9058 16865 10589 1 109.50000 418.400000
9058 16865 10983 1 109.50000 418.400000
10589 16865 10983 1 109.50000 418.400000
6182 16866 6886 1 109.50000 418.400000
6182 16866 10288 1 109.50000 418.400000
6182 16866 10791 1 109.50000 418.400000
6886 16866 10288 1 109.50000 418.400000
6886 16866 10791 1 109.50000 418.400000
10288 16866 10791 1 109.50000 418.400000
7229 16867 7784 1 109.50000 418.400000
7229 16867 9589 1 109.50000 418.400000
7229 16867 11095 1 109.50000 418.400000
7784 16867 9589 1 109.50000 418.400000
7784 16867 11095 1 109.50000 418.400000
9589 16867 11095 1 109.50000 418.400000
2384 16868 9588 1 109.50000 418.400000
2384 16868 10580 1 109.50000 418.400000
2384 16868 11086 1 109.50000 418.400000
9588 16868 10580 1 109.50000 418.400000
9588 16868 11086 1 109.50000 418.400000
10580 16868 11086 1 109.50000 418.400000
2104 16869 5823 1 109.50000 418.400000
2104 16869 8139 1 109.50000 418.400000
2104 16869 9831 1 109.50000 418.400000
5823 16869 8139 1 109.50000 418.400000
5823 16869 9831 1 109.50000 418.400000
8139 16869 9831 1 109.50000 418.400000
2157 16870 2435 1 109.50000 418.400000
2157 16870 3800 1 109.50000 418.400000
2157 16870 5721 1 109.50000 418.400000
2435 16870 3800 1 109.50000 418.400000
2435 16870 5721 1 109.50000 418.400000
3800 16870 5721 1 109.50000 418.400000
2868 16871 4881 1 109.50000 418.400000
2868 16871 5560 1 109.50000 418.400000
2868 16871 7631 1 109.50000 418.400000
4881 16871 5560 1 109.50000 418.400000
4881 16871 7631 1 109.50000 418.400000
5560 16871 7631 1 109.50000 418.400000
1355 16872 7690 1 109.50000 418.400000
1355 16872 8314 1 109.50000 418.400000
1355 16872 11096 1 109.50000 418.400000
7690 16872 8314 1 109.50000 418.400000
7690 16872 11096 1 109.50000 418.400000
8314 16872 11096 1 109.50000 418.400000
1165 16873 3860 1 109.50000 418.400000
1165 16873 9135 1 109.50000 418.400000
1165 16873 10637 1 109.50000 418.400000
3860 16873 9135 1 109.50000 418.400000
3860 16873 10637 1 109.50000 418.400000
9135 16873 10637 1 109.50000 418.400000
8311 16874 9474 1 109.50000 418.400000
8311 16874 10990 1 109.50000 418.400000
8311 16874 11011 1 109.50000 418.400000
9474 16874 10990 1 109.50000 418.400000
9474 16874 11011 1 109.50000 418.400000
10990 16874 11011 1 109.50000 418.400000
6748 16875 6775 1 109.50000 418.400000
6748 16875 8432 1 109.50000 418.400000
6748 16875 9231 1 109.50000 418.400000
6775 16875 8432 1 109.50000 418.400000
6775 16875 9231 1 109.50000 418.400000
8432 16875 9231 1 109.50000 418.400000
590 16876 3761 1 109.50000 418.400000
590 16876 8966 1 109.50000 418.400000
590 16876 10235 1 109.50000 418.400000
3761 16876 8966 1 109.50000 418.400000
3761 16876 10235 1 109.50000 418.400000
8966 16876 10235 1 109.50000 418.400000
72 16877 5126 1 109.50000 418.400000
72 16877 8720 1 109.50000 418.400000
72 16877 11034 1 109.50000 418.400000
5126 16877 8720 1 109.50000 418.400000
5126 16877 11034 1 109.50000 418.400000
8720 16877 11034 1 109.50000 418.400000
3362 16878 6823 1 109.50000 418.400000
3362 16878 8429 1 109.50000 418.400000
3362 16878 8431 1 109.50000 418.400000
6823 16878 8429 1 109.50000 418.400000
6823 16878 8431 1 109.50000 418.400000
8429 16878 8431 1 109.50000 418.400000
3576 16879 4257 1 109.50000 418.400000
3576 16879 6043 1 109.50000 418.400000
3576 16879 10845 1 109.50000 418.400000
4257 16879 6043 1 109.50000 418.400000
4257 16879 10845 1 109.50000 418.400000
6043 16879 10845 1 109.50000 418.400000
3775 16880 5269 1 109.50000 418.400000
3775 16880 7991 1 109.50000 418.400000
3775 16880 11317 1 109.50000 418.400000
5269 16880 7991 1 109.50000 418.400000
5269 16880 11317 1 109.50000 418.400000
7991 16880 11317 1 109.50000 418.400000
2155 16881 7531 1 109.50000 418.400000
2155 16881 7592 1 109.50000 418.400000
2155 16881 10615 1 109.50000 418.400000
7531 16881 7592 1 109.50000 418.400000
7531 16881 10615 1 109.50000 418.400000
7592 16881 10615 1 109.50000 418.400000
9402 16882 11097 1 109.50000 418.400000
9402 16882 11321 1 109.50000 418.400000
9402 16882 11574 1 109.50000 418.400000
11097 16882 11321 1 109.50000 418.400000
11097 16882 11574 1 109.50000 418.400000
11321 16882 11574 1 109.50000 418.400000
4682 16883 6393 1 109.50000 418.400000
4682 16883 6866 1 109.50000 418.400000
4682 16883 10754 1 109.50000 418.400000
6393 16883 6866 1 109.50000 418.400000
6393 16883 10754 1 109.50000 418.400000
6866 16883 10754 1 109.50000 418.400000
4718 16884 6260 1 109.50000 418.400000
4718 16884 6805 1 109.50000 418.400000
4718 16884 10922 1 109.50000 418.400000
6260 16884 6805 1 109.50000 418.400000
6260 16884 10922 1 109.50000 418.400000
6805 16884 10922 1 109.50000 418.400000
1442 16885 8676 1 109.50000 418.400000
1442 16885 10967 1 109.50000 418.400000
1442 16885 10997 1 109.50000 418.400000
8676 16885 10967 1 109.50000 418.400000
8676 16885 10997 1 109.50000 418.400000
10967 16885 10997 1 109.50000 418.400000
7551 16886 8520 1 109.50000 418.400000
7551 16886 11148 1 109.50000 418.400000
7551 16886 11547 1 109.50000 418.400000
8520 16886 11148 1 109.50000 418.400000
8520 16886 11547 1 109.50000 418.400000
11148 16886 11547 1 109.50000 418.400000
3066 16887 5551 1 109.50000 418.400000
3066 16887 8013 1 109.50000 418.400000
3066 16887 9808 1 109.50000 418.400000
5551 16887 8013 1 109.50000 418.400000
5551 16887 9808 1 109.50000 418.400000
8013 16887 9808 1 109.50000 418.400000
7338 16888 8532 1 109.50000 418.400000
7338 16888 9895 1 109.50000 418.400000
7338 16888 11098 1 109.50000 418.400000
8532 16888 9895 1 109.50000 418.400000
8532 16888 11098 1 109.50000 418.400000
9895 16888 11098 1 109.50000 418.400000
525 16889 969 1 109.50000 418.400000
525 16889 5525 1 109.50000 418.400000
525 16889 6559 1 109.50000 418.400000
969 16889 5525 1 109.50000 418.400000
969 16889 6559 1 109.50000 418.400000
5525 16889 6559 1 109.50000 418.400000
5012 16890 5013 1 109.50000 418.400000
5012 16890 7621 1 109.50000 418.400000
5012 16890 7828 1 109.50000 418.400000
5013 16890 7621 1 109.50000 418.400000
5013 16890 7828 1 109.50000 418.400000
7621 16890 7828 1 109.50000 418.400000
7192 16891 8326 1 109.50000 418.400000
7192 16891 10650 1 109.50000 418.400000
7192 16891 10716 1 109.50000 418.400000
8326 16891 10650 1 109.50000 418.400000
8326 16891 10716 1 109.50000 418.400000
10650 16891 10716 1 109.50000 418.400000
2950 16892 5643 1 109.50000 418.400000
2950 16892 10980 1 109.50000 418.400000
2950 16892 10981 1 109.50000 418.400000
5643 16892 10980 1 109.50000 418.400000
5643 16892 10981 1 109.50000 418.400000
10980 16892 10981 1 109.50000 418.400000
2694 16893 7097 1 109.50000 418.400000
2694 16893 9966 1 109.50000 418.400000
2694 16893 11041 1 109.50000 418.400000
7097 16893 9966 1 109.50000 418.400000
7097 16893 11041 1 109.50000 418.400000
9966 16893 11041 1 109.50000 418.400000
978 16894 2313 1 109.50000 418.400000
978 16894 4530 1 109.50000 418.400000
978 16894 11176 1 109.50000 418.400000
2313 16894 4530 1 109.50000 418.400000
2313 16894 11176 1 109.50000 418.400000
4530 16894 11176 1 109.50000 418.400000
862 16895 1274 1 109.50000 418.400000
862 16895 1914 1 109.50000 418.400000
862 16895 10577 1 109.50000 418.400000
1274 16895 1914 1 109.50000 418.400000
1274 16895 10577 1 109.50000 418.400000
1914 16895 10577 1 109.50000 418.400000
1780 16896 3555 1 109.50000 418.400000
1780 16896 8772 1 109.50000 418.400000
1780 16896 8940 1 109.50000 418.400000
3555 16896 8772 1 109.50000 418.400000
3555 16896 8940 1 109.50000 418.400000
8772 16896 8940 1 109.50000 418.400000
1348 16897 1459 1 109.50000 418.400000
1348 16897 4992 1 109.50000 418.400000
1348 16897 8734 1 109.50000 418.400000
1459 16897 4992 1 109.50000 418.400000
1459 16897 8734 1 109.50000 418.400000
4992 16897 8734 1 109.50000 418.400000
4911 16898 4948 1 109.50000 418.400000
4911 16898 6213 1 109.50000 418.400000
4911 16898 7216 1 109.50000 418.400000
4948 16898 6213 1 109.50000 418.400000
4948 16898 7216 1 109.50000 418.400000
6213 16898 7216 1 109.50000 418.400000
1562 16899 7902 1 109.50000 418.400000
1562 16899 8187 1 109.50000 418.400000
1562 16899 11099 1 109.50000 418.400000
7902 16899 8187 1 109.50000 418.400000
7902 16899 11099 1 109.50000 418.400000
8187 16899 11099 1 109.50000 418.400000
212 16900 1875 1 109.50000 418.400000
212 16900 10098 1 109.50000 418.400000
212 16900 11100 1 109.50000 418.400000
1875 16900 10098 1 109.50000 418.400000
1875 16900 11100 1 109.50000 418.400000
10098 16900 11100 1 109.50000 418.400000
481 16901 7280 1 109.50000 418.400000
481 16901 9238 1 109.50000 418.400000
481 16901 10557 1 109.50000 418.400000
7280 16901 9238 1 109.50000 418.400000
7280 16901 10557 1 109.50000 418.400000
9238 16901 10557 1 109.50000 418.400000
3413 16902 7957 1 109.50000 418.400000
3413 16902 11101 1 109.50000 418.400000
3413 16902 11102 1 109.50000 418.400000
7957 16902 11101 1 109.50000 418.400000
7957 16902 11102 1 109.50000 418.400000
11101 16902 11102 1 109.50000 418.400000
355 16903 3513 1 109.50000 418.400000
355 16903 3829 1 109.50000 418.400000
355 16903 11103 1 109.50000 418.400000
3513 16903 3829 1 109.50000 418.400000
3513 16903 11103 1 109.50000 418.400000
3829 16903 11103 1 109.50000 418.400000
7951 16904 8929 1 109.50000 418.400000
7951 16904 11074 1 109.50000 418.400000
7951 16904 11104 1 109.50000 418.400000
8929 16904 11074 1 109.50000 418.400000
8929 16904 11104 1 109.50000 418.400000
11074 16904 11104 1 109.50000 418.400000
2036 16905 9578 1 109.50000 418.400000
2036 16905 10004 1 109.50000 418.400000
2036 16905 11495 1 109.50000 418.400000
9578 16905 10004 1 109.50000 418.400000
9578 16905 11495 1 109.50000 418.400000
10004 16905 11495 1 109.50000 418.400000
2193 16906 4831 1 109.50000 418.400000
2193 16906 8666 1 109.50000 418.400000
2193 16906 8826 1 109.50000 418.400000
4831 16906 8666 1 109.50000 418.400000
4831 16906 8826 1 109.50000 418.400000
8666 16906 8826 1 109.50000 418.400000
1928 16907 6167 1 109.50000 418.400000
1928 16907 7245 1 109.50000 418.400000
1928 16907 11105 1 109.50000 418.400000
6167 16907 7245 1 109.50000 418.400000
6167 16907 11105 1 109.50000 418.400000
7245 16907 11105 1 109.50000 418.400000
790 16908 8671 1 109.50000 418.400000
790 16908 8984 1 109.50000 418.400000
790 16908 11106 1 109.50000 418.400000
8671 16908 8984 1 109.50000 418.400000
8671 16908 11106 1 109.50000 418.400000
8984 16908 11106 1 109.50000 418.400000
3587 16909 4365 1 109.50000 418.400000
3587 16909 6308 1 109.50000 418.400000
3587 16909 7463 1 109.50000 418.400000
4365 16909 6308 1 109.50000 418.400000
4365 16909 7463 1 109.50000 418.400000
6308 16909 7463 1 109.50000 418.400000
197 16910 9584 1 109.50000 418.400000
197 16910 10623 1 109.50000 418.400000
197 16910 11107 1 109.50000 418.400000
9584 16910 10623 1 109.50000 418.400000
9584 16910 11107 1 109.50000 418.400000
10623 16910 11107 1 109.50000 418.400000
2271 16911 6811 1 109.50000 418.400000
2271 16911 10117 1 109.50000 418.400000
2271 16911 10628 1 109.50000 418.400000
6811 16911 10117 1 109.50000 418.400000
6811 16911 10628 1 109.50000 418.400000
10117 16911 10628 1 109.50000 418.400000
5057 16912 6019 1 109.50000 418.400000
5057 16912 6189 1 109.50000 418.400000
5057 16912 8900 1 109.50000 418.400000
6019 16912 6189 1 109.50000 418.400000
6019 16912 8900 1 109.50000 418.400000
6189 16912 8900 1 109.50000 418.400000
5059 16913 8895 1 109.50000 418.400000
5059 16913 10077 1 109.50000 418.400000
5059 16913 11073 1 109.50000 418.400000
8895 16913 10077 1 109.50000 418.400000
8895 16913 11073 1 109.50000 418.400000
10077 16913 11073 1 109.50000 418.400000
223 16914 6437 1 109.50000 418.400000
223 16914 9978 1 109.50000 418.400000
223 16914 10023 1 109.50000 418.400000
6437 16914 9978 1 109.50000 418.400000
6437 16914 10023 1 109.50000 418.400000
9978 16914 10023 1 109.50000 418.400000
7909 16915 10821 1 109.50000 418.400000
7909 16915 11237 1 109.50000 418.400000
7909 16915 11414 1 109.50000 418.400000
10821 16915 11237 1 109.50000 418.400000
10821 16915 11414 1 109.50000 418.400000
11237 16915 11414 1 109.50000 418.400000
2914 16916 5091 1 109.50000 418.400000
2914 16916 11192 1 109.50000 418.400000
2914 16916 11336 1 109.50000 418.400000
5091 16916 11192 1 109.50000 418.400000
5091 16916 11336 1 109.50000 418.400000
11192 16916 11336 1 109.50000 418.400000
8867 16917 10043 1 109.50000 418.400000
8867 16917 10954 1 109.50000 418.400000
8867 16917 11313 1 109.50000 418.400000
10043 16917 10954 1 109.50000 418.400000
10043 16917 11313 1 109.50000 418.400000
10954 16917 11313 1 109.50000 418.400000
4125 16918 10512 1 109.50000 418.400000
4125 16918 10992 1 109.50000 418.400000
4125 16918 11083 1 109.50000 418.400000
10512 16918 10992 1 109.50000 418.400000
10512 16918 11083 1 109.50000 418.400000
10992 16918 11083 1 109.50000 418.400000
4021 16919 6994 1 109.50000 418.400000
4021 16919 8603 1 109.50000 418.400000
4021 16919 11108 1 109.50000 418.400000
6994 16919 8603 1 109.50000 418.400000
6994 16919 11108 1 109.50000 418.400000
8603 16919 11108 1 109.50000 418.400000
4027 16920 4145 1 109.50000 418.400000
4027 16920 10684 1 109.50000 418.400000
4027 16920 11107 1 109.50000 418.400000
4145 16920 10684 1 109.50000 418.400000
4145 16920 11107 1 109.50000 418.400000
10684 16920 11107 1 109.50000 418.400000
934 16921 1361 1 109.50000 418.400000
934 16921 8687 1 109.50000 418.400000
934 16921 9354 1 109.50000 418.400000
1361 16921 8687 1 109.50000 418.400000
1361 16921 9354 1 109.50000 418.400000
8687 16921 9354 1 109.50000 418.400000
1446 16922 8380 1 109.50000 418.400000
1446 16922 11021 1 109.50000 418.400000
1446 16922 11098 1 109.50000 418.400000
8380 16922 11021 1 109.50000 418.400000
8380 16922 11098 1 109.50000 418.400000
11021 16922 11098 1 109.50000 418.400000
1920 16923 8426 1 109.50000 418.400000
1920 16923 8427 1 109.50000 418.400000
1920 16923 8428 1 109.50000 418.400000
8426 16923 8427 1 109.50000 418.400000
8426 16923 8428 1 109.50000 418.400000
8427 16923 8428 1 109.50000 418.400000
9903 16924 10158 1 109.50000 418.400000
9903 16924 10413 1 109.50000 418.400000
9903 16924 11422 1 109.50000 418.400000
10158 16924 10413 1 109.50000 418.400000
10158 16924 11422 1 109.50000 418.400000
10413 16924 11422 1 109.50000 418.400000
2710 16925 4978 1 109.50000 418.400000
2710 16925 6332 1 109.50000 418.400000
2710 16925 11104 1 109.50000 418.400000
4978 16925 6332 1 109.50000 418.400000
4978 16925 11104 1 109.50000 418.400000
6332 16925 11104 1 109.50000 418.400000
459 16926 817 1 109.50000 418.400000
459 16926 8365 1 109.50000 418.400000
459 16926 10833 1 109.50000 418.400000
817 16926 8365 1 109.50000 418.400000
817 16926 10833 1 109.50000 418.400000
8365 16926 10833 1 109.50000 418.400000
1415 16927 7911 1 109.50000 418.400000
1415 16927 10264 1 109.50000 418.400000
1415 16927 11109 1 109.50000 418.400000
7911 16927 10264 1 109.50000 418.400000
7911 16927 11109 1 109.50000 418.400000
10264 16927 11109 1 109.50000 418.400000
9100 16928 9146 1 109.50000 418.400000
9100 16928 9960 1 109.50000 418.400000
9100 16928 11046 1 109.50000 418.400000
9146 16928 9960 1 109.50000 418.400000
9146 16928 11046 1 109.50000 418.400000
9960 16928 11046 1 109.50000 418.400000
5919 16929 9644 1 109.50000 418.400000
5919 16929 11042 1 109.50000 418.400000
5919 16929 11110 1 109.50000 418.400000
9644 16929 11042 1 109.50000 418.400000
9644 16929 11110 1 109.50000 418.400000
11042 16929 11110 1 109.50000 418.400000
2194 16930 2195 1 109.50000 418.400000
2194 16930 7368 1 109.50000 418.400000
2194 16930 10609 1 109.50000 418.400000
2195 16930 7368 1 109.50000 418.400000
2195 16930 10609 1 109.50000 418.400000
7368 16930 10609 1 109.50000 418.400000
5995 16931 8663 1 109.50000 418.400000
5995 16931 10394 1 109.50000 418.400000
5995 16931 10892 1 109.50000 418.400000
8663 16931 10394 1 109.50000 418.400000
8663 16931 10892 1 109.50000 418.400000
10394 16931 10892 1 109.50000 418.400000
6575 16932 8460 1 109.50000 418.400000
6575 16932 8461 1 109.50000 418.400000
6575 16932 10172 1 109.50000 418.400000
8460 16932 8461 1 109.50000 418.400000
8460 16932 10172 1 109.50000 418.400000
8461 16932 10172 1 109.50000 418.400000
4195 16933 4251 1 109.50000 418.400000
4195 16933 5222 1 109.50000 418.400000
4195 16933 10910 1 109.50000 418.400000
4251 16933 5222 1 109.50000 418.400000
4251 16933 10910 1 109.50000 418.400000
5222 16933 10910 1 109.50000 418.400000
1113 16934 1114 1 109.50000 418.400000
1113 16934 1314 1 109.50000 418.400000
1113 16934 6693 1 109.50000 418.400000
1114 16934 1314 1 109.50000 418.400000
1114 16934 6693 1 109.50000 418.400000
1314 16934 6693 1 109.50000 418.400000
2557 16935 2928 1 109.50000 418.400000
2557 16935 6921 1 109.50000 418.400000
2557 16935 10942 1 109.50000 418.400000
2928 16935 6921 1 109.50000 418.400000
2928 16935 10942 1 109.50000 418.400000
6921 16935 10942 1 109.50000 418.400000
10707 16936 10844 1 109.50000 418.400000
10707 16936 11027 1 109.50000 418.400000
10707 16936 11111 1 109.50000 418.400000
10844 16936 11027 1 109.50000 418.400000
10844 16936 11111 1 109.50000 418.400000
11027 16936 11111 1 109.50000 418.400000
4916 16937 7700 1 109.50000 418.400000
4916 16937 9309 1 109.50000 418.400000
4916 16937 11103 1 109.50000 418.400000
7700 16937 9309 1 109.50000 418.400000
7700 16937 11103 1 109.50000 418.400000
9309 16937 11103 1 109.50000 418.400000
8511 16938 10784 1 109.50000 418.400000
8511 16938 11142 1 109.50000 418.400000
8511 16938 11425 1 109.50000 418.400000
10784 16938 11142 1 109.50000 418.400000
10784 16938 11425 1 109.50000 418.400000
11142 16938 11425 1 109.50000 418.400000
3110 16939 7832 1 109.50000 418.400000
3110 16939 8559 1 109.50000 418.400000
3110 16939 10610 1 109.50000 418.400000
7832 16939 8559 1 109.50000 418.400000
7832 16939 10610 1 109.50000 418.400000
8559 16939 10610 1 109.50000 418.400000
3162 16940 5481 1 109.50000 418.400000
3162 16940 6512 1 109.50000 418.400000
3162 16940 7360 1 109.50000 418.400000
5481 16940 6512 1 109.50000 418.400000
5481 16940 7360 1 109.50000 418.400000
6512 16940 7360 1 109.50000 418.400000
227 16941 4639 1 109.50000 418.400000
227 16941 4910 1 109.50000 418.400000
227 16941 11001 1 109.50000 418.400000
4639 16941 4910 1 109.50000 418.400000
4639 16941 11001 1 109.50000 418.400000
4910 16941 11001 1 109.50000 418.400000
10542 16942 10706 1 109.50000 418.400000
10542 16942 11067 1 109.50000 418.400000
10542 16942 11112 1 109.50000 418.400000
10706 16942 11067 1 109.50000 418.400000
10706 16942 11112 1 109.50000 418.400000
11067 16942 11112 1 109.50000 418.400000
3676 16943 10932 1 109.50000 418.400000
3676 16943 11092 1 109.50000 418.400000
3676 16943 11113 1 109.50000 418.400000
10932 16943 11092 1 109.50000 418.400000
10932 16943 11113 1 109.50000 418.400000
11092 16943 11113 1 109.50000 418.400000
7583 16944 9243 1 109.50000 418.400000
7583 16944 10525 1 109.50000 418.400000
7583 16944 11114 1 109.50000 418.400000
9243 16944 10525 1 109.50000 418.400000
9243 16944 11114 1 109.50000 418.400000
10525 16944 11114 1 109.50000 418.400000
6776 16945 7030 1 109.50000 418.400000
6776 16945 10284 1 109.50000 418.400000
6776 16945 11030 1 109.50000 418.400000
7030 16945 10284 1 109.50000 418.400000
7030 16945 11030 1 109.50000 418.400000
10284 16945 11030 1 109.50000 418.400000
3557 16946 4786 1 109.50000 418.400000
3557 16946 5423 1 109.50000 418.400000
3557 16946 5869 1 109.50000 418.400000
4786 16946 5423 1 109.50000 418.400000
4786 16946 5869 1 109.50000 418.400000
5423 16946 5869 1 109.50000 418.400000
1993 16947 10550 1 109.50000 418.400000
1993 16947 11273 1 109.50000 418.400000
1993 16947 11504 1 109.50000 418.400000
10550 16947 11273 1 109.50000 418.400000
10550 16947 11504 1 109.50000 418.400000
11273 16947 11504 1 109.50000 418.400000
4531 16948 6578 1 109.50000 418.400000
4531 16948 7072 1 109.50000 418.400000
4531 16948 11106 1 109.50000 418.400000
6578 16948 7072 1 109.50000 418.400000
6578 16948 11106 1 109.50000 418.400000
7072 16948 11106 1 109.50000 418.400000
863 16949 2511 1 109.50000 418.400000
863 16949 9891 1 109.50000 418.400000
863 16949 11060 1 109.50000 418.400000
2511 16949 9891 1 109.50000 418.400000
2511 16949 11060 1 109.50000 418.400000
9891 16949 11060 1 109.50000 418.400000
4168 16950 9877 1 109.50000 418.400000
4168 16950 11160 1 109.50000 418.400000
4168 16950 11308 1 109.50000 418.400000
9877 16950 11160 1 109.50000 418.400000
9877 16950 11308 1 109.50000 418.400000
11160 16950 11308 1 109.50000 418.400000
527 16951 9008 1 109.50000 418.400000
527 16951 10986 1 109.50000 418.400000
527 16951 11026 1 109.50000 418.400000
9008 16951 10986 1 109.50000 418.400000
9008 16951 11026 1 109.50000 418.400000
10986 16951 11026 1 109.50000 418.400000
2520 16952 8218 1 109.50000 418.400000
2520 16952 8931 1 109.50000 418.400000
2520 16952 9387 1 109.50000 418.400000
8218 16952 8931 1 109.50000 418.400000
8218 16952 9387 1 109.50000 418.400000
8931 16952 9387 1 109.50000 418.400000
5324 16953 7154 1 109.50000 418.400000
5324 16953 8979 1 109.50000 418.400000
5324 16953 10556 1 109.50000 418.400000
7154 16953 8979 1 109.50000 418.400000
7154 16953 10556 1 109.50000 418.400000
8979 16953 10556 1 109.50000 418.400000
5819 16954 8576 1 109.50000 418.400000
5819 16954 10065 1 109.50000 418.400000
5819 16954 11115 1 109.50000 418.400000
8576 16954 10065 1 109.50000 418.400000
8576 16954 11115 1 109.50000 418.400000
10065 16954 11115 1 109.50000 418.400000
6698 16955 11049 1 109.50000 418.400000
6698 16955 11116 1 109.50000 418.400000
6698 16955 11252 1 109.50000 418.400000
11049 16955 11116 1 109.50000 418.400000
11049 16955 11252 1 109.50000 418.400000
11116 16955 11252 1 109.50000 418.400000
7008 16956 7978 1 109.50000 418.400000
7008 16956 10582 1 109.50000 418.400000
7008 16956 11485 1 109.50000 418.400000
7978 16956 10582 1 109.50000 418.400000
7978 16956 11485 1 109.50000 418.400000
10582 16956 11485 1 109.50000 418.400000
1818 16957 2863 1 109.50000 418.400000
1818 16957 3073 1 109.50000 418.400000
1818 16957 10891 1 109.50000 418.400000
2863 16957 3073 1 109.50000 418.400000
2863 16957 10891 1 109.50000 418.400000
3073 16957 10891 1 109.50000 418.400000
5332 16958 9586 1 109.50000 418.400000
5332 16958 10788 1 109.50000 418.400000
5332 16958 11063 1 109.50000 418.400000
9586 16958 10788 1 109.50000 418.400000
9586 16958 11063 1 109.50000 418.400000
10788 16958 11063 1 109.50000 418.400000
997 16959 4485 1 109.50000 418.400000
997 16959 8556 1 109.50000 418.400000
997 16959 10225 1 109.50000 418.400000
4485 16959 8556 1 109.50000 418.400000
4485 16959 10225 1 109.50000 418.400000
8556 16959 10225 1 109.50000 418.400000
2711 16960 4976 1 109.50000 418.400000
2711 16960 9912 1 109.50000 418.400000
2711 16960 11117 1 109.50000 418.400000
4976 16960 9912 1 109.50000 418.400000
4976 16960 11117 1 109.50000 418.400000
9912 16960 11117 1 109.50000 418.400000
572 16961 1188 1 109.50000 418.400000
572 16961 8563 1 109.50000 418.400000
572 16961 10972 1 109.50000 418.400000
1188 16961 8563 1 109.50000 418.400000
1188 16961 10972 1 109.50000 418.400000
8563 16961 10972 1 109.50000 418.400000
680 16962 1538 1 109.50000 418.400000
680 16962 6543 1 109.50000 418.400000
680 16962 8073 1 109.50000 418.400000
1538 16962 6543 1 109.50000 418.400000
1538 16962 8073 1 109.50000 418.400000
6543 16962 8073 1 109.50000 418.400000
1651 16963 8398 1 109.50000 418.400000
1651 16963 8564 1 109.50000 418.400000
1651 16963 11069 1 109.50000 418.400000
8398 16963 8564 1 109.50000 418.400000
8398 16963 11069 1 109.50000 418.400000
8564 16963 11069 1 109.50000 418.400000
4549 16964 6861 1 109.50000 418.400000
4549 16964 8819 1 109.50000 418.400000
4549 16964 11093 1 109.50000 418.400000
6861 16964 8819 1 109.50000 418.400000
6861 16964 11093 1 109.50000 418.400000
8819 16964 11093 1 109.50000 418.400000
3694 16965 4683 1 109.50000 418.400000
3694 16965 8517 1 109.50000 418.400000
3694 16965 11118 1 109.50000 418.400000
4683 16965 8517 1 109.50000 418.400000
4683 16965 11118 1 109.50000 418.400000
8517 16965 11118 1 109.50000 418.400000
2150 16966 3626 1 109.50000 418.400000
2150 16966 11110 1 109.50000 418.400000
2150 16966 11337 1 109.50000 418.400000
3626 16966 11110 1 109.50000 418.400000
3626 16966 11337 1 109.50000 418.400000
11110 16966 11337 1 109.50000 418.400000
8240 16967 8242 1 109.50000 418.400000
8240 16967 9782 1 109.50000 418.400000
8240 16967 10044 1 109.50000 418.400000
8242 16967 9782 1 109.50000 418.400000
8242 16967 10044 1 109.50000 418.400000
9782 16967 10044 1 109.50000 418.400000
1108 16968 2925 1 109.50000 418.400000
1108 16968 6072 1 109.50000 418.400000
1108 16968 6322 1 109.50000 418.400000
2925 16968 6072 1 109.50000 418.400000
2925 16968 6322 1 109.50000 418.400000
6072 16968 6322 1 109.50000 418.400000
2951 16969 2952 1 109.50000 418.400000
2951 16969 2953 1 109.50000 418.400000
2951 16969 2954 1 109.50000 418.400000
2952 16969 2953 1 109.50000 418.400000
2952 16969 2954 1 109.50000 418.400000
2953 16969 2954 1 109.50000 418.400000
8605 16970 8693 1 109.50000 418.400000
8605 16970 9171 1 109.50000 418.400000
8605 16970 11119 1 109.50000 418.400000
8693 16970 9171 1 109.50000 418.400000
8693 16970 11119 1 109.50000 418.400000
9171 16970 11119 1 109.50000 418.400000
5468 16971 8361 1 109.50000 418.400000
5468 16971 11029 1 109.50000 418.400000
5468 16971 11501 1 109.50000 418.400000
8361 16971 11029 1 109.50000 418.400000
8361 16971 11501 1 109.50000 418.400000
11029 16971 11501 1 109.50000 418.400000
5103 16972 10078 1 109.50000 418.400000
5103 16972 11102 1 109.50000 418.400000
5103 16972 11120 1 109.50000 418.400000
10078 16972 11102 1 109.50000 418.400000
10078 16972 11120 1 109.50000 418.400000
11102 16972 11120 1 109.50000 418.400000
1726 16973 2981 1 109.50000 418.400000
1726 16973 7778 1 109.50000 418.400000
1726 16973 10651 1 109.50000 418.400000
2981 16973 7778 1 109.50000 418.400000
2981 16973 10651 1 109.50000 418.400000
7778 16973 10651 1 109.50000 418.400000
5500 16974 7929 1 109.50000 418.400000
5500 16974 9783 1 109.50000 418.400000
5500 16974 10914 1 109.50000 418.400000
7929 16974 9783 1 109.50000 418.400000
7929 16974 10914 1 109.50000 418.400000
9783 16974 10914 1 109.50000 418.400000
29 16975 782 1 109.50000 418.400000
29 16975 11070 1 109.50000 418.400000
29 16975 11121 1 109.50000 418.400000
782 16975 11070 1 109.50000 418.400000
782 16975 11121 1 109.50000 418.400000
11070 16975 11121 1 109.50000 418.400000
3027 16976 6288 1 109.50000 418.400000
3027 16976 9017 1 109.50000 418.400000
3027 16976 10363 1 109.50000 418.400000
6288 16976 9017 1 109.50000 418.400000
6288 16976 10363 1 109.50000 418.400000
9017 16976 10363 1 109.50000 418.400000
5839 16977 5840 1 109.50000 418.400000
5839 16977 5841 1 109.50000 418.400000
5839 16977 5842 1 109.50000 418.400000
5840 16977 5841 1 109.50000 418.400000
5840 16977 5842 1 109.50000 418.400000
5841 16977 5842 1 109.50000 418.400000
7782 16978 10299 1 109.50000 418.400000
7782 16978 10420 1 109.50000 418.400000
7782 16978 10872 1 109.50000 418.400000
10299 16978 10420 1 109.50000 418.400000
10299 16978 10872 1 109.50000 418.400000
10420 16978 10872 1 109.50000 418.400000
989 16979 3441 1 109.50000 418.400000
989 16979 4555 1 109.50000 418.400000
989 16979 11005 1 109.50000 418.400000
3441 16979 4555 1 109.50000 418.400000
3441 16979 11005 1 109.50000 418.400000
4555 16979 11005 1 109.50000 418.400000
4452 16980 8927 1 109.50000 418.400000
4452 16980 10776 1 109.50000 418.400000
4452 16980 11225 1 109.50000 418.400000
8927 16980 10776 1 109.50000 418.400000
8927 16980 11225 1 109.50000 418.400000
10776 16980 11225 1 109.50000 418.400000
1706 16981 2034 1 109.50000 418.400000
1706 16981 3366 1 109.50000 418.400000
1706 16981 8133 1 109.50000 418.400000
2034 16981 3366 1 109.50000 418.400000
2034 16981 8133 1 109.50000 418.400000
3366 16981 8133 1 109.50000 418.400000
3198 16982 8534 1 109.50000 418.400000
3198 16982 9524 1 109.50000 418.400000
3198 16982 9845 1 109.50000 418.400000
8534 16982 9524 1 109.50000 418.400000
8534 16982 9845 1 109.50000 418.400000
9524 16982 9845 1 109.50000 418.400000
1146 16983 2648 1 109.50000 418.400000
1146 16983 2649 1 109.50000 418.400000
1146 16983 5400 1 109.50000 418.400000
2648 16983 2649 1 109.50000 418.400000
2648 16983 5400 1 109.50000 418.400000
2649 16983 5400 1 109.50000 418.400000
825 16984 826 1 109.50000 418.400000
825 16984 8046 1 109.50000 418.400000
825 16984 8595 1 109.50000 418.400000
826 16984 8046 1 109.50000 418.400000
826 16984 8595 1 109.50000 418.400000
8046 16984 8595 1 109.50000 418.400000
3697 16985 5445 1 109.50000 418.400000
3697 16985 5931 1 109.50000 418.400000
3697 16985 9762 1 109.50000 418.400000
5445 16985 5931 1 109.50000 418.400000
5445 16985 9762 1 109.50000 418.400000
5931 16985 9762 1 109.50000 418.400000
6290 16986 6374 1 109.50000 418.400000
6290 16986 7955 1 109.50000 418.400000
6290 16986 8488 1 109.50000 418.400000
6374 16986 7955 1 109.50000 418.400000
6374 16986 8488 1 109.50000 418.400000
7955 16986 8488 1 109.50000 418.400000
7908 16987 10711 1 109.50000 418.400000
7908 16987 11044 1 109.50000 418.400000
7908 16987 11514 1 109.50000 418.400000
10711 16987 11044 1 109.50000 418.400000
10711 16987 11514 1 109.50000 418.400000
11044 16987 11514 1 109.50000 418.400000
6268 16988 8904 1 109.50000 418.400000
6268 16988 10127 1 109.50000 418.400000
6268 16988 11109 1 109.50000 418.400000
8904 16988 10127 1 109.50000 418.400000
8904 16988 11109 1 109.50000 418.400000
10127 16988 11109 1 109.50000 418.400000
1596 16989 3116 1 109.50000 418.400000
1596 16989 7715 1 109.50000 418.400000
1596 16989 8738 1 109.50000 418.400000
3116 16989 7715 1 109.50000 418.400000
3116 16989 8738 1 109.50000 418.400000
7715 16989 8738 1 109.50000 418.400000
419 16990 1168 1 109.50000 418.400000
419 16990 4116 1 109.50000 418.400000
419 16990 9673 1 109.50000 418.400000
1168 16990 4116 1 109.50000 418.400000
1168 16990 9673 1 109.50000 418.400000
4116 16990 9673 1 109.50000 418.400000
5496 16991 7539 1 109.50000 418.400000
5496 16991 9565 1 109.50000 418.400000
5496 16991 11013 1 109.50000 418.400000
7539 16991 9565 1 109.50000 418.400000
7539 16991 11013 1 109.50000 418.400000
9565 16991 11013 1 109.50000 418.400000
920 16992 8578 1 109.50000 418.400000
920 16992 11055 1 109.50000 418.400000
920 16992 11122 1 109.50000 418.400000
8578 16992 11055 1 109.50000 418.400000
8578 16992 11122 1 109.50000 418.400000
11055 16992 11122 1 109.50000 418.400000
1458 16993 5012 1 109.50000 418.400000
1458 16993 10734 1 109.50000 418.400000
1458 16993 11076 1 109.50000 418.400000
5012 16993 10734 1 109.50000 418.400000
5012 16993 11076 1 109.50000 418.400000
10734 16993 11076 1 109.50000 418.400000
2538 16994 6352 1 109.50000 418.400000
2538 16994 6530 1 109.50000 418.400000
2538 16994 7018 1 109.50000 418.400000
6352 16994 6530 1 109.50000 418.400000
6352 16994 7018 1 109.50000 418.400000
6530 16994 7018 1 109.50000 418.400000
1966 16995 3814 1 109.50000 418.400000
1966 16995 10103 1 109.50000 418.400000
1966 16995 11123 1 109.50000 418.400000
3814 16995 10103 1 109.50000 418.400000
3814 16995 11123 1 109.50000 418.400000
10103 16995 11123 1 109.50000 418.400000
2098 16996 2099 1 109.50000 418.400000
2098 16996 5776 1 109.50000 418.400000
2098 16996 10419 1 109.50000 418.400000
2099 16996 5776 1 109.50000 418.400000
2099 16996 10419 1 109.50000 418.400000
5776 16996 10419 1 109.50000 418.400000
3062 16997 5161 1 109.50000 418.400000
3062 16997 5162 1 109.50000 418.400000
3062 16997 10984 1 109.50000 418.400000
5161 16997 5162 1 109.50000 418.400000
5161 16997 10984 1 109.50000 418.400000
5162 16997 10984 1 109.50000 418.400000
4205 16998 7226 1 109.50000 418.400000
4205 16998 9368 1 109.50000 418.400000
4205 16998 11010 1 109.50000 418.400000
7226 16998 9368 1 109.50000 418.400000
7226 16998 11010 1 109.50000 418.400000
9368 16998 11010 1 109.50000 418.400000
994 16999 6005 1 109.50000 418.400000
994 16999 10929 1 109.50000 418.400000
994 16999 10960 1 109.50000 418.400000
6005 16999 10929 1 109.50000 418.400000
6005 16999 10960 1 109.50000 418.400000
10929 16999 10960 1 109.50000 418.400000
2934 17000 9186 1 109.50000 418.400000
2934 17000 10261 1 109.50000 418.400000
2934 17000 10351 1 109.50000 418.400000
9186 17000 10261 1 109.50000 418.400000
9186 17000 10351 1 109.50000 418.400000
10261 17000 10351 1 109.50000 418.400000
1656 17001 5198 1 109.50000 418.400000
1656 17001 8110 1 109.50000 418.400000
1656 17001 9833 1 109.50000 418.400000
5198 17001 8110 1 109.50000 418.400000
5198 17001 9833 1 109.50000 418.400000
8110 17001 9833 1 109.50000 418.400000
2619 17002 3128 1 109.50000 418.400000
2619 17002 7023 1 109.50000 418.400000
2619 17002 10965 1 109.50000 418.400000
3128 17002 7023 1 109.50000 418.400000
3128 17002 10965 1 109.50000 418.400000
7023 17002 10965 1 109.50000 418.400000
428 17003 4508 1 109.50000 418.400000
428 17003 5681 1 109.50000 418.400000
428 17003 11087 1 109.50000 418.400000
4508 17003 5681 1 109.50000 418.400000
4508 17003 11087 1 109.50000 418.400000
5681 17003 11087 1 109.50000 418.400000
7598 17004 10808 1 109.50000 418.400000
7598 17004 11396 1 109.50000 418.400000
7598 17004 11589 1 109.50000 418.400000
10808 17004 11396 1 109.50000 418.400000
10808 17004 11589 1 109.50000 418.400000
11396 17004 11589 1 109.50000 418.400000
4414 17005 5987 1 109.50000 418.400000
4414 17005 8401 1 109.50000 418.400000
4414 17005 10624 1 109.50000 418.400000
5987 17005 8401 1 109.50000 418.400000
5987 17005 10624 1 109.50000 418.400000
8401 17005 10624 1 109.50000 418.400000
5015 17006 7322 1 109.50000 418.400000
5015 17006 7889 1 109.50000 418.400000
5015 17006 10973 1 109.50000 418.400000
7322 17006 7889 1 109.50000 418.400000
7322 17006 10973 1 109.50000 418.400000
7889 17006 10973 1 109.50000 418.400000
3411 17007 10079 1 109.50000 418.400000
3411 17007 10680 1 109.50000 418.400000
3411 17007 11053 1 109.50000 418.400000
10079 17007 10680 1 109.50000 418.400000
10079 17007 11053 1 109.50000 418.400000
10680 17007 11053 1 109.50000 418.400000
2940 17008 4320 1 109.50000 418.400000
2940 17008 4652 1 109.50000 418.400000
2940 17008 9735 1 109.50000 418.400000
4320 17008 4652 1 109.50000 418.400000
4320 17008 9735 1 109.50000 418.400000
4652 17008 9735 1 109.50000 418.400000
520 17009 2176 1 109.50000 418.400000
520 17009 2178 1 109.50000 418.400000
520 17009 11124 1 109.50000 418.400000
2176 17009 2178 1 109.50000 418.400000
2176 17009 11124 1 109.50000 418.400000
2178 17009 11124 1 109.50000 418.400000
10377 17010 10639 1 109.50000 418.400000
10377 17010 11054 1 109.50000 418.400000
10377 17010 11115 1 109.50000 418.400000
10639 17010 11054 1 109.50000 418.400000
10639 17010 11115 1 109.50000 418.400000
11054 17010 11115 1 109.50000 418.400000
3837 17011 7972 1 109.50000 418.400000
3837 17011 7973 1 109.50000 418.400000
3837 17011 7974 1 109.50000 418.400000
7972 17011 7973 1 109.50000 418.400000
7972 17011 7974 1 109.50000 418.400000
7973 17011 7974 1 109.50000 418.400000
85 17012 2406 1 109.50000 418.400000
85 17012 6731 1 109.50000 418.400000
85 17012 10062 1 109.50000 418.400000
2406 17012 6731 1 109.50000 418.400000
2406 17012 10062 1 109.50000 418.400000
6731 17012 10062 1 109.50000 418.400000
3489 17013 9205 1 109.50000 418.400000
3489 17013 10386 1 109.50000 418.400000
3489 17013 10907 1 109.50000 418.400000
9205 17013 10386 1 109.50000 418.400000
9205 17013 10907 1 109.50000 418.400000
10386 17013 10907 1 109.50000 418.400000
2108 17014 3589 1 109.50000 418.400000
2108 17014 5844 1 109.50000 418.400000
2108 17014 8994 1 109.50000 418.400000
3589 17014 5844 1 109.50000 418.400000
3589 17014 8994 1 109.50000 418.400000
5844 17014 8994 1 109.50000 418.400000
6648 17015 7954 1 109.50000 418.400000
6648 17015 10359 1 109.50000 418.400000
6648 17015 10537 1 109.50000 418.400000
7954 17015 10359 1 109.50000 418.400000
7954 17015 10537 1 109.50000 418.400000
10359 17015 10537 1 109.50000 418.400000
6538 17016 10087 1 109.50000 418.400000
6538 17016 10670 1 109.50000 418.400000
6538 17016 11544 1 109.50000 418.400000
10087 17016 10670 1 109.50000 418.400000
10087 17016 11544 1 109.50000 418.400000
10670 17016 11544 1 109.50000 418.400000
6778 17017 9546 1 109.50000 418.400000
6778 17017 9814 1 109.50000 418.400000
6778 17017 10510 1 109.50000 418.400000
9546 17017 9814 1 109.50000 418.400000
9546 17017 10510 1 109.50000 418.400000
9814 17017 10510 1 109.50000 418.400000
1543 17018 9207 1 109.50000 418.400000
1543 17018 9274 1 109.50000 418.400000
1543 17018 10850 1 109.50000 418.400000
9207 17018 9274 1 109.50000 418.400000
9207 17018 10850 1 109.50000 418.400000
9274 17018 10850 1 109.50000 418.400000
824 17019 6394 1 109.50000 418.400000
824 17019 10601 1 109.50000 418.400000
824 17019 11065 1 109.50000 418.400000
6394 17019 10601 1 109.50000 418.400000
6394 17019 11065 1 109.50000 418.400000
10601 17019 11065 1 109.50000 418.400000
1284 17020 1285 1 109.50000 418.400000
1284 17020 5949 1 109.50000 418.400000
1284 17020 10699 1 109.50000 418.400000
1285 17020 5949 1 109.50000 418.400000
1285 17020 10699 1 109.50000 418.400000
5949 17020 10699 1 109.50000 418.400000
4105 17021 5215 1 109.50000 418.400000
4105 17021 9539 1 109.50000 418.400000
4105 17021 11018 1 109.50000 418.400000
5215 17021 9539 1 109.50000 418.400000
5215 17021 11018 1 109.50000 418.400000
9539 17021 11018 1 109.50000 418.400000
7523 17022 9123 1 109.50000 418.400000
7523 17022 10809 1 109.50000 418.400000
7523 17022 11082 1 109.50000 418.400000
9123 17022 10809 1 109.50000 418.400000
9123 17022 11082 1 109.50000 418.400000
10809 17022 11082 1 109.50000 418.400000
338 17023 4532 1 109.50000 418.400000
338 17023 8670 1 109.50000 418.400000
338 17023 9680 1 109.50000 418.400000
4532 17023 8670 1 109.50000 418.400000
4532 17023 9680 1 109.50000 418.400000
8670 17023 9680 1 109.50000 418.400000
382 17024 10509 1 109.50000 418.400000
382 17024 10796 1 109.50000 418.400000
382 17024 10978 1 109.50000 418.400000
10509 17024 10796 1 109.50000 418.400000
10509 17024 10978 1 109.50000 418.400000
10796 17024 10978 1 109.50000 418.400000
1295 17025 2041 1 109.50000 418.400000
1295 17025 3752 1 109.50000 418.400000
1295 17025 4326 1 109.50000 418.400000
2041 17025 3752 1 109.50000 418.400000
2041 17025 4326 1 109.50000 418.400000
3752 17025 4326 1 109.50000 418.400000
1449 17026 5760 1 109.50000 418.400000
1449 17026 5815 1 109.50000 418.400000
1449 17026 7336 1 109.50000 418.400000
5760 17026 5815 1 109.50000 418.400000
5760 17026 7336 1 109.50000 418.400000
5815 17026 7336 1 109.50000 418.400000
2173 17027 7382 1 109.50000 418.400000
2173 17027 8025 1 109.50000 418.400000
2173 17027 10039 1 109.50000 418.400000
7382 17027 8025 1 109.50000 418.400000
7382 17027 10039 1 109.50000 418.400000
8025 17027 10039 1 109.50000 418.400000
247 17028 587 1 109.50000 418.400000
247 17028 7961 1 109.50000 418.400000
247 17028 10709 1 109.50000 418.400000
587 17028 7961 1 109.50000 418.400000
587 17028 10709 1 109.50000 418.400000
7961 17028 10709 1 109.50000 418.400000
947 17029 2466 1 109.50000 418.400000
947 17029 6955 1 109.50000 418.400000
947 17029 9488 1 109.50000 418.400000
2466 17029 6955 1 109.50000 418.400000
2466 17029 9488 1 109.50000 418.400000
6955 17029 9488 1 109.50000 418.400000
4107 17030 8159 1 109.50000 418.400000
4107 17030 10436 1 109.50000 418.400000
4107 17030 11126 1 109.50000 418.400000
8159 17030 10436 1 109.50000 418.400000
8159 17030 11126 1 109.50000 418.400000
10436 17030 11126 1 109.50000 418.400000
2395 17031 2397 1 109.50000 418.400000
2395 17031 4283 1 109.50000 418.400000
2395 17031 8310 1 109.50000 418.400000
2397 17031 4283 1 109.50000 418.400000
2397 17031 8310 1 109.50000 418.400000
4283 17031 8310 1 109.50000 418.400000
364 17032 4503 1 109.50000 418.400000
364 17032 6325 1 109.50000 418.400000
364 17032 7134 1 109.50000 418.400000
4503 17032 6325 1 109.50000 418.400000
4503 17032 7134 1 109.50000 418.400000
6325 17032 7134 1 109.50000 418.400000
5435 17033 6804 1 109.50000 418.400000
5435 17033 7587 1 109.50000 418.400000
5435 17033 10921 1 109.50000 418.400000
6804 17033 7587 1 109.50000 418.400000
6804 17033 10921 1 109.50000 418.400000
7587 17033 10921 1 109.50000 418.400000
1103 17034 7537 1 109.50000 418.400000
1103 17034 10107 1 109.50000 418.400000
1103 17034 11127 1 109.50000 418.400000
7537 17034 10107 1 109.50000 418.400000
7537 17034 11127 1 109.50000 418.400000
10107 17034 11127 1 109.50000 418.400000
1079 17035 1890 1 109.50000 418.400000
1079 17035 7150 1 109.50000 418.400000
1079 17035 7759 1 109.50000 418.400000
1890 17035 7150 1 109.50000 418.400000
1890 17035 7759 1 109.50000 418.400000
7150 17035 7759 1 109.50000 418.400000
6328 17036 8332 1 109.50000 418.400000
6328 17036 9638 1 109.50000 418.400000
6328 17036 11128 1 109.50000 418.400000
8332 17036 9638 1 109.50000 418.400000
8332 17036 11128 1 109.50000 418.400000
9638 17036 11128 1 109.50000 418.400000
6278 17037 9381 1 109.50000 418.400000
6278 17037 10102 1 109.50000 418.400000
6278 17037 10897 1 109.50000 418.400000
9381 17037 10102 1 109.50000 418.400000
9381 17037 10897 1 109.50000 418.400000
10102 17037 10897 1 109.50000 418.400000
2980 17038 9149 1 109.50000 418.400000
2980 17038 11017 1 109.50000 418.400000
2980 17038 11129 1 109.50000 418.400000
9149 17038 11017 1 109.50000 418.400000
9149 17038 11129 1 109.50000 418.400000
11017 17038 11129 1 109.50000 418.400000
2477 17039 2479 1 109.50000 418.400000
2477 17039 3081 1 109.50000 418.400000
2477 17039 9339 1 109.50000 418.400000
2479 17039 3081 1 109.50000 418.400000
2479 17039 9339 1 109.50000 418.400000
3081 17039 9339 1 109.50000 418.400000
6061 17040 7684 1 109.50000 418.400000
6061 17040 10847 1 109.50000 418.400000
6061 17040 11031 1 109.50000 418.400000
7684 17040 10847 1 109.50000 418.400000
7684 17040 11031 1 109.50000 418.400000
10847 17040 11031 1 109.50000 418.400000
2634 17041 7729 1 109.50000 418.400000
2634 17041 9088 1 109.50000 418.400000
2634 17041 9868 1 109.50000 418.400000
7729 17041 9088 1 109.50000 418.400000
7729 17041 9868 1 109.50000 418.400000
9088 17041 9868 1 109.50000 418.400000
2828 17042 4120 1 109.50000 418.400000
2828 17042 9523 1 109.50000 418.400000
2828 17042 11114 1 109.50000 418.400000
4120 17042 9523 1 109.50000 418.400000
4120 17042 11114 1 109.50000 418.400000
9523 17042 11114 1 109.50000 418.400000
10579 17043 10887 1 109.50000 418.400000
10579 17043 11095 1 109.50000 418.400000
10579 17043 11097 1 109.50000 418.400000
10887 17043 11095 1 109.50000 418.400000
10887 17043 11097 1 109.50000 418.400000
11095 17043 11097 1 109.50000 418.400000
6241 17044 6351 1 109.50000 418.400000
6241 17044 6404 1 109.50000 418.400000
6241 17044 9875 1 109.50000 418.400000
6351 17044 6404 1 109.50000 418.400000
6351 17044 9875 1 109.50000 418.400000
6404 17044 9875 1 109.50000 418.400000
124 17045 2331 1 109.50000 418.400000
124 17045 8116 1 109.50000 418.400000
124 17045 11130 1 109.50000 418.400000
2331 17045 8116 1 109.50000 418.400000
2331 17045 11130 1 109.50000 418.400000
8116 17045 11130 1 109.50000 418.400000
8735 17046 10446 1 109.50000 418.400000
8735 17046 10733 1 109.50000 418.400000
8735 17046 11113 1 109.50000 418.400000
10446 17046 10733 1 109.50000 418.400000
10446 17046 11113 1 109.50000 418.400000
10733 17046 11113 1 109.50000 418.400000
2608 17047 3982 1 109.50000 418.400000
2608 17047 10848 1 109.50000 418.400000
2608 17047 11100 1 109.50000 418.400000
3982 17047 10848 1 109.50000 418.400000
3982 17047 11100 1 109.50000 418.400000
10848 17047 11100 1 109.50000 418.400000
3732 17048 10938 1 109.50000 418.400000
3732 17048 10989 1 109.50000 418.400000
3732 17048 11066 1 109.50000 418.400000
10938 17048 10989 1 109.50000 418.400000
10938 17048 11066 1 109.50000 418.400000
10989 17048 11066 1 109.50000 418.400000
2124 17049 3528 1 109.50000 418.400000
2124 17049 7972 1 109.50000 418.400000
2124 17049 10156 1 109.50000 418.400000
3528 17049 7972 1 109.50000 418.400000
3528 17049 10156 1 109.50000 418.400000
7972 17049 10156 1 109.50000 418.400000
1001 17050 4931 1 109.50000 418.400000
1001 17050 9451 1 109.50000 418.400000
1001 17050 10909 1 109.50000 418.400000
4931 17050 9451 1 109.50000 418.400000
4931 17050 10909 1 109.50000 418.400000
9451 17050 10909 1 109.50000 418.400000
2291 17051 9617 1 109.50000 418.400000
2291 17051 10215 1 109.50000 418.400000
2291 17051 10812 1 109.50000 418.400000
9617 17051 10215 1 109.50000 418.400000
9617 17051 10812 1 109.50000 418.400000
10215 17051 10812 1 109.50000 418.400000
4300 17052 4445 1 109.50000 418.400000
4300 17052 8557 1 109.50000 418.400000
4300 17052 11127 1 109.50000 418.400000
4445 17052 8557 1 109.50000 418.400000
4445 17052 11127 1 109.50000 418.400000
8557 17052 11127 1 109.50000 418.400000
3865 17053 5537 1 109.50000 418.400000
3865 17053 5668 1 109.50000 418.400000
3865 17053 8996 1 109.50000 418.400000
5537 17053 5668 1 109.50000 418.400000
5537 17053 8996 1 109.50000 418.400000
5668 17053 8996 1 109.50000 418.400000
5623 17054 9503 1 109.50000 418.400000
5623 17054 9924 1 109.50000 418.400000
5623 17054 11048 1 109.50000 418.400000
9503 17054 9924 1 109.50000 418.400000
9503 17054 11048 1 109.50000 418.400000
9924 17054 11048 1 109.50000 418.400000
10053 17055 10545 1 109.50000 418.400000
10053 17055 11232 1 109.50000 418.400000
10053 17055 11409 1 109.50000 418.400000
10545 17055 11232 1 109.50000 418.400000
10545 17055 11409 1 109.50000 418.400000
11232 17055 11409 1 109.50000 418.400000
4520 17056 8697 1 109.50000 418.400000
4520 17056 10827 1 109.50000 418.400000
4520 17056 11131 1 109.50000 418.400000
8697 17056 10827 1 109.50000 418.400000
8697 17056 11131 1 109.50000 418.400000
10827 17056 11131 1 109.50000 418.400000
4726 17057 7378 1 109.50000 418.400000
4726 17057 8319 1 109.50000 418.400000
4726 17057 8516 1 109.50000 418.400000
7378 17057 8319 1 109.50000 418.400000
7378 17057 8516 1 109.50000 418.400000
8319 17057 8516 1 109.50000 418.400000
1287 17058 1897 1 109.50000 418.400000
1287 17058 3833 1 109.50000 418.400000
1287 17058 10899 1 109.50000 418.400000
1897 17058 3833 1 109.50000 418.400000
1897 17058 10899 1 109.50000 418.400000
3833 17058 10899 1 109.50000 418.400000
7654 17059 8739 1 109.50000 418.400000
7654 17059 10454 1 109.50000 418.400000
7654 17059 11096 1 109.50000 418.400000
8739 17059 10454 1 109.50000 418.400000
8739 17059 11096 1 109.50000 418.400000
10454 17059 11096 1 109.50000 418.400000
465 17060 8347 1 109.50000 418.400000
465 17060 10007 1 109.50000 418.400000
465 17060 10792 1 109.50000 418.400000
8347 17060 10007 1 109.50000 418.400000
8347 17060 10792 1 109.50000 418.400000
10007 17060 10792 1 109.50000 418.400000
2269 17061 2270 1 109.50000 418.400000
2269 17061 6796 1 109.50000 418.400000
2269 17061 11123 1 109.50000 418.400000
2270 17061 6796 1 109.50000 418.400000
2270 17061 11123 1 109.50000 418.400000
6796 17061 11123 1 109.50000 418.400000
4119 17062 6915 1 109.50000 418.400000
4119 17062 10371 1 109.50000 418.400000
4119 17062 11361 1 109.50000 418.400000
6915 17062 10371 1 109.50000 418.400000
6915 17062 11361 1 109.50000 418.400000
10371 17062 11361 1 109.50000 418.400000
2951 17063 5399 1 109.50000 418.400000
2951 17063 10106 1 109.50000 418.400000
2951 17063 10596 1 109.50000 418.400000
5399 17063 10106 1 109.50000 418.400000
5399 17063 10596 1 109.50000 418.400000
10106 17063 10596 1 109.50000 418.400000
4277 17064 8607 1 109.50000 418.400000
4277 17064 10503 1 109.50000 418.400000
4277 17064 10548 1 109.50000 418.400000
8607 17064 10503 1 109.50000 418.400000
8607 17064 10548 1 109.50000 418.400000
10503 17064 10548 1 109.50000 418.400000
6673 17065 7561 1 109.50000 418.400000
6673 17065 9850 1 109.50000 418.400000
6673 17065 11079 1 109.50000 418.400000
7561 17065 9850 1 109.50000 418.400000
7561 17065 11079 1 109.50000 418.400000
9850 17065 11079 1 109.50000 418.400000
3398 17066 8542 1 109.50000 418.400000
3398 17066 11084 1 109.50000 418.400000
3398 17066 11130 1 109.50000 418.400000
8542 17066 11084 1 109.50000 418.400000
8542 17066 11130 1 109.50000 418.400000
11084 17066 11130 1 109.50000 418.400000
2989 17067 4560 1 109.50000 418.400000
2989 17067 5262 1 109.50000 418.400000
2989 17067 5266 1 109.50000 418.400000
4560 17067 5262 1 109.50000 418.400000
4560 17067 5266 1 109.50000 418.400000
5262 17067 5266 1 109.50000 418.400000
6529 17068 10287 1 109.50000 418.400000
6529 17068 10789 1 109.50000 418.400000
6529 17068 11132 1 109.50000 418.400000
10287 17068 10789 1 109.50000 418.400000
10287 17068 11132 1 109.50000 418.400000
10789 17068 11132 1 109.50000 418.400000
2162 17069 2595 1 109.50000 418.400000
2162 17069 9456 1 109.50000 418.400000
2162 17069 11007 1 109.50000 418.400000
2595 17069 9456 1 109.50000 418.400000
2595 17069 11007 1 109.50000 418.400000
9456 17069 11007 1 109.50000 418.400000
224 17070 3114 1 109.50000 418.400000
224 17070 6829 1 109.50000 418.400000
224 17070 10455 1 109.50000 418.400000
3114 17070 6829 1 109.50000 418.400000
3114 17070 10455 1 109.50000 418.400000
6829 17070 10455 1 109.50000 418.400000
1071 17071 6221 1 109.50000 418.400000
1071 17071 9174 1 109.50000 418.400000
1071 17071 10115 1 109.50000 418.400000
6221 17071 9174 1 109.50000 418.400000
6221 17071 10115 1 109.50000 418.400000
9174 17071 10115 1 109.50000 418.400000
1262 17072 5418 1 109.50000 418.400000
1262 17072 6751 1 109.50000 418.400000
1262 17072 9880 1 109.50000 418.400000
5418 17072 6751 1 109.50000 418.400000
5418 17072 9880 1 109.50000 418.400000
6751 17072 9880 1 109.50000 418.400000
7988 17073 8127 1 109.50000 418.400000
7988 17073 10234 1 109.50000 418.400000
7988 17073 11129 1 109.50000 418.400000
8127 17073 10234 1 109.50000 418.400000
8127 17073 11129 1 109.50000 418.400000
10234 17073 11129 1 109.50000 418.400000
2999 17074 3997 1 109.50000 418.400000
2999 17074 8855 1 109.50000 418.400000
2999 17074 10245 1 109.50000 418.400000
3997 17074 8855 1 109.50000 418.400000
3997 17074 10245 1 109.50000 418.400000
8855 17074 10245 1 109.50000 418.400000
8210 17075 9001 1 109.50000 418.400000
8210 17075 10356 1 109.50000 418.400000
8210 17075 11230 1 109.50000 418.400000
9001 17075 10356 1 109.50000 418.400000
9001 17075 11230 1 109.50000 418.400000
10356 17075 11230 1 109.50000 418.400000
3748 17076 4413 1 109.50000 418.400000
3748 17076 10093 1 109.50000 418.400000
3748 17076 11126 1 109.50000 418.400000
4413 17076 10093 1 109.50000 418.400000
4413 17076 11126 1 109.50000 418.400000
10093 17076 11126 1 109.50000 418.400000
213 17077 2717 1 109.50000 418.400000
213 17077 5168 1 109.50000 418.400000
213 17077 7175 1 109.50000 418.400000
2717 17077 5168 1 109.50000 418.400000
2717 17077 7175 1 109.50000 418.400000
5168 17077 7175 1 109.50000 418.400000
2657 17078 6688 1 109.50000 418.400000
2657 17078 10353 1 109.50000 418.400000
2657 17078 11122 1 109.50000 418.400000
6688 17078 10353 1 109.50000 418.400000
6688 17078 11122 1 109.50000 418.400000
10353 17078 11122 1 109.50000 418.400000
4977 17079 8238 1 109.50000 418.400000
4977 17079 10024 1 109.50000 418.400000
4977 17079 10272 1 109.50000 418.400000
8238 17079 10024 1 109.50000 418.400000
8238 17079 10272 1 109.50000 418.400000
10024 17079 10272 1 109.50000 418.400000
2826 17080 8949 1 109.50000 418.400000
2826 17080 10011 1 109.50000 418.400000
2826 17080 10993 1 109.50000 418.400000
8949 17080 10011 1 109.50000 418.400000
8949 17080 10993 1 109.50000 418.400000
10011 17080 10993 1 109.50000 418.400000
7258 17081 7940 1 109.50000 418.400000
7258 17081 9297 1 109.50000 418.400000
7258 17081 9696 1 109.50000 418.400000
7940 17081 9297 1 109.50000 418.400000
7940 17081 9696 1 109.50000 418.400000
9297 17081 9696 1 109.50000 418.400000
2598 17082 7439 1 109.50000 418.400000
2598 17082 10101 1 109.50000 418.400000
2598 17082 11120 1 109.50000 418.400000
7439 17082 10101 1 109.50000 418.400000
7439 17082 11120 1 109.50000 418.400000
10101 17082 11120 1 109.50000 418.400000
3282 17083 4561 1 109.50000 418.400000
3282 17083 9683 1 109.50000 418.400000
3282 17083 11085 1 109.50000 418.400000
4561 17083 9683 1 109.50000 418.400000
4561 17083 11085 1 109.50000 418.400000
9683 17083 11085 1 109.50000 418.400000
1587 17084 1588 1 109.50000 418.400000
1587 17084 9166 1 109.50000 418.400000
1587 17084 11089 1 109.50000 418.400000
1588 17084 9166 1 109.50000 418.400000
1588 17084 11089 1 109.50000 418.400000
9166 17084 11089 1 109.50000 418.400000
5649 17085 7718 1 109.50000 418.400000
5649 17085 8206 1 109.50000 418.400000
5649 17085 9620 1 109.50000 418.400000
7718 17085 8206 1 109.50000 418.400000
7718 17085 9620 1 109.50000 418.400000
8206 17085 9620 1 109.50000 418.400000
3129 17086 7347 1 109.50000 418.400000
3129 17086 10931 1 109.50000 418.400000
3129 17086 10985 1 109.50000 418.400000
7347 17086 10931 1 109.50000 418.400000
7347 17086 10985 1 109.50000 418.400000
10931 17086 10985 1 109.50000 418.400000
9319 17087 9776 1 109.50000 418.400000
9319 17087 10375 1 109.50000 418.400000
9319 17087 11133 1 109.50000 418.400000
9776 17087 10375 1 109.50000 418.400000
9776 17087 11133 1 109.50000 418.400000
10375 17087 11133 1 109.50000 418.400000
7757 17088 10606 1 109.50000 418.400000
7757 17088 10742 1 109.50000 418.400000
7757 17088 11125 1 109.50000 418.400000
10606 17088 10742 1 109.50000 418.400000
10606 17088 11125 1 109.50000 418.400000
10742 17088 11125 1 109.50000 418.400000
3735 17089 9853 1 109.50000 418.400000
3735 17089 10593 1 109.50000 418.400000
3735 17089 10991 1 109.50000 418.400000
9853 17089 10593 1 109.50000 418.400000
9853 17089 10991 1 109.50000 418.400000
10593 17089 10991 1 109.50000 418.400000
2078 17090 3750 1 109.50000 418.400000
2078 17090 10368 1 109.50000 418.400000
2078 17090 10703 1 109.50000 418.400000
3750 17090 10368 1 109.50000 418.400000
3750 17090 10703 1 109.50000 418.400000
10368 17090 10703 1 109.50000 418.400000
210 17091 6704 1 109.50000 418.400000
210 17091 9070 1 109.50000 418.400000
210 17091 9127 1 109.50000 418.400000
6704 17091 9070 1 109.50000 418.400000
6704 17091 9127 1 109.50000 418.400000
9070 17091 9127 1 109.50000 418.400000
562 17092 7447 1 109.50000 418.400000
562 17092 8946 1 109.50000 418.400000
562 17092 9577 1 109.50000 418.400000
7447 17092 8946 1 109.50000 418.400000
7447 17092 9577 1 109.50000 418.400000
8946 17092 9577 1 109.50000 418.400000
2125 17093 4502 1 109.50000 418.400000
2125 17093 6562 1 109.50000 418.400000
2125 17093 6867 1 109.50000 418.400000
4502 17093 6562 1 109.50000 418.400000
4502 17093 6867 1 109.50000 418.400000
6562 17093 6867 1 109.50000 418.400000
3047 17094 6001 1 109.50000 418.400000
3047 17094 8554 1 109.50000 418.400000
3047 17094 10888 1 109.50000 418.400000
6001 17094 8554 1 109.50000 418.400000
6001 17094 10888 1 109.50000 418.400000
8554 17094 10888 1 109.50000 418.400000
1153 17095 6016 1 109.50000 418.400000
1153 17095 11101 1 109.50000 418.400000
1153 17095 11124 1 109.50000 418.400000
6016 17095 11101 1 109.50000 418.400000
6016 17095 11124 1 109.50000 418.400000
11101 17095 11124 1 109.50000 418.400000
5358 17096 9748 1 109.50000 418.400000
5358 17096 10497 1 109.50000 418.400000
5358 17096 11091 1 109.50000 418.400000
9748 17096 10497 1 109.50000 418.400000
9748 17096 11091 1 109.50000 418.400000
10497 17096 11091 1 109.50000 418.400000
4667 17097 6066 1 109.50000 418.400000
4667 17097 8216 1 109.50000 418.400000
4667 17097 8925 1 109.50000 418.400000
6066 17097 8216 1 109.50000 418.400000
6066 17097 8925 1 109.50000 418.400000
8216 17097 8925 1 109.50000 418.400000
9812 17098 10052 1 109.50000 418.400000
9812 17098 11064 1 109.50000 418.400000
9812 17098 11134 1 109.50000 418.400000
10052 17098 11064 1 109.50000 418.400000
10052 17098 11134 1 109.50000 418.400000
11064 17098 11134 1 109.50000 418.400000
3633 17099 3635 1 109.50000 418.400000
3633 17099 11381 1 109.50000 418.400000
3633 17099 11607 1 109.50000 418.400000
3635 17099 11381 1 109.50000 418.400000
3635 17099 11607 1 109.50000 418.400000
11381 17099 11607 1 109.50000 418.400000
662 17100 663 1 109.50000 418.400000
662 17100 6282 1 109.50000 418.400000
662 17100 7349 1 109.50000 418.400000
663 17100 6282 1 109.50000 418.400000
663 17100 7349 1 109.50000 418.400000
6282 17100 7349 1 109.50000 418.400000
313 17101 3016 1 109.50000 418.400000
313 17101 6103 1 109.50000 418.400000
313 17101 11135 1 109.50000 418.400000
3016 17101 6103 1 109.50000 418.400000
3016 17101 11135 1 109.50000 418.400000
6103 17101 11135 1 109.50000 418.400000
2556 17102 6329 1 109.50000 418.400000
2556 17102 10602 1 109.50000 418.400000
2556 17102 10953 1 109.50000 418.400000
6329 17102 10602 1 109.50000 418.400000
6329 17102 10953 1 109.50000 418.400000
10602 17102 10953 1 109.50000 418.400000
6050 17103 8783 1 109.50000 418.400000
6050 17103 8965 1 109.50000 418.400000
6050 17103 9693 1 109.50000 418.400000
8783 17103 8965 1 109.50000 418.400000
8783 17103 9693 1 109.50000 418.400000
8965 17103 9693 1 109.50000 418.400000
4489 17104 6242 1 109.50000 418.400000
4489 17104 6880 1 109.50000 418.400000
4489 17104 9749 1 109.50000 418.400000
6242 17104 6880 1 109.50000 418.400000
6242 17104 9749 1 109.50000 418.400000
6880 17104 9749 1 109.50000 418.400000
7535 17105 8020 1 109.50000 418.400000
7535 17105 10781 1 109.50000 418.400000
7535 17105 11056 1 109.50000 418.400000
8020 17105 10781 1 109.50000 418.400000
8020 17105 11056 1 109.50000 418.400000
10781 17105 11056 1 109.50000 418.400000
8 17106 2247 1 109.50000 418.400000
8 17106 5024 1 109.50000 418.400000
8 17106 9052 1 109.50000 418.400000
2247 17106 5024 1 109.50000 418.400000
2247 17106 9052 1 109.50000 418.400000
5024 17106 9052 1 109.50000 418.400000
3921 17107 4342 1 109.50000 418.400000
3921 17107 10695 1 109.50000 418.400000
3921 17107 10849 1 109.50000 418.400000
4342 17107 10695 1 109.50000 418.400000
4342 17107 10849 1 109.50000 418.400000
10695 17107 10849 1 109.50000 418.400000
3538 17108 6348 1 109.50000 418.400000
3538 17108 7868 1 109.50000 418.400000
3538 17108 11121 1 109.50000 418.400000
6348 17108 7868 1 109.50000 418.400000
6348 17108 11121 1 109.50000 418.400000
7868 17108 11121 1 109.50000 418.400000
3562 17109 5652 1 109.50000 418.400000
3562 17109 7962 1 109.50000 418.400000
3562 17109 11094 1 109.50000 418.400000
5652 17109 7962 1 109.50000 418.400000
5652 17109 11094 1 109.50000 418.400000
7962 17109 11094 1 109.50000 418.400000
526 17110 8467 1 109.50000 418.400000
526 17110 9195 1 109.50000 418.400000
526 17110 10056 1 109.50000 418.400000
8467 17110 9195 1 109.50000 418.400000
8467 17110 10056 1 109.50000 418.400000
9195 17110 10056 1 109.50000 418.400000
1083 17111 4636 1 109.50000 418.400000
1083 17111 5142 1 109.50000 418.400000
1083 17111 11374 1 109.50000 418.400000
4636 17111 5142 1 109.50000 418.400000
4636 17111 11374 1 109.50000 418.400000
5142 17111 11374 1 109.50000 418.400000
2725 17112 3394 1 109.50000 418.400000
2725 17112 8850 1 109.50000 418.400000
2725 17112 10805 1 109.50000 418.400000
3394 17112 8850 1 109.50000 418.400000
3394 17112 10805 1 109.50000 418.400000
8850 17112 10805 1 109.50000 418.400000
330 17113 996 1 109.50000 418.400000
330 17113 10347 1 109.50000 418.400000
330 17113 10959 1 109.50000 418.400000
996 17113 10347 1 109.50000 418.400000
996 17113 10959 1 109.50000 418.400000
10347 17113 10959 1 109.50000 418.400000
106 17114 7827 1 109.50000 418.400000
106 17114 10374 1 109.50000 418.400000
106 17114 10880 1 109.50000 418.400000
7827 17114 10374 1 109.50000 418.400000
7827 17114 10880 1 109.50000 418.400000
10374 17114 10880 1 109.50000 418.400000
2413 17115 7984 1 109.50000 418.400000
2413 17115 10614 1 109.50000 418.400000
2413 17115 11058 1 109.50000 418.400000
7984 17115 10614 1 109.50000 418.400000
7984 17115 11058 1 109.50000 418.400000
10614 17115 11058 1 109.50000 418.400000
9293 17116 9484 1 109.50000 418.400000
9293 17116 9516 1 109.50000 418.400000
9293 17116 10894 1 109.50000 418.400000
9484 17116 9516 1 109.50000 418.400000
9484 17116 10894 1 109.50000 418.400000
9516 17116 10894 1 109.50000 418.400000
403 17117 9687 1 109.50000 418.400000
403 17117 9688 1 109.50000 418.400000
403 17117 10600 1 109.50000 418.400000
9687 17117 9688 1 109.50000 418.400000
9687 17117 10600 1 109.50000 418.400000
9688 17117 10600 1 109.50000 418.400000
8930 17118 9281 1 109.50000 418.400000
8930 17118 9385 1 109.50000 418.400000
8930 17118 10817 1 109.50000 418.400000
9281 17118 9385 1 109.50000 418.400000
9281 17118 10817 1 109.50000 418.400000
9385 17118 10817 1 109.50000 418.400000
2215 17119 7755 1 109.50000 418.400000
2215 17119 9211 1 109.50000 418.400000
2215 17119 10590 1 109.50000 418.400000
7755 17119 9211 1 109.50000 418.400000
7755 17119 10590 1 109.50000 418.400000
9211 17119 10590 1 109.50000 418.400000
3458 17120 10713 1 109.50000 418.400000
3458 17120 11047 1 109.50000 418.400000
3458 17120 11108 1 109.50000 418.400000
10713 17120 11047 1 109.50000 418.400000
10713 17120 11108 1 109.50000 418.400000
11047 17120 11108 1 109.50000 418.400000
1968 17121 2771 1 109.50000 418.400000
1968 17121 7055 1 109.50000 418.400000
1968 17121 9322 1 109.50000 418.400000
2771 17121 7055 1 109.50000 418.400000
2771 17121 9322 1 109.50000 418.400000
7055 17121 9322 1 109.50000 418.400000
7697 17122 7699 1 109.50000 418.400000
7697 17122 9436 1 109.50000 418.400000
7697 17122 9634 1 109.50000 418.400000
7699 17122 9436 1 109.50000 418.400000
7699 17122 9634 1 109.50000 418.400000
9436 17122 9634 1 109.50000 418.400000
5415 17123 9807 1 109.50000 418.400000
5415 17123 10083 1 109.50000 418.400000
5415 17123 11396 1 109.50000 418.400000
9807 17123 10083 1 109.50000 418.400000
9807 17123 11396 1 109.50000 418.400000
10083 17123 11396 1 109.50000 418.400000
3901 17124 9639 1 109.50000 418.400000
3901 17124 10757 1 109.50000 418.400000
3901 17124 11039 1 109.50000 418.400000
9639 17124 10757 1 109.50000 418.400000
9639 17124 11039 1 109.50000 418.400000
10757 17124 11039 1 109.50000 418.400000
7240 17125 7304 1 109.50000 418.400000
7240 17125 8480 1 109.50000 418.400000
7240 17125 11024 1 109.50000 418.400000
7304 17125 8480 1 109.50000 418.400000
7304 17125 11024 1 109.50000 418.400000
8480 17125 11024 1 109.50000 418.400000
4218 17126 7824 1 109.50000 418.400000
4218 17126 9986 1 109.50000 418.400000
4218 17126 10559 1 109.50000 418.400000
7824 17126 9986 1 109.50000 418.400000
7824 17126 10559 1 109.50000 418.400000
9986 17126 10559 1 109.50000 418.400000
2192 17127 2653 1 109.50000 418.400000
2192 17127 8291 1 109.50000 418.400000
2192 17127 10837 1 109.50000 418.400000
2653 17127 8291 1 109.50000 418.400000
2653 17127 10837 1 109.50000 418.400000
8291 17127 10837 1 109.50000 418.400000
1263 17128 7341 1 109.50000 418.400000
1263 17128 8672 1 109.50000 418.400000
1263 17128 10554 1 109.50000 418.400000
7341 17128 8672 1 109.50000 418.400000
7341 17128 10554 1 109.50000 418.400000
8672 17128 10554 1 109.50000 418.400000
1869 17129 8017 1 109.50000 418.400000
1869 17129 8627 1 109.50000 418.400000
1869 17129 11111 1 109.50000 418.400000
8017 17129 8627 1 109.50000 418.400000
8017 17129 11111 1 109.50000 418.400000
8627 17129 11111 1 109.50000 418.400000
2748 17130 10317 1 109.50000 418.400000
2748 17130 11043 1 109.50000 418.400000
2748 17130 11208 1 109.50000 418.400000
10317 17130 11043 1 109.50000 418.400000
10317 17130 11208 1 109.50000 418.400000
11043 17130 11208 1 109.50000 418.400000
7353 17131 8230 1 109.50000 418.400000
7353 17131 10465 1 109.50000 418.400000
7353 17131 11136 1 109.50000 418.400000
8230 17131 10465 1 109.50000 418.400000
8230 17131 11136 1 109.50000 418.400000
10465 17131 11136 1 109.50000 418.400000
3710 17132 10743 1 109.50000 418.400000
3710 17132 10873 1 109.50000 418.400000
3710 17132 10988 1 109.50000 418.400000
10743 17132 10873 1 109.50000 418.400000
10743 17132 10988 1 109.50000 418.400000
10873 17132 10988 1 109.50000 418.400000
1866 17133 2606 1 109.50000 418.400000
1866 17133 2607 1 109.50000 418.400000
1866 17133 11128 1 109.50000 418.400000
2606 17133 2607 1 109.50000 418.400000
2606 17133 11128 1 109.50000 418.400000
2607 17133 11128 1 109.50000 418.400000
3048 17134 8030 1 109.50000 418.400000
3048 17134 8715 1 109.50000 418.400000
3048 17134 11116 1 109.50000 418.400000
8030 17134 8715 1 109.50000 418.400000
8030 17134 11116 1 109.50000 418.400000
8715 17134 11116 1 109.50000 418.400000
2186 17135 10689 1 109.50000 418.400000
2186 17135 10853 1 109.50000 418.400000
2186 17135 11016 1 109.50000 418.400000
10689 17135 10853 1 109.50000 418.400000
10689 17135 11016 1 109.50000 418.400000
10853 17135 11016 1 109.50000 418.400000
68 17136 121 1 109.50000 418.400000
68 17136 9771 1 109.50000 418.400000
68 17136 11137 1 109.50000 418.400000
121 17136 9771 1 109.50000 418.400000
121 17136 11137 1 109.50000 418.400000
9771 17136 11137 1 109.50000 418.400000
414 17137 493 1 109.50000 418.400000
414 17137 3746 1 109.50000 418.400000
414 17137 4109 1 109.50000 418.400000
493 17137 3746 1 109.50000 418.400000
493 17137 4109 1 109.50000 418.400000
3746 17137 4109 1 109.50000 418.400000
266 17138 8394 1 109.50000 418.400000
266 17138 8905 1 109.50000 418.400000
266 17138 10830 1 109.50000 418.400000
8394 17138 8905 1 109.50000 418.400000
8394 17138 10830 1 109.50000 418.400000
8905 17138 10830 1 109.50000 418.400000
4570 17139 9007 1 109.50000 418.400000
4570 17139 9580 1 109.50000 418.400000
4570 17139 11117 1 109.50000 418.400000
9007 17139 9580 1 109.50000 418.400000
9007 17139 11117 1 109.50000 418.400000
9580 17139 11117 1 109.50000 418.400000
4660 17140 5456 1 109.50000 418.400000
4660 17140 5517 1 109.50000 418.400000
4660 17140 8952 1 109.50000 418.400000
5456 17140 5517 1 109.50000 418.400000
5456 17140 8952 1 109.50000 418.400000
5517 17140 8952 1 109.50000 418.400000
4037 17141 5590 1 109.50000 418.400000
4037 17141 9133 1 109.50000 418.400000
4037 17141 9534 1 109.50000 418.400000
5590 17141 9133 1 109.50000 418.400000
5590 17141 9534 1 109.50000 418.400000
9133 17141 9534 1 109.50000 418.400000
5049 17142 5050 1 109.50000 418.400000
5049 17142 6764 1 109.50000 418.400000
5049 17142 7554 1 109.50000 418.400000
5050 17142 6764 1 109.50000 418.400000
5050 17142 7554 1 109.50000 418.400000
6764 17142 7554 1 109.50000 418.400000
6809 17143 7056 1 109.50000 418.400000
6809 17143 7794 1 109.50000 418.400000
6809 17143 10152 1 109.50000 418.400000
7056 17143 7794 1 109.50000 418.400000
7056 17143 10152 1 109.50000 418.400000
7794 17143 10152 1 109.50000 418.400000
2743 17144 3812 1 109.50000 418.400000
2743 17144 8479 1 109.50000 418.400000
2743 17144 10255 1 109.50000 418.400000
3812 17144 8479 1 109.50000 418.400000
3812 17144 10255 1 109.50000 418.400000
8479 17144 10255 1 109.50000 418.400000
3776 17145 6735 1 109.50000 418.400000
3776 17145 10626 1 109.50000 418.400000
3776 17145 11526 1 109.50000 418.400000
6735 17145 10626 1 109.50000 418.400000
6735 17145 11526 1 109.50000 418.400000
10626 17145 11526 1 109.50000 418.400000
6838 17146 7425 1 109.50000 418.400000
6838 17146 10449 1 109.50000 418.400000
6838 17146 10912 1 109.50000 418.400000
7425 17146 10449 1 109.50000 418.400000
7425 17146 10912 1 109.50000 418.400000
10449 17146 10912 1 109.50000 418.400000
3738 17147 4384 1 109.50000 418.400000
3738 17147 5974 1 109.50000 418.400000
3738 17147 11259 1 109.50000 418.400000
4384 17147 5974 1 109.50000 418.400000
4384 17147 11259 1 109.50000 418.400000
5974 17147 11259 1 109.50000 418.400000
1106 17148 5200 1 109.50000 418.400000
1106 17148 9078 1 109.50000 418.400000
1106 17148 11133 1 109.50000 418.400000
5200 17148 9078 1 109.50000 418.400000
5200 17148 11133 1 109.50000 418.400000
9078 17148 11133 1 109.50000 418.400000
3161 17149 5611 1 109.50000 418.400000
3161 17149 8406 1 109.50000 418.400000
3161 17149 10688 1 109.50000 418.400000
5611 17149 8406 1 109.50000 418.400000
5611 17149 10688 1 109.50000 418.400000
8406 17149 10688 1 109.50000 418.400000
2887 17150 8382 1 109.50000 418.400000
2887 17150 9886 1 109.50000 418.400000
2887 17150 11068 1 109.50000 418.400000
8382 17150 9886 1 109.50000 418.400000
8382 17150 11068 1 109.50000 418.400000
9886 17150 11068 1 109.50000 418.400000
2652 17151 7037 1 109.50000 418.400000
2652 17151 10555 1 109.50000 418.400000
2652 17151 11430 1 109.50000 418.400000
7037 17151 10555 1 109.50000 418.400000
7037 17151 11430 1 109.50000 418.400000
10555 17151 11430 1 109.50000 418.400000
1428 17152 2920 1 109.50000 418.400000
1428 17152 3069 1 109.50000 418.400000
1428 17152 9897 1 109.50000 418.400000
2920 17152 3069 1 109.50000 418.400000
2920 17152 9897 1 109.50000 418.400000
3069 17152 9897 1 109.50000 418.400000
4264 17153 9434 1 109.50000 418.400000
4264 17153 9854 1 109.50000 418.400000
4264 17153 11112 1 109.50000 418.400000
9434 17153 9854 1 109.50000 418.400000
9434 17153 11112 1 109.50000 418.400000
9854 17153 11112 1 109.50000 418.400000
7348 17154 7864 1 109.50000 418.400000
7348 17154 9885 1 109.50000 418.400000
7348 17154 10804 1 109.50000 418.400000
7864 17154 9885 1 109.50000 418.400000
7864 17154 10804 1 109.50000 418.400000
9885 17154 10804 1 109.50000 418.400000
4836 17155 8688 1 109.50000 418.400000
4836 17155 9253 1 109.50000 418.400000
4836 17155 9923 1 109.50000 418.400000
8688 17155 9253 1 109.50000 418.400000
8688 17155 9923 1 109.50000 418.400000
9253 17155 9923 1 109.50000 418.400000
4477 17156 6230 1 109.50000 418.400000
4477 17156 10274 1 109.50000 418.400000
4477 17156 11059 1 109.50000 418.400000
6230 17156 10274 1 109.50000 418.400000
6230 17156 11059 1 109.50000 418.400000
10274 17156 11059 1 109.50000 418.400000
7400 17157 7765 1 109.50000 418.400000
7400 17157 7790 1 109.50000 418.400000
7400 17157 10258 1 109.50000 418.400000
7765 17157 7790 1 109.50000 418.400000
7765 17157 10258 1 109.50000 418.400000
7790 17157 10258 1 109.50000 418.400000
7242 17158 10168 1 109.50000 418.400000
7242 17158 10183 1 109.50000 418.400000
7242 17158 11118 1 109.50000 418.400000
10168 17158 10183 1 109.50000 418.400000
10168 17158 11118 1 109.50000 418.400000
10183 17158 11118 1 109.50000 418.400000
1670 17159 5285 1 109.50000 418.400000
1670 17159 10180 1 109.50000 418.400000
1670 17159 10391 1 109.50000 418.400000
5285 17159 10180 1 109.50000 418.400000
5285 17159 10391 1 109.50000 418.400000
10180 17159 10391 1 109.50000 418.400000
1878 17160 4887 1 109.50000 418.400000
1878 17160 7927 1 109.50000 418.400000
1878 17160 8571 1 109.50000 418.400000
4887 17160 7927 1 109.50000 418.400000
4887 17160 8571 1 109.50000 418.400000
7927 17160 8571 1 109.50000 418.400000
3013 17161 11137 1 109.50000 418.400000
3013 17161 11242 1 109.50000 418.400000
3013 17161 11560 1 109.50000 418.400000
11137 17161 11242 1 109.50000 418.400000
11137 17161 11560 1 109.50000 418.400000
11242 17161 11560 1 109.50000 418.400000
1739 17162 1741 1 109.50000 418.400000
1739 17162 6036 1 109.50000 418.400000
1739 17162 11088 1 109.50000 418.400000
1741 17162 6036 1 109.50000 418.400000
1741 17162 11088 1 109.50000 418.400000
6036 17162 11088 1 109.50000 418.400000
9278 17163 10174 1 109.50000 418.400000
9278 17163 11019 1 109.50000 418.400000
9278 17163 11135 1 109.50000 418.400000
10174 17163 11019 1 109.50000 418.400000
10174 17163 11135 1 109.50000 418.400000
11019 17163 11135 1 109.50000 418.400000
77 17164 6088 1 109.50000 418.400000
77 17164 10869 1 109.50000 418.400000
77 17164 11105 1 109.50000 418.400000
6088 17164 10869 1 109.50000 418.400000
6088 17164 11105 1 109.50000 418.400000
10869 17164 11105 1 109.50000 418.400000
3275 17165 4647 1 109.50000 418.400000
3275 17165 9806 1 109.50000 418.400000
3275 17165 10886 1 109.50000 418.400000
4647 17165 9806 1 109.50000 418.400000
4647 17165 10886 1 109.50000 418.400000
9806 17165 10886 1 109.50000 418.400000
712 17166 8255 1 109.50000 418.400000
712 17166 8336 1 109.50000 418.400000
712 17166 10881 1 109.50000 418.400000
8255 17166 8336 1 109.50000 418.400000
8255 17166 10881 1 109.50000 418.400000
8336 17166 10881 1 109.50000 418.400000
83 17167 9429 1 109.50000 418.400000
83 17167 9716 1 109.50000 418.400000
83 17167 10157 1 109.50000 418.400000
9429 17167 9716 1 109.50000 418.400000
9429 17167 10157 1 109.50000 418.400000
9716 17167 10157 1 109.50000 418.400000
10280 17168 10298 1 109.50000 418.400000
10280 17168 10309 1 109.50000 418.400000
10280 17168 10748 1 109.50000 418.400000
10298 17168 10309 1 109.50000 418.400000
10298 17168 10748 1 109.50000 418.400000
10309 17168 10748 1 109.50000 418.400000
6076 17169 7112 1 109.50000 418.400000
6076 17169 8312 1 109.50000 418.400000
6076 17169 10939 1 109.50000 418.400000
7112 17169 8312 1 109.50000 418.400000
7112 17169 10939 1 109.50000 418.400000
8312 17169 10939 1 109.50000 418.400000
7616 17170 10226 1 109.50000 418.400000
7616 17170 10896 1 109.50000 418.400000
7616 17170 10961 1 109.50000 418.400000
10226 17170 10896 1 109.50000 418.400000
10226 17170 10961 1 109.50000 418.400000
10896 17170 10961 1 109.50000 418.400000
2389 17171 10037 1 109.50000 418.400000
2389 17171 11131 1 109.50000 418.400000
2389 17171 11132 1 109.50000 418.400000
10037 17171 11131 1 109.50000 418.400000
10037 17171 11132 1 109.50000 418.400000
11131 17171 11132 1 109.50000 418.400000
4733 17172 9971 1 109.50000 418.400000
4733 17172 10036 1 109.50000 418.400000
4733 17172 11453 1 109.50000 418.400000
9971 17172 10036 1 109.50000 418.400000
9971 17172 11453 1 109.50000 418.400000
10036 17172 11453 1 109.50000 418.400000
614 17173 7832 1 109.50000 418.400000
614 17173 7833 1 109.50000 418.400000
614 17173 10256 1 109.50000 418.400000
7832 17173 7833 1 109.50000 418.400000
7832 17173 10256 1 109.50000 418.400000
7833 17173 10256 1 109.50000 418.400000
5117 17174 5513 1 109.50000 418.400000
5117 17174 8971 1 109.50000 418.400000
5117 17174 10350 1 109.50000 418.400000
5513 17174 8971 1 109.50000 418.400000
5513 17174 10350 1 109.50000 418.400000
8971 17174 10350 1 109.50000 418.400000
8225 17175 10196 1 109.50000 418.400000
8225 17175 10573 1 109.50000 418.400000
8225 17175 11015 1 109.50000 418.400000
10196 17175 10573 1 109.50000 418.400000
10196 17175 11015 1 109.50000 418.400000
10573 17175 11015 1 109.50000 418.400000
990 17176 3918 1 109.50000 418.400000
990 17176 5487 1 109.50000 418.400000
990 17176 7552 1 109.50000 418.400000
3918 17176 5487 1 109.50000 418.400000
3918 17176 7552 1 109.50000 418.400000
5487 17176 7552 1 109.50000 418.400000
2823 17177 3283 1 109.50000 418.400000
2823 17177 8524 1 109.50000 418.400000
2823 17177 8987 1 109.50000 418.400000
3283 17177 8524 1 109.50000 418.400000
3283 17177 8987 1 109.50000 418.400000
8524 17177 8987 1 109.50000 418.400000
6677 17178 10059 1 109.50000 418.400000
6677 17178 11033 1 109.50000 418.400000
6677 17178 11099 1 109.50000 418.400000
10059 17178 11033 1 109.50000 418.400000
10059 17178 11099 1 109.50000 418.400000
11033 17178 11099 1 109.50000 418.400000
2663 17179 6355 1 109.50000 418.400000
2663 17179 6959 1 109.50000 418.400000
2663 17179 8963 1 109.50000 418.400000
6355 17179 6959 1 109.50000 418.400000
6355 17179 8963 1 109.50000 418.400000
6959 17179 8963 1 109.50000 418.400000
660 17180 1902 1 109.50000 418.400000
660 17180 10934 1 109.50000 418.400000
660 17180 11134 1 109.50000 418.400000
1902 17180 10934 1 109.50000 418.400000
1902 17180 11134 1 109.50000 418.400000
10934 17180 11134 1 109.50000 418.400000
2923 17181 5081 1 109.50000 418.400000
2923 17181 5436 1 109.50000 418.400000
2923 17181 9475 1 109.50000 418.400000
5081 17181 5436 1 109.50000 418.400000
5081 17181 9475 1 109.50000 418.400000
5436 17181 9475 1 109.50000 418.400000
5540 17182 8923 1 109.50000 418.400000
5540 17182 10632 1 109.50000 418.400000
5540 17182 11539 1 109.50000 418.400000
8923 17182 10632 1 109.50000 418.400000
8923 17182 11539 1 109.50000 418.400000
10632 17182 11539 1 109.50000 418.400000
1776 17183 3011 1 109.50000 418.400000
1776 17183 8518 1 109.50000 418.400000
1776 17183 10947 1 109.50000 418.400000
3011 17183 8518 1 109.50000 418.400000
3011 17183 10947 1 109.50000 418.400000
8518 17183 10947 1 109.50000 418.400000
2644 17184 3986 1 109.50000 418.400000
2644 17184 6752 1 109.50000 418.400000
2644 17184 9439 1 109.50000 418.400000
3986 17184 6752 1 109.50000 418.400000
3986 17184 9439 1 109.50000 418.400000
6752 17184 9439 1 109.50000 418.400000
1074 17185 1661 1 109.50000 418.400000
1074 17185 4448 1 109.50000 418.400000
1074 17185 11036 1 109.50000 418.400000
1661 17185 4448 1 109.50000 418.400000
1661 17185 11036 1 109.50000 418.400000
4448 17185 11036 1 109.50000 418.400000
6151 17186 8081 1 109.50000 418.400000
6151 17186 10148 1 109.50000 418.400000
6151 17186 11580 1 109.50000 418.400000
8081 17186 10148 1 109.50000 418.400000
8081 17186 11580 1 109.50000 418.400000
10148 17186 11580 1 109.50000 418.400000
4661 17187 5106 1 109.50000 418.400000
4661 17187 7454 1 109.50000 418.400000
4661 17187 8268 1 109.50000 418.400000
5106 17187 7454 1 109.50000 418.400000
5106 17187 8268 1 109.50000 418.400000
7454 17187 8268 1 109.50000 418.400000
3485 17188 3536 1 109.50000 418.400000
3485 17188 4290 1 109.50000 418.400000
3485 17188 10360 1 109.50000 418.400000
3536 17188 4290 1 109.50000 418.400000
3536 17188 10360 1 109.50000 418.400000
4290 17188 10360 1 109.50000 418.400000
177 17189 1271 1 109.50000 418.400000
177 17189 1805 1 109.50000 418.400000
177 17189 3357 1 109.50000 418.400000
1271 17189 1805 1 109.50000 418.400000
1271 17189 3357 1 109.50000 418.400000
1805 17189 3357 1 109.50000 418.400000
948 17190 6340 1 109.50000 418.400000
948 17190 8958 1 109.50000 418.400000
948 17190 10292 1 109.50000 418.400000
6340 17190 8958 1 109.50000 418.400000
6340 17190 10292 1 109.50000 418.400000
8958 17190 10292 1 109.50000 418.400000
645 17191 2721 1 109.50000 418.400000
645 17191 6714 1 109.50000 418.400000
645 17191 9793 1 109.50000 418.400000
2721 17191 6714 1 109.50000 418.400000
2721 17191 9793 1 109.50000 418.400000
6714 17191 9793 1 109.50000 418.400000
5591 17192 7331 1 109.50000 418.400000
5591 17192 10202 1 109.50000 418.400000
5591 17192 11136 1 109.50000 418.400000
7331 17192 10202 1 109.50000 418.400000
7331 17192 11136 1 109.50000 418.400000
10202 17192 11136 1 109.50000 418.400000
1447 17193 1824 1 109.50000 418.400000
1447 17193 2794 1 109.50000 418.400000
1447 17193 3201 1 109.50000 418.400000
1824 17193 2794 1 109.50000 418.400000
1824 17193 3201 1 109.50000 418.400000
2794 17193 3201 1 109.50000 418.400000
9165 17194 10229 1 109.50000 418.400000
9165 17194 10402 1 109.50000 418.400000
9165 17194 10800 1 109.50000 418.400000
10229 17194 10402 1 109.50000 418.400000
10229 17194 10800 1 109.50000 418.400000
10402 17194 10800 1 109.50000 418.400000
8160 17195 9522 1 109.50000 418.400000
8160 17195 10244 1 109.50000 418.400000
8160 17195 11119 1 109.50000 418.400000
9522 17195 10244 1 109.50000 418.400000
9522 17195 11119 1 109.50000 418.400000
10244 17195 11119 1 109.50000 418.400000
4866 17196 5887 1 109.50000 418.400000
4866 17196 7830 1 109.50000 418.400000
4866 17196 10996 1 109.50000 418.400000
5887 17196 7830 1 109.50000 418.400000
5887 17196 10996 1 109.50000 418.400000
7830 17196 10996 1 109.50000 418.400000
3238 17197 4431 1 109.50000 418.400000
3238 17197 9080 1 109.50000 418.400000
3238 17197 10297 1 109.50000 418.400000
4431 17197 9080 1 109.50000 418.400000
4431 17197 10297 1 109.50000 418.400000
9080 17197 10297 1 109.50000 418.400000
8273 17198 9095 1 109.50000 418.400000
8273 17198 9418 1 109.50000 418.400000
8273 17198 10344 1 109.50000 418.400000
9095 17198 9418 1 109.50000 418.400000
9095 17198 10344 1 109.50000 418.400000
9418 17198 10344 1 109.50000 418.400000
5071 17199 6175 1 109.50000 418.400000
5071 17199 6178 1 109.50000 418.400000
5071 17199 6787 1 109.50000 418.400000
6175 17199 6178 1 109.50000 418.400000
6175 17199 6787 1 109.50000 418.400000
6178 17199 6787 1 109.50000 418.400000
5 17200 6 1 109.50000 418.400000
5 17200 3184 1 109.50000 418.400000
5 17200 17201 1 109.50000 418.400000
6 17200 3184 1 109.50000 418.400000
6 17200 17201 1 109.50000 418.400000
3184 17200 17201 1 109.50000 418.400000
17200 17201 17202 1 115.00000 209.200000
68 17203 69 1 109.50000 418.400000
68 17203 11336 1 109.50000 418.400000
68 17203 17204 1 109.50000 418.400000
69 17203 11336 1 109.50000 418.400000
69 17203 17204 1 109.50000 418.400000
11336 17203 17204 1 109.50000 418.400000
17203 17204 17205 1 115.00000 209.200000
123 17206 124 1 109.50000 418.400000
123 17206 125 1 109.50000 418.400000
123 17206 17207 1 109.50000 418.400000
124 17206 125 1 109.50000 418.400000
124 17206 17207 1 109.50000 418.400000
125 17206 17207 1 109.50000 418.400000
17206 17207 17208 1 115.00000 209.200000
178 17209 179 1 109.50000 418.400000
178 17209 11225 1 109.50000 418.400000
178 17209 17210 1 109.50000 418.400000
179 17209 11225 1 109.50000 418.400000
179 17209 17210 1 109.50000 418.400000
11225 17209 17210 1 109.50000 418.400000
17209 17210 17211 1 115.00000 209.200000
221 17212 222 1 109.50000 418.400000
221 17212 223 1 109.50000 418.400000
221 17212 17213 1 109.50000 418.400000
222 17212 223 1 109.50000 418.400000
222 17212 17213 1 109.50000 418.400000
223 17212 17213 1 109.50000 418.400000
17212 17213 17214 1 115.00000 209.200000
232 17215 233 1 109.50000 418.400000
232 17215 234 1 109.50000 418.400000
232 17215 17216 1 109.50000 418.400000
233 17215 234 1 109.50000 418.400000
233 17215 17216 1 109.50000 418.400000
234 17215 17216 1 109.50000 418.400000
17215 17216 17217 1 115.00000 209.200000
239 17218 240 1 109.50000 418.400000
239 17218 241 1 109.50000 418.400000
239 17218 17219 1 109.50000 418.400000
240 17218 241 1 109.50000 418.400000
240 17218 17219 1 109.50000 418.400000
241 17218 17219 1 109.50000 418.400000
17218 17219 17220 1 115.00000 209.200000
242 17221 243 1 109.50000 418.400000
242 17221 244 1 109.50000 418.400000
242 17221 17222 1 109.50000 418.400000
243 17221 244 1 109.50000 418.400000
243 17221 17222 1 109.50000 418.400000
244 17221 17222 1 109.50000 418.400000
17221 17222 17223 1 115.00000 209.200000
254 17224 255 1 109.50000 418.400000
254 17224 11299 1 109.50000 418.400000
254 17224 17225 1 109.50000 418.400000
255 17224 11299 1 109.50000 418.400000
255 17224 17225 1 109.50000 418.400000
11299 17224 17225 1 109.50000 418.400000
17224 17225 17226 1 115.00000 209.200000
283 17227 284 1 109.50000 418.400000
283 17227 285 1 109.50000 418.400000
283 17227 17228 1 109.50000 418.400000
284 17227 285 1 109.50000 418.400000
284 17227 17228 1 109.50000 418.400000
285 17227 17228 1 109.50000 418.400000
17227 17228 17229 1 115.00000 209.200000
263 17230 314 1 109.50000 418.400000
263 17230 315 1 109.50000 418.400000
263 17230 17231 1 109.50000 418.400000
314 17230 315 1 109.50000 418.400000
314 17230 17231 1 109.50000 418.400000
315 17230 17231 1 109.50000 418.400000
17230 17231 17232 1 115.00000 209.200000
369 17233 8212 1 109.50000 418.400000
369 17233 9394 1 109.50000 418.400000
369 17233 17234 1 109.50000 418.400000
8212 17233 9394 1 109.50000 418.400000
8212 17233 17234 1 109.50000 418.400000
9394 17233 17234 1 109.50000 418.400000
17233 17234 17235 1 115.00000 209.200000
395 17236 396 1 109.50000 418.400000
395 17236 11314 1 109.50000 418.400000
395 17236 17237 1 109.50000 418.400000
396 17236 11314 1 109.50000 418.400000
396 17236 17237 1 109.50000 418.400000
11314 17236 17237 1 109.50000 418.400000
17236 17237 17238 1 115.00000 209.200000
459 17239 460 1 109.50000 418.400000
459 17239 11350 1 109.50000 418.400000
459 17239 17240 1 109.50000 418.400000
460 17239 11350 1 109.50000 418.400000
460 17239 17240 1 109.50000 418.400000
11350 17239 17240 1 109.50000 418.400000
17239 17240 17241 1 115.00000 209.200000
137 17242 578 1 109.50000 418.400000
137 17242 579 1 109.50000 418.400000
137 17242 17243 1 109.50000 418.400000
578 17242 579 1 109.50000 418.400000
578 17242 17243 1 109.50000 418.400000
579 17242 17243 1 109.50000 418.400000
17242 17243 17244 1 115.00000 209.200000
583 17245 584 1 109.50000 418.400000
583 17245 11342 1 109.50000 418.400000
583 17245 17246 1 109.50000 418.400000
584 17245 11342 1 109.50000 418.400000
584 17245 17246 1 109.50000 418.400000
11342 17245 17246 1 109.50000 418.400000
17245 17246 17247 1 115.00000 209.200000
619 17248 620 1 109.50000 418.400000
619 17248 621 1 109.50000 418.400000
619 17248 17249 1 109.50000 418.400000
620 17248 621 1 109.50000 418.400000
620 17248 17249 1 109.50000 418.400000
621 17248 17249 1 109.50000 418.400000
17248 17249 17250 1 115.00000 209.200000
783 17251 784 1 109.50000 418.400000
783 17251 785 1 109.50000 418.400000
783 17251 17252 1 109.50000 418.400000
784 17251 785 1 109.50000 418.400000
784 17251 17252 1 109.50000 418.400000
785 17251 17252 1 109.50000 418.400000
17251 17252 17253 1 115.00000 209.200000
790 17254 791 1 109.50000 418.400000
790 17254 792 1 109.50000 418.400000
790 17254 17255 1 109.50000 418.400000
791 17254 792 1 109.50000 418.400000
791 17254 17255 1 109.50000 418.400000
792 17254 17255 1 109.50000 418.400000
17254 17255 17256 1 115.00000 209.200000
797 17257 798 1 109.50000 418.400000
797 17257 799 1 109.50000 418.400000
797 17257 17258 1 109.50000 418.400000
798 17257 799 1 109.50000 418.400000
798 17257 17258 1 109.50000 418.400000
799 17257 17258 1 109.50000 418.400000
17257 17258 17259 1 115.00000 209.200000
800 17260 801 1 109.50000 418.400000
800 17260 11266 1 109.50000 418.400000
800 17260 17261 1 109.50000 418.400000
801 17260 11266 1 109.50000 418.400000
801 17260 17261 1 109.50000 418.400000
11266 17260 17261 1 109.50000 418.400000
17260 17261 17262 1 115.00000 209.200000
837 17263 838 1 109.50000 418.400000
837 17263 839 1 109.50000 418.400000
837 17263 17264 1 109.50000 418.400000
838 17263 839 1 109.50000 418.400000
838 17263 17264 1 109.50000 418.400000
839 17263 17264 1 109.50000 418.400000
17263 17264 17265 1 115.00000 209.200000
1034 17266 1035 1 109.50000 418.400000
1034 17266 5178 1 109.50000 418.400000
1034 17266 17267 1 109.50000 418.400000
1035 17266 5178 1 109.50000 418.400000
1035 17266 17267 1 109.50000 418.400000
5178 17266 17267 1 109.50000 418.400000
17266 17267 17268 1 115.00000 209.200000
1110 17269 1111 1 109.50000 418.400000
1110 17269 1112 1 109.50000 418.400000
1110 17269 17270 1 109.50000 418.400000
1111 17269 1112 1 109.50000 418.400000
1111 17269 17270 1 109.50000 418.400000
1112 17269 17270 1 109.50000 418.400000
17269 17270 17271 1 115.00000 209.200000
1634 17272 1635 1 109.50000 418.400000
1634 17272 1636 1 109.50000 418.400000
1634 17272 17273 1 109.50000 418.400000
1635 17272 1636 1 109.50000 418.400000
1635 17272 17273 1 109.50000 418.400000
1636 17272 17273 1 109.50000 418.400000
17272 17273 17274 1 115.00000 209.200000
1652 17275 1655 1 109.50000 418.400000
1652 17275 11277 1 109.50000 418.400000
1652 17275 17276 1 109.50000 418.400000
1655 17275 11277 1 109.50000 418.400000
1655 17275 17276 1 109.50000 418.400000
11277 17275 17276 1 109.50000 418.400000
17275 17276 17277 1 115.00000 209.200000
1689 17278 1690 1 109.50000 418.400000
1689 17278 1691 1 109.50000 418.400000
1689 17278 17279 1 109.50000 418.400000
1690 17278 1691 1 109.50000 418.400000
1690 17278 17279 1 109.50000 418.400000
1691 17278 17279 1 109.50000 418.400000
17278 17279 17280 1 115.00000 209.200000
1036 17281 1073 1 109.50000 418.400000
1036 17281 1727 1 109.50000 418.400000
1036 17281 17282 1 109.50000 418.400000
1073 17281 1727 1 109.50000 418.400000
1073 17281 17282 1 109.50000 418.400000
1727 17281 17282 1 109.50000 418.400000
17281 17282 17283 1 115.00000 209.200000
1758 17284 1759 1 109.50000 418.400000
1758 17284 1760 1 109.50000 418.400000
1758 17284 17285 1 109.50000 418.400000
1759 17284 1760 1 109.50000 418.400000
1759 17284 17285 1 109.50000 418.400000
1760 17284 17285 1 109.50000 418.400000
17284 17285 17286 1 115.00000 209.200000
1829 17287 1830 1 109.50000 418.400000
1829 17287 1831 1 109.50000 418.400000
1829 17287 17288 1 109.50000 418.400000
1830 17287 1831 1 109.50000 418.400000
1830 17287 17288 1 109.50000 418.400000
1831 17287 17288 1 109.50000 418.400000
17287 17288 17289 1 115.00000 209.200000
1896 17290 1897 1 109.50000 418.400000
1896 17290 3832 1 109.50000 418.400000
1896 17290 17291 1 109.50000 418.400000
1897 17290 3832 1 109.50000 418.400000
1897 17290 17291 1 109.50000 418.400000
3832 17290 17291 1 109.50000 418.400000
17290 17291 17292 1 115.00000 209.200000
2018 17293 2019 1 109.50000 418.400000
2018 17293 11233 1 109.50000 418.400000
2018 17293 17294 1 109.50000 418.400000
2019 17293 11233 1 109.50000 418.400000
2019 17293 17294 1 109.50000 418.400000
11233 17293 17294 1 109.50000 418.400000
17293 17294 17295 1 115.00000 209.200000
255 17296 2027 1 109.50000 418.400000
255 17296 2028 1 109.50000 418.400000
255 17296 17297 1 109.50000 418.400000
2027 17296 2028 1 109.50000 418.400000
2027 17296 17297 1 109.50000 418.400000
2028 17296 17297 1 109.50000 418.400000
17296 17297 17298 1 115.00000 209.200000
2046 17299 2047 1 109.50000 418.400000
2046 17299 2048 1 109.50000 418.400000
2046 17299 17300 1 109.50000 418.400000
2047 17299 2048 1 109.50000 418.400000
2047 17299 17300 1 109.50000 418.400000
2048 17299 17300 1 109.50000 418.400000
17299 17300 17301 1 115.00000 209.200000
1986 17302 2066 1 109.50000 418.400000
1986 17302 11167 1 109.50000 418.400000
1986 17302 17303 1 109.50000 418.400000
2066 17302 11167 1 109.50000 418.400000
2066 17302 17303 1 109.50000 418.400000
11167 17302 17303 1 109.50000 418.400000
17302 17303 17304 1 115.00000 209.200000
741 17305 2096 1 109.50000 418.400000
741 17305 2097 1 109.50000 418.400000
741 17305 17306 1 109.50000 418.400000
2096 17305 2097 1 109.50000 418.400000
2096 17305 17306 1 109.50000 418.400000
2097 17305 17306 1 109.50000 418.400000
17305 17306 17307 1 115.00000 209.200000
320 17308 1044 1 109.50000 418.400000
320 17308 11315 1 109.50000 418.400000
320 17308 17309 1 109.50000 418.400000
1044 17308 11315 1 109.50000 418.400000
1044 17308 17309 1 109.50000 418.400000
11315 17308 17309 1 109.50000 418.400000
17308 17309 17310 1 115.00000 209.200000
2450 17311 2451 1 109.50000 418.400000
2450 17311 2452 1 109.50000 418.400000
2450 17311 17312 1 109.50000 418.400000
2451 17311 2452 1 109.50000 418.400000
2451 17311 17312 1 109.50000 418.400000
2452 17311 17312 1 109.50000 418.400000
17311 17312 17313 1 115.00000 209.200000
2505 17314 2506 1 109.50000 418.400000
2505 17314 5440 1 109.50000 418.400000
2505 17314 17315 1 109.50000 418.400000
2506 17314 5440 1 109.50000 418.400000
2506 17314 17315 1 109.50000 418.400000
5440 17314 17315 1 109.50000 418.400000
17314 17315 17316 1 115.00000 209.200000
895 17317 2602 1 109.50000 418.400000
895 17317 2603 1 109.50000 418.400000
895 17317 17318 1 109.50000 418.400000
2602 17317 2603 1 109.50000 418.400000
2602 17317 17318 1 109.50000 418.400000
2603 17317 17318 1 109.50000 418.400000
17317 17318 17319 1 115.00000 209.200000
2623 17320 2624 1 109.50000 418.400000
2623 17320 11345 1 109.50000 418.400000
2623 17320 17321 1 109.50000 418.400000
2624 17320 11345 1 109.50000 418.400000
2624 17320 17321 1 109.50000 418.400000
11345 17320 17321 1 109.50000 418.400000
17320 17321 17322 1 115.00000 209.200000
2604 17323 2605 1 109.50000 418.400000
2604 17323 2991 1 109.50000 418.400000
2604 17323 17324 1 109.50000 418.400000
2605 17323 2991 1 109.50000 418.400000
2605 17323 17324 1 109.50000 418.400000
2991 17323 17324 1 109.50000 418.400000
17323 17324 17325 1 115.00000 209.200000
579 17326 3434 1 109.50000 418.400000
579 17326 5660 1 109.50000 418.400000
579 17326 17327 1 109.50000 418.400000
3434 17326 5660 1 109.50000 418.400000
3434 17326 17327 1 109.50000 418.400000
5660 17326 17327 1 109.50000 418.400000
17326 17327 17328 1 115.00000 209.200000
3104 17329 3105 1 109.50000 418.400000
3104 17329 3106 1 109.50000 418.400000
3104 17329 17330 1 109.50000 418.400000
3105 17329 3106 1 109.50000 418.400000
3105 17329 17330 1 109.50000 418.400000
3106 17329 17330 1 109.50000 418.400000
17329 17330 17331 1 115.00000 209.200000
3147 17332 6233 1 109.50000 418.400000
3147 17332 11238 1 109.50000 418.400000
3147 17332 17333 1 109.50000 418.400000
6233 17332 11238 1 109.50000 418.400000
6233 17332 17333 1 109.50000 418.400000
11238 17332 17333 1 109.50000 418.400000
17332 17333 17334 1 115.00000 209.200000
3109 17335 3161 1 109.50000 418.400000
3109 17335 11368 1 109.50000 418.400000
3109 17335 17336 1 109.50000 418.400000
3161 17335 11368 1 109.50000 418.400000
3161 17335 17336 1 109.50000 418.400000
11368 17335 17336 1 109.50000 418.400000
17335 17336 17337 1 115.00000 209.200000
801 17338 3338 1 109.50000 418.400000
801 17338 3339 1 109.50000 418.400000
801 17338 17339 1 109.50000 418.400000
3338 17338 3339 1 109.50000 418.400000
3338 17338 17339 1 109.50000 418.400000
3339 17338 17339 1 109.50000 418.400000
17338 17339 17340 1 115.00000 209.200000
3351 17341 3352 1 109.50000 418.400000
3351 17341 3353 1 109.50000 418.400000
3351 17341 17342 1 109.50000 418.400000
3352 17341 3353 1 109.50000 418.400000
3352 17341 17342 1 109.50000 418.400000
3353 17341 17342 1 109.50000 418.400000
17341 17342 17343 1 115.00000 209.200000
125 17344 3371 1 109.50000 418.400000
125 17344 11272 1 109.50000 418.400000
125 17344 17345 1 109.50000 418.400000
3371 17344 11272 1 109.50000 418.400000
3371 17344 17345 1 109.50000 418.400000
11272 17344 17345 1 109.50000 418.400000
17344 17345 17346 1 115.00000 209.200000
3379 17347 3380 1 109.50000 418.400000
3379 17347 11341 1 109.50000 418.400000
3379 17347 17348 1 109.50000 418.400000
3380 17347 11341 1 109.50000 418.400000
3380 17347 17348 1 109.50000 418.400000
11341 17347 17348 1 109.50000 418.400000
17347 17348 17349 1 115.00000 209.200000
3417 17350 3418 1 109.50000 418.400000
3417 17350 3419 1 109.50000 418.400000
3417 17350 17351 1 109.50000 418.400000
3418 17350 3419 1 109.50000 418.400000
3418 17350 17351 1 109.50000 418.400000
3419 17350 17351 1 109.50000 418.400000
17350 17351 17352 1 115.00000 209.200000
3430 17353 3431 1 109.50000 418.400000
3430 17353 11264 1 109.50000 418.400000
3430 17353 17354 1 109.50000 418.400000
3431 17353 11264 1 109.50000 418.400000
3431 17353 17354 1 109.50000 418.400000
11264 17353 17354 1 109.50000 418.400000
17353 17354 17355 1 115.00000 209.200000
3525 17356 3526 1 109.50000 418.400000
3525 17356 3527 1 109.50000 418.400000
3525 17356 17357 1 109.50000 418.400000
3526 17356 3527 1 109.50000 418.400000
3526 17356 17357 1 109.50000 418.400000
3527 17356 17357 1 109.50000 418.400000
17356 17357 17358 1 115.00000 209.200000
3559 17359 3560 1 109.50000 418.400000
3559 17359 3561 1 109.50000 418.400000
3559 17359 17360 1 109.50000 418.400000
3560 17359 3561 1 109.50000 418.400000
3560 17359 17360 1 109.50000 418.400000
3561 17359 17360 1 109.50000 418.400000
17359 17360 17361 1 115.00000 209.200000
3676 17362 3677 1 109.50000 418.400000
3676 17362 11169 1 109.50000 418.400000
3676 17362 17363 1 109.50000 418.400000
3677 17362 11169 1 109.50000 418.400000
3677 17362 17363 1 109.50000 418.400000
11169 17362 17363 1 109.50000 418.400000
17362 17363 17364 1 115.00000 209.200000
458 17365 3771 1 109.50000 418.400000
458 17365 3772 1 109.50000 418.400000
458 17365 17366 1 109.50000 418.400000
3771 17365 3772 1 109.50000 418.400000
3771 17365 17366 1 109.50000 418.400000
3772 17365 17366 1 109.50000 418.400000
17365 17366 17367 1 115.00000 209.200000
3879 17368 3880 1 109.50000 418.400000
3879 17368 3881 1 109.50000 418.400000
3879 17368 17369 1 109.50000 418.400000
3880 17368 3881 1 109.50000 418.400000
3880 17368 17369 1 109.50000 418.400000
3881 17368 17369 1 109.50000 418.400000
17368 17369 17370 1 115.00000 209.200000
840 17371 4033 1 109.50000 418.400000
840 17371 4034 1 109.50000 418.400000
840 17371 17372 1 109.50000 418.400000
4033 17371 4034 1 109.50000 418.400000
4033 17371 17372 1 109.50000 418.400000
4034 17371 17372 1 109.50000 418.400000
17371 17372 17373 1 115.00000 209.200000
1699 17374 4236 1 109.50000 418.400000
1699 17374 11152 1 109.50000 418.400000
1699 17374 17375 1 109.50000 418.400000
4236 17374 11152 1 109.50000 418.400000
4236 17374 17375 1 109.50000 418.400000
11152 17374 17375 1 109.50000 418.400000
17374 17375 17376 1 115.00000 209.200000
2217 17377 4435 1 109.50000 418.400000
2217 17377 11367 1 109.50000 418.400000
2217 17377 17378 1 109.50000 418.400000
4435 17377 11367 1 109.50000 418.400000
4435 17377 17378 1 109.50000 418.400000
11367 17377 17378 1 109.50000 418.400000
17377 17378 17379 1 115.00000 209.200000
3303 17380 3365 1 109.50000 418.400000
3303 17380 11412 1 109.50000 418.400000
3303 17380 17381 1 109.50000 418.400000
3365 17380 11412 1 109.50000 418.400000
3365 17380 17381 1 109.50000 418.400000
11412 17380 17381 1 109.50000 418.400000
17380 17381 17382 1 115.00000 209.200000
4511 17383 4512 1 109.50000 418.400000
4511 17383 4513 1 109.50000 418.400000
4511 17383 17384 1 109.50000 418.400000
4512 17383 4513 1 109.50000 418.400000
4512 17383 17384 1 109.50000 418.400000
4513 17383 17384 1 109.50000 418.400000
17383 17384 17385 1 115.00000 209.200000
4515 17386 4516 1 109.50000 418.400000
4515 17386 4517 1 109.50000 418.400000
4515 17386 17387 1 109.50000 418.400000
4516 17386 4517 1 109.50000 418.400000
4516 17386 17387 1 109.50000 418.400000
4517 17386 17387 1 109.50000 418.400000
17386 17387 17388 1 115.00000 209.200000
3219 17389 4603 1 109.50000 418.400000
3219 17389 4604 1 109.50000 418.400000
3219 17389 17390 1 109.50000 418.400000
4603 17389 4604 1 109.50000 418.400000
4603 17389 17390 1 109.50000 418.400000
4604 17389 17390 1 109.50000 418.400000
17389 17390 17391 1 115.00000 209.200000
4691 17392 4692 1 109.50000 418.400000
4691 17392 4693 1 109.50000 418.400000
4691 17392 17393 1 109.50000 418.400000
4692 17392 4693 1 109.50000 418.400000
4692 17392 17393 1 109.50000 418.400000
4693 17392 17393 1 109.50000 418.400000
17392 17393 17394 1 115.00000 209.200000
4771 17395 4772 1 109.50000 418.400000
4771 17395 11377 1 109.50000 418.400000
4771 17395 17396 1 109.50000 418.400000
4772 17395 11377 1 109.50000 418.400000
4772 17395 17396 1 109.50000 418.400000
11377 17395 17396 1 109.50000 418.400000
17395 17396 17397 1 115.00000 209.200000
2324 17398 3904 1 109.50000 418.400000
2324 17398 4792 1 109.50000 418.400000
2324 17398 17399 1 109.50000 418.400000
3904 17398 4792 1 109.50000 418.400000
3904 17398 17399 1 109.50000 418.400000
4792 17398 17399 1 109.50000 418.400000
17398 17399 17400 1 115.00000 209.200000
4870 17401 4871 1 109.50000 418.400000
4870 17401 11352 1 109.50000 418.400000
4870 17401 17402 1 109.50000 418.400000
4871 17401 11352 1 109.50000 418.400000
4871 17401 17402 1 109.50000 418.400000
11352 17401 17402 1 109.50000 418.400000
17401 17402 17403 1 115.00000 209.200000
460 17404 4886 1 109.50000 418.400000
460 17404 11322 1 109.50000 418.400000
460 17404 17405 1 109.50000 418.400000
4886 17404 11322 1 109.50000 418.400000
4886 17404 17405 1 109.50000 418.400000
11322 17404 17405 1 109.50000 418.400000
17404 17405 17406 1 115.00000 209.200000
2517 17407 4894 1 109.50000 418.400000
2517 17407 11328 1 109.50000 418.400000
2517 17407 17408 1 109.50000 418.400000
4894 17407 11328 1 109.50000 418.400000
4894 17407 17408 1 109.50000 418.400000
11328 17407 17408 1 109.50000 418.400000
17407 17408 17409 1 115.00000 209.200000
4617 17410 4929 1 109.50000 418.400000
4617 17410 4930 1 109.50000 418.400000
4617 17410 17411 1 109.50000 418.400000
4929 17410 4930 1 109.50000 418.400000
4929 17410 17411 1 109.50000 418.400000
4930 17410 17411 1 109.50000 418.400000
17410 17411 17412 1 115.00000 209.200000
4454 17413 4961 1 109.50000 418.400000
4454 17413 11284 1 109.50000 418.400000
4454 17413 17414 1 109.50000 418.400000
4961 17413 11284 1 109.50000 418.400000
4961 17413 17414 1 109.50000 418.400000
11284 17413 17414 1 109.50000 418.400000
17413 17414 17415 1 115.00000 209.200000
4981 17416 4982 1 109.50000 418.400000
4981 17416 11255 1 109.50000 418.400000
4981 17416 17417 1 109.50000 418.400000
4982 17416 11255 1 109.50000 418.400000
4982 17416 17417 1 109.50000 418.400000
11255 17416 17417 1 109.50000 418.400000
17416 17417 17418 1 115.00000 209.200000
3627 17419 4990 1 109.50000 418.400000
3627 17419 4991 1 109.50000 418.400000
3627 17419 17420 1 109.50000 418.400000
4990 17419 4991 1 109.50000 418.400000
4990 17419 17420 1 109.50000 418.400000
4991 17419 17420 1 109.50000 418.400000
17419 17420 17421 1 115.00000 209.200000
4709 17422 5104 1 109.50000 418.400000
4709 17422 5105 1 109.50000 418.400000
4709 17422 17423 1 109.50000 418.400000
5104 17422 5105 1 109.50000 418.400000
5104 17422 17423 1 109.50000 418.400000
5105 17422 17423 1 109.50000 418.400000
17422 17423 17424 1 115.00000 209.200000
5141 17425 5142 1 109.50000 418.400000
5141 17425 5143 1 109.50000 418.400000
5141 17425 17426 1 109.50000 418.400000
5142 17425 5143 1 109.50000 418.400000
5142 17425 17426 1 109.50000 418.400000
5143 17425 17426 1 109.50000 418.400000
17425 17426 17427 1 115.00000 209.200000
5173 17428 5174 1 109.50000 418.400000
5173 17428 11388 1 109.50000 418.400000
5173 17428 17429 1 109.50000 418.400000
5174 17428 11388 1 109.50000 418.400000
5174 17428 17429 1 109.50000 418.400000
11388 17428 17429 1 109.50000 418.400000
17428 17429 17430 1 115.00000 209.200000
3751 17431 5188 1 109.50000 418.400000
3751 17431 5189 1 109.50000 418.400000
3751 17431 17432 1 109.50000 418.400000
5188 17431 5189 1 109.50000 418.400000
5188 17431 17432 1 109.50000 418.400000
5189 17431 17432 1 109.50000 418.400000
17431 17432 17433 1 115.00000 209.200000
3625 17434 5256 1 109.50000 418.400000
3625 17434 5257 1 109.50000 418.400000
3625 17434 17435 1 109.50000 418.400000
5256 17434 5257 1 109.50000 418.400000
5256 17434 17435 1 109.50000 418.400000
5257 17434 17435 1 109.50000 418.400000
17434 17435 17436 1 115.00000 209.200000
356 17437 5260 1 109.50000 418.400000
356 17437 5261 1 109.50000 418.400000
356 17437 17438 1 109.50000 418.400000
5260 17437 5261 1 109.50000 418.400000
5260 17437 17438 1 109.50000 418.400000
5261 17437 17438 1 109.50000 418.400000
17437 17438 17439 1 115.00000 209.200000
5298 17440 5299 1 109.50000 418.400000
5298 17440 11260 1 109.50000 418.400000
5298 17440 17441 1 109.50000 418.400000
5299 17440 11260 1 109.50000 418.400000
5299 17440 17441 1 109.50000 418.400000
11260 17440 17441 1 109.50000 418.400000
17440 17441 17442 1 115.00000 209.200000
1526 17443 5356 1 109.50000 418.400000
1526 17443 11317 1 109.50000 418.400000
1526 17443 17444 1 109.50000 418.400000
5356 17443 11317 1 109.50000 418.400000
5356 17443 17444 1 109.50000 418.400000
11317 17443 17444 1 109.50000 418.400000
17443 17444 17445 1 115.00000 209.200000
5393 17446 5394 1 109.50000 418.400000
5393 17446 11282 1 109.50000 418.400000
5393 17446 17447 1 109.50000 418.400000
5394 17446 11282 1 109.50000 418.400000
5394 17446 17447 1 109.50000 418.400000
11282 17446 17447 1 109.50000 418.400000
17446 17447 17448 1 115.00000 209.200000
5496 17449 5497 1 109.50000 418.400000
5496 17449 5498 1 109.50000 418.400000
5496 17449 17450 1 109.50000 418.400000
5497 17449 5498 1 109.50000 418.400000
5497 17449 17450 1 109.50000 418.400000
5498 17449 17450 1 109.50000 418.400000
17449 17450 17451 1 115.00000 209.200000
742 17452 5551 1 109.50000 418.400000
742 17452 5552 1 109.50000 418.400000
742 17452 17453 1 109.50000 418.400000
5551 17452 5552 1 109.50000 418.400000
5551 17452 17453 1 109.50000 418.400000
5552 17452 17453 1 109.50000 418.400000
17452 17453 17454 1 115.00000 209.200000
2431 17455 5578 1 109.50000 418.400000
2431 17455 11349 1 109.50000 418.400000
2431 17455 17456 1 109.50000 418.400000
5578 17455 11349 1 109.50000 418.400000
5578 17455 17456 1 109.50000 418.400000
11349 17455 17456 1 109.50000 418.400000
17455 17456 17457 1 115.00000 209.200000
5506 17458 5579 1 109.50000 418.400000
5506 17458 5581 1 109.50000 418.400000
5506 17458 17459 1 109.50000 418.400000
5579 17458 5581 1 109.50000 418.400000
5579 17458 17459 1 109.50000 418.400000
5581 17458 17459 1 109.50000 418.400000
17458 17459 17460 1 115.00000 209.200000
4338 17461 5737 1 109.50000 418.400000
4338 17461 11353 1 109.50000 418.400000
4338 17461 17462 1 109.50000 418.400000
5737 17461 11353 1 109.50000 418.400000
5737 17461 17462 1 109.50000 418.400000
11353 17461 17462 1 109.50000 418.400000
17461 17462 17463 1 115.00000 209.200000
980 17464 4224 1 109.50000 418.400000
980 17464 5829 1 109.50000 418.400000
980 17464 17465 1 109.50000 418.400000
4224 17464 5829 1 109.50000 418.400000
4224 17464 17465 1 109.50000 418.400000
5829 17464 17465 1 109.50000 418.400000
17464 17465 17466 1 115.00000 209.200000
1154 17467 5979 1 109.50000 418.400000
1154 17467 5980 1 109.50000 418.400000
1154 17467 17468 1 109.50000 418.400000
5979 17467 5980 1 109.50000 418.400000
5979 17467 17468 1 109.50000 418.400000
5980 17467 17468 1 109.50000 418.400000
17467 17468 17469 1 115.00000 209.200000
5527 17470 6000 1 109.50000 418.400000
5527 17470 6001 1 109.50000 418.400000
5527 17470 17471 1 109.50000 418.400000
6000 17470 6001 1 109.50000 418.400000
6000 17470 17471 1 109.50000 418.400000
6001 17470 17471 1 109.50000 418.400000
17470 17471 17472 1 115.00000 209.200000
3645 17473 6032 1 109.50000 418.400000
3645 17473 9558 1 109.50000 418.400000
3645 17473 17474 1 109.50000 418.400000
6032 17473 9558 1 109.50000 418.400000
6032 17473 17474 1 109.50000 418.400000
9558 17473 17474 1 109.50000 418.400000
17473 17474 17475 1 115.00000 209.200000
521 17476 523 1 109.50000 418.400000
521 17476 2066 1 109.50000 418.400000
521 17476 17477 1 109.50000 418.400000
523 17476 2066 1 109.50000 418.400000
523 17476 17477 1 109.50000 418.400000
2066 17476 17477 1 109.50000 418.400000
17476 17477 17478 1 115.00000 209.200000
6099 17479 6100 1 109.50000 418.400000
6099 17479 6101 1 109.50000 418.400000
6099 17479 17480 1 109.50000 418.400000
6100 17479 6101 1 109.50000 418.400000
6100 17479 17480 1 109.50000 418.400000
6101 17479 17480 1 109.50000 418.400000
17479 17480 17481 1 115.00000 209.200000
6108 17482 6109 1 109.50000 418.400000
6108 17482 6110 1 109.50000 418.400000
6108 17482 17483 1 109.50000 418.400000
6109 17482 6110 1 109.50000 418.400000
6109 17482 17483 1 109.50000 418.400000
6110 17482 17483 1 109.50000 418.400000
17482 17483 17484 1 115.00000 209.200000
2045 17485 6197 1 109.50000 418.400000
2045 17485 6198 1 109.50000 418.400000
2045 17485 17486 1 109.50000 418.400000
6197 17485 6198 1 109.50000 418.400000
6197 17485 17486 1 109.50000 418.400000
6198 17485 17486 1 109.50000 418.400000
17485 17486 17487 1 115.00000 209.200000
5498 17488 6229 1 109.50000 418.400000
5498 17488 11248 1 109.50000 418.400000
5498 17488 17489 1 109.50000 418.400000
6229 17488 11248 1 109.50000 418.400000
6229 17488 17489 1 109.50000 418.400000
11248 17488 17489 1 109.50000 418.400000
17488 17489 17490 1 115.00000 209.200000
4278 17491 4930 1 109.50000 418.400000
4278 17491 6233 1 109.50000 418.400000
4278 17491 17492 1 109.50000 418.400000
4930 17491 6233 1 109.50000 418.400000
4930 17491 17492 1 109.50000 418.400000
6233 17491 17492 1 109.50000 418.400000
17491 17492 17493 1 115.00000 209.200000
6350 17494 6351 1 109.50000 418.400000
6350 17494 11332 1 109.50000 418.400000
6350 17494 17495 1 109.50000 418.400000
6351 17494 11332 1 109.50000 418.400000
6351 17494 17495 1 109.50000 418.400000
11332 17494 17495 1 109.50000 418.400000
17494 17495 17496 1 115.00000 209.200000
4513 17497 6383 1 109.50000 418.400000
4513 17497 6384 1 109.50000 418.400000
4513 17497 17498 1 109.50000 418.400000
6383 17497 6384 1 109.50000 418.400000
6383 17497 17498 1 109.50000 418.400000
6384 17497 17498 1 109.50000 418.400000
17497 17498 17499 1 115.00000 209.200000
5361 17500 6026 1 109.50000 418.400000
5361 17500 11292 1 109.50000 418.400000
5361 17500 17501 1 109.50000 418.400000
6026 17500 11292 1 109.50000 418.400000
6026 17500 17501 1 109.50000 418.400000
11292 17500 17501 1 109.50000 418.400000
17500 17501 17502 1 115.00000 209.200000
6486 17503 6487 1 109.50000 418.400000
6486 17503 7783 1 109.50000 418.400000
6486 17503 17504 1 109.50000 418.400000
6487 17503 7783 1 109.50000 418.400000
6487 17503 17504 1 109.50000 418.400000
7783 17503 17504 1 109.50000 418.400000
17503 17504 17505 1 115.00000 209.200000
2107 17506 6556 1 109.50000 418.400000
2107 17506 6557 1 109.50000 418.400000
2107 17506 17507 1 109.50000 418.400000
6556 17506 6557 1 109.50000 418.400000
6556 17506 17507 1 109.50000 418.400000
6557 17506 17507 1 109.50000 418.400000
17506 17507 17508 1 115.00000 209.200000
6560 17509 6600 1 109.50000 418.400000
6560 17509 6601 1 109.50000 418.400000
6560 17509 17510 1 109.50000 418.400000
6600 17509 6601 1 109.50000 418.400000
6600 17509 17510 1 109.50000 418.400000
6601 17509 17510 1 109.50000 418.400000
17509 17510 17511 1 115.00000 209.200000
512 17512 6639 1 109.50000 418.400000
512 17512 11401 1 109.50000 418.400000
512 17512 17513 1 109.50000 418.400000
6639 17512 11401 1 109.50000 418.400000
6639 17512 17513 1 109.50000 418.400000
11401 17512 17513 1 109.50000 418.400000
17512 17513 17514 1 115.00000 209.200000
2495 17515 5424 1 109.50000 418.400000
2495 17515 6643 1 109.50000 418.400000
2495 17515 17516 1 109.50000 418.400000
5424 17515 6643 1 109.50000 418.400000
5424 17515 17516 1 109.50000 418.400000
6643 17515 17516 1 109.50000 418.400000
17515 17516 17517 1 115.00000 209.200000
174 17518 6557 1 109.50000 418.400000
174 17518 6647 1 109.50000 418.400000
174 17518 17519 1 109.50000 418.400000
6557 17518 6647 1 109.50000 418.400000
6557 17518 17519 1 109.50000 418.400000
6647 17518 17519 1 109.50000 418.400000
17518 17519 17520 1 115.00000 209.200000
6648 17521 6649 1 109.50000 418.400000
6648 17521 6650 1 109.50000 418.400000
6648 17521 17522 1 109.50000 418.400000
6649 17521 6650 1 109.50000 418.400000
6649 17521 17522 1 109.50000 418.400000
6650 17521 17522 1 109.50000 418.400000
17521 17522 17523 1 115.00000 209.200000
30 17524 3779 1 109.50000 418.400000
30 17524 5714 1 109.50000 418.400000
30 17524 17525 1 109.50000 418.400000
3779 17524 5714 1 109.50000 418.400000
3779 17524 17525 1 109.50000 418.400000
5714 17524 17525 1 109.50000 418.400000
17524 17525 17526 1 115.00000 209.200000
1958 17527 6823 1 109.50000 418.400000
1958 17527 6824 1 109.50000 418.400000
1958 17527 17528 1 109.50000 418.400000
6823 17527 6824 1 109.50000 418.400000
6823 17527 17528 1 109.50000 418.400000
6824 17527 17528 1 109.50000 418.400000
17527 17528 17529 1 115.00000 209.200000
3419 17530 6899 1 109.50000 418.400000
3419 17530 6900 1 109.50000 418.400000
3419 17530 17531 1 109.50000 418.400000
6899 17530 6900 1 109.50000 418.400000
6899 17530 17531 1 109.50000 418.400000
6900 17530 17531 1 109.50000 418.400000
17530 17531 17532 1 115.00000 209.200000
2540 17533 6901 1 109.50000 418.400000
2540 17533 11290 1 109.50000 418.400000
2540 17533 17534 1 109.50000 418.400000
6901 17533 11290 1 109.50000 418.400000
6901 17533 17534 1 109.50000 418.400000
11290 17533 17534 1 109.50000 418.400000
17533 17534 17535 1 115.00000 209.200000
2952 17536 6931 1 109.50000 418.400000
2952 17536 6932 1 109.50000 418.400000
2952 17536 17537 1 109.50000 418.400000
6931 17536 6932 1 109.50000 418.400000
6931 17536 17537 1 109.50000 418.400000
6932 17536 17537 1 109.50000 418.400000
17536 17537 17538 1 115.00000 209.200000
4938 17539 5866 1 109.50000 418.400000
4938 17539 7098 1 109.50000 418.400000
4938 17539 17540 1 109.50000 418.400000
5866 17539 7098 1 109.50000 418.400000
5866 17539 17540 1 109.50000 418.400000
7098 17539 17540 1 109.50000 418.400000
17539 17540 17541 1 115.00000 209.200000
4514 17542 4576 1 109.50000 418.400000
4514 17542 11200 1 109.50000 418.400000
4514 17542 17543 1 109.50000 418.400000
4576 17542 11200 1 109.50000 418.400000
4576 17542 17543 1 109.50000 418.400000
11200 17542 17543 1 109.50000 418.400000
17542 17543 17544 1 115.00000 209.200000
1683 17545 7171 1 109.50000 418.400000
1683 17545 11323 1 109.50000 418.400000
1683 17545 17546 1 109.50000 418.400000
7171 17545 11323 1 109.50000 418.400000
7171 17545 17546 1 109.50000 418.400000
11323 17545 17546 1 109.50000 418.400000
17545 17546 17547 1 115.00000 209.200000
5175 17548 6186 1 109.50000 418.400000
5175 17548 11199 1 109.50000 418.400000
5175 17548 17549 1 109.50000 418.400000
6186 17548 11199 1 109.50000 418.400000
6186 17548 17549 1 109.50000 418.400000
11199 17548 17549 1 109.50000 418.400000
17548 17549 17550 1 115.00000 209.200000
1291 17551 1684 1 109.50000 418.400000
1291 17551 7198 1 109.50000 418.400000
1291 17551 17552 1 109.50000 418.400000
1684 17551 7198 1 109.50000 418.400000
1684 17551 17552 1 109.50000 418.400000
7198 17551 17552 1 109.50000 418.400000
17551 17552 17553 1 115.00000 209.200000
1171 17554 7222 1 109.50000 418.400000
1171 17554 7223 1 109.50000 418.400000
1171 17554 17555 1 109.50000 418.400000
7222 17554 7223 1 109.50000 418.400000
7222 17554 17555 1 109.50000 418.400000
7223 17554 17555 1 109.50000 418.400000
17554 17555 17556 1 115.00000 209.200000
1858 17557 6427 1 109.50000 418.400000
1858 17557 7257 1 109.50000 418.400000
1858 17557 17558 1 109.50000 418.400000
6427 17557 7257 1 109.50000 418.400000
6427 17557 17558 1 109.50000 418.400000
7257 17557 17558 1 109.50000 418.400000
17557 17558 17559 1 115.00000 209.200000
3148 17560 7375 1 109.50000 418.400000
3148 17560 7376 1 109.50000 418.400000
3148 17560 17561 1 109.50000 418.400000
7375 17560 7376 1 109.50000 418.400000
7375 17560 17561 1 109.50000 418.400000
7376 17560 17561 1 109.50000 418.400000
17560 17561 17562 1 115.00000 209.200000
7399 17563 7400 1 109.50000 418.400000
7399 17563 11250 1 109.50000 418.400000
7399 17563 17564 1 109.50000 418.400000
7400 17563 11250 1 109.50000 418.400000
7400 17563 17564 1 109.50000 418.400000
11250 17563 17564 1 109.50000 418.400000
17563 17564 17565 1 115.00000 209.200000
3771 17566 5460 1 109.50000 418.400000
3771 17566 11212 1 109.50000 418.400000
3771 17566 17567 1 109.50000 418.400000
5460 17566 11212 1 109.50000 418.400000
5460 17566 17567 1 109.50000 418.400000
11212 17566 17567 1 109.50000 418.400000
17566 17567 17568 1 115.00000 209.200000
7066 17569 7470 1 109.50000 418.400000
7066 17569 11417 1 109.50000 418.400000
7066 17569 17570 1 109.50000 418.400000
7470 17569 11417 1 109.50000 418.400000
7470 17569 17570 1 109.50000 418.400000
11417 17569 17570 1 109.50000 418.400000
17569 17570 17571 1 115.00000 209.200000
3479 17572 7341 1 109.50000 418.400000
3479 17572 7342 1 109.50000 418.400000
3479 17572 17573 1 109.50000 418.400000
7341 17572 7342 1 109.50000 418.400000
7341 17572 17573 1 109.50000 418.400000
7342 17572 17573 1 109.50000 418.400000
17572 17573 17574 1 115.00000 209.200000
5834 17575 7510 1 109.50000 418.400000
5834 17575 11268 1 109.50000 418.400000
5834 17575 17576 1 109.50000 418.400000
7510 17575 11268 1 109.50000 418.400000
7510 17575 17576 1 109.50000 418.400000
11268 17575 17576 1 109.50000 418.400000
17575 17576 17577 1 115.00000 209.200000
7528 17578 7529 1 109.50000 418.400000
7528 17578 11356 1 109.50000 418.400000
7528 17578 17579 1 109.50000 418.400000
7529 17578 11356 1 109.50000 418.400000
7529 17578 17579 1 109.50000 418.400000
11356 17578 17579 1 109.50000 418.400000
17578 17579 17580 1 115.00000 209.200000
7624 17581 7625 1 109.50000 418.400000
7624 17581 7626 1 109.50000 418.400000
7624 17581 17582 1 109.50000 418.400000
7625 17581 7626 1 109.50000 418.400000
7625 17581 17582 1 109.50000 418.400000
7626 17581 17582 1 109.50000 418.400000
17581 17582 17583 1 115.00000 209.200000
3189 17584 6057 1 109.50000 418.400000
3189 17584 11251 1 109.50000 418.400000
3189 17584 17585 1 109.50000 418.400000
6057 17584 11251 1 109.50000 418.400000
6057 17584 17585 1 109.50000 418.400000
11251 17584 17585 1 109.50000 418.400000
17584 17585 17586 1 115.00000 209.200000
7661 17587 7662 1 109.50000 418.400000
7661 17587 11267 1 109.50000 418.400000
7661 17587 17588 1 109.50000 418.400000
7662 17587 11267 1 109.50000 418.400000
7662 17587 17588 1 109.50000 418.400000
11267 17587 17588 1 109.50000 418.400000
17587 17588 17589 1 115.00000 209.200000
6574 17590 7665 1 109.50000 418.400000
6574 17590 7666 1 109.50000 418.400000
6574 17590 17591 1 109.50000 418.400000
7665 17590 7666 1 109.50000 418.400000
7665 17590 17591 1 109.50000 418.400000
7666 17590 17591 1 109.50000 418.400000
17590 17591 17592 1 115.00000 209.200000
5041 17593 7687 1 109.50000 418.400000
5041 17593 7688 1 109.50000 418.400000
5041 17593 17594 1 109.50000 418.400000
7687 17593 7688 1 109.50000 418.400000
7687 17593 17594 1 109.50000 418.400000
7688 17593 17594 1 109.50000 418.400000
17593 17594 17595 1 115.00000 209.200000
3549 17596 7805 1 109.50000 418.400000
3549 17596 7806 1 109.50000 418.400000
3549 17596 17597 1 109.50000 418.400000
7805 17596 7806 1 109.50000 418.400000
7805 17596 17597 1 109.50000 418.400000
7806 17596 17597 1 109.50000 418.400000
17596 17597 17598 1 115.00000 209.200000
7812 17599 7813 1 109.50000 418.400000
7812 17599 11418 1 109.50000 418.400000
7812 17599 17600 1 109.50000 418.400000
7813 17599 11418 1 109.50000 418.400000
7813 17599 17600 1 109.50000 418.400000
11418 17599 17600 1 109.50000 418.400000
17599 17600 17601 1 115.00000 209.200000
2419 17602 3922 1 109.50000 418.400000
2419 17602 7908 1 109.50000 418.400000
2419 17602 17603 1 109.50000 418.400000
3922 17602 7908 1 109.50000 418.400000
3922 17602 17603 1 109.50000 418.400000
7908 17602 17603 1 109.50000 418.400000
17602 17603 17604 1 115.00000 209.200000
4207 17605 7945 1 109.50000 418.400000
4207 17605 11226 1 109.50000 418.400000
4207 17605 17606 1 109.50000 418.400000
7945 17605 11226 1 109.50000 418.400000
7945 17605 17606 1 109.50000 418.400000
11226 17605 17606 1 109.50000 418.400000
17605 17606 17607 1 115.00000 209.200000
4023 17608 5727 1 109.50000 418.400000
4023 17608 8081 1 109.50000 418.400000
4023 17608 17609 1 109.50000 418.400000
5727 17608 8081 1 109.50000 418.400000
5727 17608 17609 1 109.50000 418.400000
8081 17608 17609 1 109.50000 418.400000
17608 17609 17610 1 115.00000 209.200000
8091 17611 8092 1 109.50000 418.400000
8091 17611 8093 1 109.50000 418.400000
8091 17611 17612 1 109.50000 418.400000
8092 17611 8093 1 109.50000 418.400000
8092 17611 17612 1 109.50000 418.400000
8093 17611 17612 1 109.50000 418.400000
17611 17612 17613 1 115.00000 209.200000
2177 17614 4737 1 109.50000 418.400000
2177 17614 8153 1 109.50000 418.400000
2177 17614 17615 1 109.50000 418.400000
4737 17614 8153 1 109.50000 418.400000
4737 17614 17615 1 109.50000 418.400000
8153 17614 17615 1 109.50000 418.400000
17614 17615 17616 1 115.00000 209.200000
5561 17617 8198 1 109.50000 418.400000
5561 17617 11162 1 109.50000 418.400000
5561 17617 17618 1 109.50000 418.400000
8198 17617 11162 1 109.50000 418.400000
8198 17617 17618 1 109.50000 418.400000
11162 17617 17618 1 109.50000 418.400000
17617 17618 17619 1 115.00000 209.200000
5854 17620 7800 1 109.50000 418.400000
5854 17620 8247 1 109.50000 418.400000
5854 17620 17621 1 109.50000 418.400000
7800 17620 8247 1 109.50000 418.400000
7800 17620 17621 1 109.50000 418.400000
8247 17620 17621 1 109.50000 418.400000
17620 17621 17622 1 115.00000 209.200000
205 17623 1944 1 109.50000 418.400000
205 17623 11334 1 109.50000 418.400000
205 17623 17624 1 109.50000 418.400000
1944 17623 11334 1 109.50000 418.400000
1944 17623 17624 1 109.50000 418.400000
11334 17623 17624 1 109.50000 418.400000
17623 17624 17625 1 115.00000 209.200000
8276 17626 10397 1 109.50000 418.400000
8276 17626 11347 1 109.50000 418.400000
8276 17626 17627 1 109.50000 418.400000
10397 17626 11347 1 109.50000 418.400000
10397 17626 17627 1 109.50000 418.400000
11347 17626 17627 1 109.50000 418.400000
17626 17627 17628 1 115.00000 209.200000
6 17629 7818 1 109.50000 418.400000
6 17629 7819 1 109.50000 418.400000
6 17629 17630 1 109.50000 418.400000
7818 17629 7819 1 109.50000 418.400000
7818 17629 17630 1 109.50000 418.400000
7819 17629 17630 1 109.50000 418.400000
17629 17630 17631 1 115.00000 209.200000
943 17632 8371 1 109.50000 418.400000
943 17632 11246 1 109.50000 418.400000
943 17632 17633 1 109.50000 418.400000
8371 17632 11246 1 109.50000 418.400000
8371 17632 17633 1 109.50000 418.400000
11246 17632 17633 1 109.50000 418.400000
17632 17633 17634 1 115.00000 209.200000
4817 17635 7219 1 109.50000 418.400000
4817 17635 8381 1 109.50000 418.400000
4817 17635 17636 1 109.50000 418.400000
7219 17635 8381 1 109.50000 418.400000
7219 17635 17636 1 109.50000 418.400000
8381 17635 17636 1 109.50000 418.400000
17635 17636 17637 1 115.00000 209.200000
7805 17638 8404 1 109.50000 418.400000
7805 17638 8405 1 109.50000 418.400000
7805 17638 17639 1 109.50000 418.400000
8404 17638 8405 1 109.50000 418.400000
8404 17638 17639 1 109.50000 418.400000
8405 17638 17639 1 109.50000 418.400000
17638 17639 17640 1 115.00000 209.200000
601 17641 8459 1 109.50000 418.400000
601 17641 11387 1 109.50000 418.400000
601 17641 17642 1 109.50000 418.400000
8459 17641 11387 1 109.50000 418.400000
8459 17641 17642 1 109.50000 418.400000
11387 17641 17642 1 109.50000 418.400000
17641 17642 17643 1 115.00000 209.200000
1137 17644 4896 1 109.50000 418.400000
1137 17644 8492 1 109.50000 418.400000
1137 17644 17645 1 109.50000 418.400000
4896 17644 8492 1 109.50000 418.400000
4896 17644 17645 1 109.50000 418.400000
8492 17644 17645 1 109.50000 418.400000
17644 17645 17646 1 115.00000 209.200000
3773 17647 8511 1 109.50000 418.400000
3773 17647 8512 1 109.50000 418.400000
3773 17647 17648 1 109.50000 418.400000
8511 17647 8512 1 109.50000 418.400000
8511 17647 17648 1 109.50000 418.400000
8512 17647 17648 1 109.50000 418.400000
17647 17648 17649 1 115.00000 209.200000
46 17650 5848 1 109.50000 418.400000
46 17650 11249 1 109.50000 418.400000
46 17650 17651 1 109.50000 418.400000
5848 17650 11249 1 109.50000 418.400000
5848 17650 17651 1 109.50000 418.400000
11249 17650 17651 1 109.50000 418.400000
17650 17651 17652 1 115.00000 209.200000
4281 17653 8621 1 109.50000 418.400000
4281 17653 11291 1 109.50000 418.400000
4281 17653 17654 1 109.50000 418.400000
8621 17653 11291 1 109.50000 418.400000
8621 17653 17654 1 109.50000 418.400000
11291 17653 17654 1 109.50000 418.400000
17653 17654 17655 1 115.00000 209.200000
4419 17656 4577 1 109.50000 418.400000
4419 17656 11392 1 109.50000 418.400000
4419 17656 17657 1 109.50000 418.400000
4577 17656 11392 1 109.50000 418.400000
4577 17656 17657 1 109.50000 418.400000
11392 17656 17657 1 109.50000 418.400000
17656 17657 17658 1 115.00000 209.200000
8045 17659 8851 1 109.50000 418.400000
8045 17659 11419 1 109.50000 418.400000
8045 17659 17660 1 109.50000 418.400000
8851 17659 11419 1 109.50000 418.400000
8851 17659 17660 1 109.50000 418.400000
11419 17659 17660 1 109.50000 418.400000
17659 17660 17661 1 115.00000 209.200000
2246 17662 7770 1 109.50000 418.400000
2246 17662 11144 1 109.50000 418.400000
2246 17662 17663 1 109.50000 418.400000
7770 17662 11144 1 109.50000 418.400000
7770 17662 17663 1 109.50000 418.400000
11144 17662 17663 1 109.50000 418.400000
17662 17663 17664 1 115.00000 209.200000
5054 17665 8928 1 109.50000 418.400000
5054 17665 11239 1 109.50000 418.400000
5054 17665 17666 1 109.50000 418.400000
8928 17665 11239 1 109.50000 418.400000
8928 17665 17666 1 109.50000 418.400000
11239 17665 17666 1 109.50000 418.400000
17665 17666 17667 1 115.00000 209.200000
6310 17668 6568 1 109.50000 418.400000
6310 17668 8942 1 109.50000 418.400000
6310 17668 17669 1 109.50000 418.400000
6568 17668 8942 1 109.50000 418.400000
6568 17668 17669 1 109.50000 418.400000
8942 17668 17669 1 109.50000 418.400000
17668 17669 17670 1 115.00000 209.200000
3333 17671 3930 1 109.50000 418.400000
3333 17671 8975 1 109.50000 418.400000
3333 17671 17672 1 109.50000 418.400000
3930 17671 8975 1 109.50000 418.400000
3930 17671 17672 1 109.50000 418.400000
8975 17671 17672 1 109.50000 418.400000
17671 17672 17673 1 115.00000 209.200000
3772 17674 6488 1 109.50000 418.400000
3772 17674 8990 1 109.50000 418.400000
3772 17674 17675 1 109.50000 418.400000
6488 17674 8990 1 109.50000 418.400000
6488 17674 17675 1 109.50000 418.400000
8990 17674 17675 1 109.50000 418.400000
17674 17675 17676 1 115.00000 209.200000
3845 17677 4340 1 109.50000 418.400000
3845 17677 9010 1 109.50000 418.400000
3845 17677 17678 1 109.50000 418.400000
4340 17677 9010 1 109.50000 418.400000
4340 17677 17678 1 109.50000 418.400000
9010 17677 17678 1 109.50000 418.400000
17677 17678 17679 1 115.00000 209.200000
1563 17680 9054 1 109.50000 418.400000
1563 17680 9055 1 109.50000 418.400000
1563 17680 17681 1 109.50000 418.400000
9054 17680 9055 1 109.50000 418.400000
9054 17680 17681 1 109.50000 418.400000
9055 17680 17681 1 109.50000 418.400000
17680 17681 17682 1 115.00000 209.200000
9088 17683 9089 1 109.50000 418.400000
9088 17683 9090 1 109.50000 418.400000
9088 17683 17684 1 109.50000 418.400000
9089 17683 9090 1 109.50000 418.400000
9089 17683 17684 1 109.50000 418.400000
9090 17683 17684 1 109.50000 418.400000
17683 17684 17685 1 115.00000 209.200000
3223 17686 9139 1 109.50000 418.400000
3223 17686 9140 1 109.50000 418.400000
3223 17686 17687 1 109.50000 418.400000
9139 17686 9140 1 109.50000 418.400000
9139 17686 17687 1 109.50000 418.400000
9140 17686 17687 1 109.50000 418.400000
17686 17687 17688 1 115.00000 209.200000
5216 17689 7142 1 109.50000 418.400000
5216 17689 7842 1 109.50000 418.400000
5216 17689 17690 1 109.50000 418.400000
7142 17689 7842 1 109.50000 418.400000
7142 17689 17690 1 109.50000 418.400000
7842 17689 17690 1 109.50000 418.400000
17689 17690 17691 1 115.00000 209.200000
4391 17692 4392 1 109.50000 418.400000
4391 17692 7180 1 109.50000 418.400000
4391 17692 17693 1 109.50000 418.400000
4392 17692 7180 1 109.50000 418.400000
4392 17692 17693 1 109.50000 418.400000
7180 17692 17693 1 109.50000 418.400000
17692 17693 17694 1 115.00000 209.200000
306 17695 8635 1 109.50000 418.400000
306 17695 11340 1 109.50000 418.400000
306 17695 17696 1 109.50000 418.400000
8635 17695 11340 1 109.50000 418.400000
8635 17695 17696 1 109.50000 418.400000
11340 17695 17696 1 109.50000 418.400000
17695 17696 17697 1 115.00000 209.200000
2298 17698 9090 1 109.50000 418.400000
2298 17698 11170 1 109.50000 418.400000
2298 17698 17699 1 109.50000 418.400000
9090 17698 11170 1 109.50000 418.400000
9090 17698 17699 1 109.50000 418.400000
11170 17698 17699 1 109.50000 418.400000
17698 17699 17700 1 115.00000 209.200000
6335 17701 6384 1 109.50000 418.400000
6335 17701 9353 1 109.50000 418.400000
6335 17701 17702 1 109.50000 418.400000
6384 17701 9353 1 109.50000 418.400000
6384 17701 17702 1 109.50000 418.400000
9353 17701 17702 1 109.50000 418.400000
17701 17702 17703 1 115.00000 209.200000
442 17704 5141 1 109.50000 418.400000
442 17704 11383 1 109.50000 418.400000
442 17704 17705 1 109.50000 418.400000
5141 17704 11383 1 109.50000 418.400000
5141 17704 17705 1 109.50000 418.400000
11383 17704 17705 1 109.50000 418.400000
17704 17705 17706 1 115.00000 209.200000
4102 17707 9375 1 109.50000 418.400000
4102 17707 11223 1 109.50000 418.400000
4102 17707 17708 1 109.50000 418.400000
9375 17707 11223 1 109.50000 418.400000
9375 17707 17708 1 109.50000 418.400000
11223 17707 17708 1 109.50000 418.400000
17707 17708 17709 1 115.00000 209.200000
232 17710 6232 1 109.50000 418.400000
232 17710 9388 1 109.50000 418.400000
232 17710 17711 1 109.50000 418.400000
6232 17710 9388 1 109.50000 418.400000
6232 17710 17711 1 109.50000 418.400000
9388 17710 17711 1 109.50000 418.400000
17710 17711 17712 1 115.00000 209.200000
5257 17713 5448 1 109.50000 418.400000
5257 17713 11304 1 109.50000 418.400000
5257 17713 17714 1 109.50000 418.400000
5448 17713 11304 1 109.50000 418.400000
5448 17713 17714 1 109.50000 418.400000
11304 17713 17714 1 109.50000 418.400000
17713 17714 17715 1 115.00000 209.200000
2986 17716 4060 1 109.50000 418.400000
2986 17716 11229 1 109.50000 418.400000
2986 17716 17717 1 109.50000 418.400000
4060 17716 11229 1 109.50000 418.400000
4060 17716 17717 1 109.50000 418.400000
11229 17716 17717 1 109.50000 418.400000
17716 17717 17718 1 115.00000 209.200000
1960 17719 9622 1 109.50000 418.400000
1960 17719 11409 1 109.50000 418.400000
1960 17719 17720 1 109.50000 418.400000
9622 17719 11409 1 109.50000 418.400000
9622 17719 17720 1 109.50000 418.400000
11409 17719 17720 1 109.50000 418.400000
17719 17720 17721 1 115.00000 209.200000
8483 17722 9270 1 109.50000 418.400000
8483 17722 9271 1 109.50000 418.400000
8483 17722 17723 1 109.50000 418.400000
9270 17722 9271 1 109.50000 418.400000
9270 17722 17723 1 109.50000 418.400000
9271 17722 17723 1 109.50000 418.400000
17722 17723 17724 1 115.00000 209.200000
7126 17725 7862 1 109.50000 418.400000
7126 17725 9673 1 109.50000 418.400000
7126 17725 17726 1 109.50000 418.400000
7862 17725 9673 1 109.50000 418.400000
7862 17725 17726 1 109.50000 418.400000
9673 17725 17726 1 109.50000 418.400000
17725 17726 17727 1 115.00000 209.200000
314 17728 6889 1 109.50000 418.400000
314 17728 9690 1 109.50000 418.400000
314 17728 17729 1 109.50000 418.400000
6889 17728 9690 1 109.50000 418.400000
6889 17728 17729 1 109.50000 418.400000
9690 17728 17729 1 109.50000 418.400000
17728 17729 17730 1 115.00000 209.200000
5427 17731 8058 1 109.50000 418.400000
5427 17731 9727 1 109.50000 418.400000
5427 17731 17732 1 109.50000 418.400000
8058 17731 9727 1 109.50000 418.400000
8058 17731 17732 1 109.50000 418.400000
9727 17731 17732 1 109.50000 418.400000
17731 17732 17733 1 115.00000 209.200000
5173 17734 9032 1 109.50000 418.400000
5173 17734 11318 1 109.50000 418.400000
5173 17734 17735 1 109.50000 418.400000
9032 17734 11318 1 109.50000 418.400000
9032 17734 17735 1 109.50000 418.400000
11318 17734 17735 1 109.50000 418.400000
17734 17735 17736 1 115.00000 209.200000
783 17737 3119 1 109.50000 418.400000
783 17737 6172 1 109.50000 418.400000
783 17737 17738 1 109.50000 418.400000
3119 17737 6172 1 109.50000 418.400000
3119 17737 17738 1 109.50000 418.400000
6172 17737 17738 1 109.50000 418.400000
17737 17738 17739 1 115.00000 209.200000
395 17740 9825 1 109.50000 418.400000
395 17740 11363 1 109.50000 418.400000
395 17740 17741 1 109.50000 418.400000
9825 17740 11363 1 109.50000 418.400000
9825 17740 17741 1 109.50000 418.400000
11363 17740 17741 1 109.50000 418.400000
17740 17741 17742 1 115.00000 209.200000
481 17743 482 1 109.50000 418.400000
481 17743 5325 1 109.50000 418.400000
481 17743 17744 1 109.50000 418.400000
482 17743 5325 1 109.50000 418.400000
482 17743 17744 1 109.50000 418.400000
5325 17743 17744 1 109.50000 418.400000
17743 17744 17745 1 115.00000 209.200000
9903 17746 9904 1 109.50000 418.400000
9903 17746 9905 1 109.50000 418.400000
9903 17746 17747 1 109.50000 418.400000
9904 17746 9905 1 109.50000 418.400000
9904 17746 17747 1 109.50000 418.400000
9905 17746 17747 1 109.50000 418.400000
17746 17747 17748 1 115.00000 209.200000
3956 17749 4014 1 109.50000 418.400000
3956 17749 11339 1 109.50000 418.400000
3956 17749 17750 1 109.50000 418.400000
4014 17749 11339 1 109.50000 418.400000
4014 17749 17750 1 109.50000 418.400000
11339 17749 17750 1 109.50000 418.400000
17749 17750 17751 1 115.00000 209.200000
9423 17752 9962 1 109.50000 418.400000
9423 17752 9963 1 109.50000 418.400000
9423 17752 17753 1 109.50000 418.400000
9962 17752 9963 1 109.50000 418.400000
9962 17752 17753 1 109.50000 418.400000
9963 17752 17753 1 109.50000 418.400000
17752 17753 17754 1 115.00000 209.200000
5437 17755 8438 1 109.50000 418.400000
5437 17755 11179 1 109.50000 418.400000
5437 17755 17756 1 109.50000 418.400000
8438 17755 11179 1 109.50000 418.400000
8438 17755 17756 1 109.50000 418.400000
11179 17755 17756 1 109.50000 418.400000
17755 17756 17757 1 115.00000 209.200000
2148 17758 8296 1 109.50000 418.400000
2148 17758 11364 1 109.50000 418.400000
2148 17758 17759 1 109.50000 418.400000
8296 17758 11364 1 109.50000 418.400000
8296 17758 17759 1 109.50000 418.400000
11364 17758 17759 1 109.50000 418.400000
17758 17759 17760 1 115.00000 209.200000
9029 17761 10046 1 109.50000 418.400000
9029 17761 10047 1 109.50000 418.400000
9029 17761 17762 1 109.50000 418.400000
10046 17761 10047 1 109.50000 418.400000
10046 17761 17762 1 109.50000 418.400000
10047 17761 17762 1 109.50000 418.400000
17761 17762 17763 1 115.00000 209.200000
7546 17764 9792 1 109.50000 418.400000
7546 17764 10051 1 109.50000 418.400000
7546 17764 17765 1 109.50000 418.400000
9792 17764 10051 1 109.50000 418.400000
9792 17764 17765 1 109.50000 418.400000
10051 17764 17765 1 109.50000 418.400000
17764 17765 17766 1 115.00000 209.200000
1481 17767 3644 1 109.50000 418.400000
1481 17767 11403 1 109.50000 418.400000
1481 17767 17768 1 109.50000 418.400000
3644 17767 11403 1 109.50000 418.400000
3644 17767 17768 1 109.50000 418.400000
11403 17767 17768 1 109.50000 418.400000
17767 17768 17769 1 115.00000 209.200000
2700 17770 4994 1 109.50000 418.400000
2700 17770 10121 1 109.50000 418.400000
2700 17770 17771 1 109.50000 418.400000
4994 17770 10121 1 109.50000 418.400000
4994 17770 17771 1 109.50000 418.400000
10121 17770 17771 1 109.50000 418.400000
17770 17771 17772 1 115.00000 209.200000
2099 17773 10012 1 109.50000 418.400000
2099 17773 10165 1 109.50000 418.400000
2099 17773 17774 1 109.50000 418.400000
10012 17773 10165 1 109.50000 418.400000
10012 17773 17774 1 109.50000 418.400000
10165 17773 17774 1 109.50000 418.400000
17773 17774 17775 1 115.00000 209.200000
4494 17776 8043 1 109.50000 418.400000
4494 17776 8044 1 109.50000 418.400000
4494 17776 17777 1 109.50000 418.400000
8043 17776 8044 1 109.50000 418.400000
8043 17776 17777 1 109.50000 418.400000
8044 17776 17777 1 109.50000 418.400000
17776 17777 17778 1 115.00000 209.200000
2747 17779 9143 1 109.50000 418.400000
2747 17779 10185 1 109.50000 418.400000
2747 17779 17780 1 109.50000 418.400000
9143 17779 10185 1 109.50000 418.400000
9143 17779 17780 1 109.50000 418.400000
10185 17779 17780 1 109.50000 418.400000
17779 17780 17781 1 115.00000 209.200000
9269 17782 9492 1 109.50000 418.400000
9269 17782 10199 1 109.50000 418.400000
9269 17782 17783 1 109.50000 418.400000
9492 17782 10199 1 109.50000 418.400000
9492 17782 17783 1 109.50000 418.400000
10199 17782 17783 1 109.50000 418.400000
17782 17783 17784 1 115.00000 209.200000
2667 17785 7851 1 109.50000 418.400000
2667 17785 10230 1 109.50000 418.400000
2667 17785 17786 1 109.50000 418.400000
7851 17785 10230 1 109.50000 418.400000
7851 17785 17786 1 109.50000 418.400000
10230 17785 17786 1 109.50000 418.400000
17785 17786 17787 1 115.00000 209.200000
7365 17788 10048 1 109.50000 418.400000
7365 17788 10296 1 109.50000 418.400000
7365 17788 17789 1 109.50000 418.400000
10048 17788 10296 1 109.50000 418.400000
10048 17788 17789 1 109.50000 418.400000
10296 17788 17789 1 109.50000 418.400000
17788 17789 17790 1 115.00000 209.200000
4363 17791 9648 1 109.50000 418.400000
4363 17791 11378 1 109.50000 418.400000
4363 17791 17792 1 109.50000 418.400000
9648 17791 11378 1 109.50000 418.400000
9648 17791 17792 1 109.50000 418.400000
11378 17791 17792 1 109.50000 418.400000
17791 17792 17793 1 115.00000 209.200000
6492 17794 10307 1 109.50000 418.400000
6492 17794 11257 1 109.50000 418.400000
6492 17794 17795 1 109.50000 418.400000
10307 17794 11257 1 109.50000 418.400000
10307 17794 17795 1 109.50000 418.400000
11257 17794 17795 1 109.50000 418.400000
17794 17795 17796 1 115.00000 209.200000
4051 17797 10314 1 109.50000 418.400000
4051 17797 11265 1 109.50000 418.400000
4051 17797 17798 1 109.50000 418.400000
10314 17797 11265 1 109.50000 418.400000
10314 17797 17798 1 109.50000 418.400000
11265 17797 17798 1 109.50000 418.400000
17797 17798 17799 1 115.00000 209.200000
6642 17800 10330 1 109.50000 418.400000
6642 17800 11216 1 109.50000 418.400000
6642 17800 17801 1 109.50000 418.400000
10330 17800 11216 1 109.50000 418.400000
10330 17800 17801 1 109.50000 418.400000
11216 17800 17801 1 109.50000 418.400000
17800 17801 17802 1 115.00000 209.200000
18 17803 8294 1 109.50000 418.400000
18 17803 9011 1 109.50000 418.400000
18 17803 17804 1 109.50000 418.400000
8294 17803 9011 1 109.50000 418.400000
8294 17803 17804 1 109.50000 418.400000
9011 17803 17804 1 109.50000 418.400000
17803 17804 17805 1 115.00000 209.200000
178 17806 6130 1 109.50000 418.400000
178 17806 11394 1 109.50000 418.400000
178 17806 17807 1 109.50000 418.400000
6130 17806 11394 1 109.50000 418.400000
6130 17806 17807 1 109.50000 418.400000
11394 17806 17807 1 109.50000 418.400000
17806 17807 17808 1 115.00000 209.200000
1180 17809 2990 1 109.50000 418.400000
1180 17809 11379 1 109.50000 418.400000
1180 17809 17810 1 109.50000 418.400000
2990 17809 11379 1 109.50000 418.400000
2990 17809 17810 1 109.50000 418.400000
11379 17809 17810 1 109.50000 418.400000
17809 17810 17811 1 115.00000 209.200000
9456 17812 10397 1 109.50000 418.400000
9456 17812 11343 1 109.50000 418.400000
9456 17812 17813 1 109.50000 418.400000
10397 17812 11343 1 109.50000 418.400000
10397 17812 17813 1 109.50000 418.400000
11343 17812 17813 1 109.50000 418.400000
17812 17813 17814 1 115.00000 209.200000
9562 17815 10461 1 109.50000 418.400000
9562 17815 10462 1 109.50000 418.400000
9562 17815 17816 1 109.50000 418.400000
10461 17815 10462 1 109.50000 418.400000
10461 17815 17816 1 109.50000 418.400000
10462 17815 17816 1 109.50000 418.400000
17815 17816 17817 1 115.00000 209.200000
793 17818 10034 1 109.50000 418.400000
793 17818 10463 1 109.50000 418.400000
793 17818 17819 1 109.50000 418.400000
10034 17818 10463 1 109.50000 418.400000
10034 17818 17819 1 109.50000 418.400000
10463 17818 17819 1 109.50000 418.400000
17818 17819 17820 1 115.00000 209.200000
1755 17821 10306 1 109.50000 418.400000
1755 17821 10307 1 109.50000 418.400000
1755 17821 17822 1 109.50000 418.400000
10306 17821 10307 1 109.50000 418.400000
10306 17821 17822 1 109.50000 418.400000
10307 17821 17822 1 109.50000 418.400000
17821 17822 17823 1 115.00000 209.200000
8363 17824 9558 1 109.50000 418.400000
8363 17824 11376 1 109.50000 418.400000
8363 17824 17825 1 109.50000 418.400000
9558 17824 11376 1 109.50000 418.400000
9558 17824 17825 1 109.50000 418.400000
11376 17824 17825 1 109.50000 418.400000
17824 17825 17826 1 115.00000 209.200000
1021 17827 9602 1 109.50000 418.400000
1021 17827 9828 1 109.50000 418.400000
1021 17827 17828 1 109.50000 418.400000
9602 17827 9828 1 109.50000 418.400000
9602 17827 17828 1 109.50000 418.400000
9828 17827 17828 1 109.50000 418.400000
17827 17828 17829 1 115.00000 209.200000
6235 17830 9622 1 109.50000 418.400000
6235 17830 11351 1 109.50000 418.400000
6235 17830 17831 1 109.50000 418.400000
9622 17830 11351 1 109.50000 418.400000
9622 17830 17831 1 109.50000 418.400000
11351 17830 17831 1 109.50000 418.400000
17830 17831 17832 1 115.00000 209.200000
1635 17833 10513 1 109.50000 418.400000
1635 17833 10514 1 109.50000 418.400000
1635 17833 17834 1 109.50000 418.400000
10513 17833 10514 1 109.50000 418.400000
10513 17833 17834 1 109.50000 418.400000
10514 17833 17834 1 109.50000 418.400000
17833 17834 17835 1 115.00000 209.200000
5592 17836 9575 1 109.50000 418.400000
5592 17836 9642 1 109.50000 418.400000
5592 17836 17837 1 109.50000 418.400000
9575 17836 9642 1 109.50000 418.400000
9575 17836 17837 1 109.50000 418.400000
9642 17836 17837 1 109.50000 418.400000
17836 17837 17838 1 115.00000 209.200000
1040 17839 7285 1 109.50000 418.400000
1040 17839 10587 1 109.50000 418.400000
1040 17839 17840 1 109.50000 418.400000
7285 17839 10587 1 109.50000 418.400000
7285 17839 17840 1 109.50000 418.400000
10587 17839 17840 1 109.50000 418.400000
17839 17840 17841 1 115.00000 209.200000
6267 17842 6988 1 109.50000 418.400000
6267 17842 10626 1 109.50000 418.400000
6267 17842 17843 1 109.50000 418.400000
6988 17842 10626 1 109.50000 418.400000
6988 17842 17843 1 109.50000 418.400000
10626 17842 17843 1 109.50000 418.400000
17842 17843 17844 1 115.00000 209.200000
3071 17845 7376 1 109.50000 418.400000
3071 17845 9183 1 109.50000 418.400000
3071 17845 17846 1 109.50000 418.400000
7376 17845 9183 1 109.50000 418.400000
7376 17845 17846 1 109.50000 418.400000
9183 17845 17846 1 109.50000 418.400000
17845 17846 17847 1 115.00000 209.200000
4050 17848 10033 1 109.50000 418.400000
4050 17848 11406 1 109.50000 418.400000
4050 17848 17849 1 109.50000 418.400000
10033 17848 11406 1 109.50000 418.400000
10033 17848 17849 1 109.50000 418.400000
11406 17848 17849 1 109.50000 418.400000
17848 17849 17850 1 115.00000 209.200000
4018 17851 4082 1 109.50000 418.400000
4018 17851 10560 1 109.50000 418.400000
4018 17851 17852 1 109.50000 418.400000
4082 17851 10560 1 109.50000 418.400000
4082 17851 17852 1 109.50000 418.400000
10560 17851 17852 1 109.50000 418.400000
17851 17852 17853 1 115.00000 209.200000
10409 17854 10694 1 109.50000 418.400000
10409 17854 11207 1 109.50000 418.400000
10409 17854 17855 1 109.50000 418.400000
10694 17854 11207 1 109.50000 418.400000
10694 17854 17855 1 109.50000 418.400000
11207 17854 17855 1 109.50000 418.400000
17854 17855 17856 1 115.00000 209.200000
1969 17857 3039 1 109.50000 418.400000
1969 17857 11354 1 109.50000 418.400000
1969 17857 17858 1 109.50000 418.400000
3039 17857 11354 1 109.50000 418.400000
3039 17857 17858 1 109.50000 418.400000
11354 17857 17858 1 109.50000 418.400000
17857 17858 17859 1 115.00000 209.200000
9210 17860 10742 1 109.50000 418.400000
9210 17860 10743 1 109.50000 418.400000
9210 17860 17861 1 109.50000 418.400000
10742 17860 10743 1 109.50000 418.400000
10742 17860 17861 1 109.50000 418.400000
10743 17860 17861 1 109.50000 418.400000
17860 17861 17862 1 115.00000 209.200000
6901 17863 10756 1 109.50000 418.400000
6901 17863 10757 1 109.50000 418.400000
6901 17863 17864 1 109.50000 418.400000
10756 17863 10757 1 109.50000 418.400000
10756 17863 17864 1 109.50000 418.400000
10757 17863 17864 1 109.50000 418.400000
17863 17864 17865 1 115.00000 209.200000
1327 17866 10140 1 109.50000 418.400000
1327 17866 11331 1 109.50000 418.400000
1327 17866 17867 1 109.50000 418.400000
10140 17866 11331 1 109.50000 418.400000
10140 17866 17867 1 109.50000 418.400000
11331 17866 17867 1 109.50000 418.400000
17866 17867 17868 1 115.00000 209.200000
2569 17869 9993 1 109.50000 418.400000
2569 17869 10450 1 109.50000 418.400000
2569 17869 17870 1 109.50000 418.400000
9993 17869 10450 1 109.50000 418.400000
9993 17869 17870 1 109.50000 418.400000
10450 17869 17870 1 109.50000 418.400000
17869 17870 17871 1 115.00000 209.200000
417 17872 9344 1 109.50000 418.400000
417 17872 10804 1 109.50000 418.400000
417 17872 17873 1 109.50000 418.400000
9344 17872 10804 1 109.50000 418.400000
9344 17872 17873 1 109.50000 418.400000
10804 17872 17873 1 109.50000 418.400000
17872 17873 17874 1 115.00000 209.200000
1951 17875 8851 1 109.50000 418.400000
1951 17875 10674 1 109.50000 418.400000
1951 17875 17876 1 109.50000 418.400000
8851 17875 10674 1 109.50000 418.400000
8851 17875 17876 1 109.50000 418.400000
10674 17875 17876 1 109.50000 418.400000
17875 17876 17877 1 115.00000 209.200000
6517 17878 6519 1 109.50000 418.400000
6517 17878 7094 1 109.50000 418.400000
6517 17878 17879 1 109.50000 418.400000
6519 17878 7094 1 109.50000 418.400000
6519 17878 17879 1 109.50000 418.400000
7094 17878 17879 1 109.50000 418.400000
17878 17879 17880 1 115.00000 209.200000
8234 17881 9048 1 109.50000 418.400000
8234 17881 11280 1 109.50000 418.400000
8234 17881 17882 1 109.50000 418.400000
9048 17881 11280 1 109.50000 418.400000
9048 17881 17882 1 109.50000 418.400000
11280 17881 17882 1 109.50000 418.400000
17881 17882 17883 1 115.00000 209.200000
8497 17884 9348 1 109.50000 418.400000
8497 17884 11146 1 109.50000 418.400000
8497 17884 17885 1 109.50000 418.400000
9348 17884 11146 1 109.50000 418.400000
9348 17884 17885 1 109.50000 418.400000
11146 17884 17885 1 109.50000 418.400000
17884 17885 17886 1 115.00000 209.200000
7287 17887 7288 1 109.50000 418.400000
7287 17887 9990 1 109.50000 418.400000
7287 17887 17888 1 109.50000 418.400000
7288 17887 9990 1 109.50000 418.400000
7288 17887 17888 1 109.50000 418.400000
9990 17887 17888 1 109.50000 418.400000
17887 17888 17889 1 115.00000 209.200000
4150 17890 8405 1 109.50000 418.400000
4150 17890 11221 1 109.50000 418.400000
4150 17890 17891 1 109.50000 418.400000
8405 17890 11221 1 109.50000 418.400000
8405 17890 17891 1 109.50000 418.400000
11221 17890 17891 1 109.50000 418.400000
17890 17891 17892 1 115.00000 209.200000
6997 17893 8822 1 109.50000 418.400000
6997 17893 10551 1 109.50000 418.400000
6997 17893 17894 1 109.50000 418.400000
8822 17893 10551 1 109.50000 418.400000
8822 17893 17894 1 109.50000 418.400000
10551 17893 17894 1 109.50000 418.400000
17893 17894 17895 1 115.00000 209.200000
2490 17896 7612 1 109.50000 418.400000
2490 17896 7613 1 109.50000 418.400000
2490 17896 17897 1 109.50000 418.400000
7612 17896 7613 1 109.50000 418.400000
7612 17896 17897 1 109.50000 418.400000
7613 17896 17897 1 109.50000 418.400000
17896 17897 17898 1 115.00000 209.200000
10868 17899 10869 1 109.50000 418.400000
10868 17899 11373 1 109.50000 418.400000
10868 17899 17900 1 109.50000 418.400000
10869 17899 11373 1 109.50000 418.400000
10869 17899 17900 1 109.50000 418.400000
11373 17899 17900 1 109.50000 418.400000
17899 17900 17901 1 115.00000 209.200000
6913 17902 7711 1 109.50000 418.400000
6913 17902 7861 1 109.50000 418.400000
6913 17902 17903 1 109.50000 418.400000
7711 17902 7861 1 109.50000 418.400000
7711 17902 17903 1 109.50000 418.400000
7861 17902 17903 1 109.50000 418.400000
17902 17903 17904 1 115.00000 209.200000
4209 17905 5092 1 109.50000 418.400000
4209 17905 9927 1 109.50000 418.400000
4209 17905 17906 1 109.50000 418.400000
5092 17905 9927 1 109.50000 418.400000
5092 17905 17906 1 109.50000 418.400000
9927 17905 17906 1 109.50000 418.400000
17905 17906 17907 1 115.00000 209.200000
348 17908 349 1 109.50000 418.400000
348 17908 350 1 109.50000 418.400000
348 17908 17909 1 109.50000 418.400000
349 17908 350 1 109.50000 418.400000
349 17908 17909 1 109.50000 418.400000
350 17908 17909 1 109.50000 418.400000
17908 17909 17910 1 115.00000 209.200000
2110 17911 5221 1 109.50000 418.400000
2110 17911 10907 1 109.50000 418.400000
2110 17911 17912 1 109.50000 418.400000
5221 17911 10907 1 109.50000 418.400000
5221 17911 17912 1 109.50000 418.400000
10907 17911 17912 1 109.50000 418.400000
17911 17912 17913 1 115.00000 209.200000
4041 17914 8961 1 109.50000 418.400000
4041 17914 10146 1 109.50000 418.400000
4041 17914 17915 1 109.50000 418.400000
8961 17914 10146 1 109.50000 418.400000
8961 17914 17915 1 109.50000 418.400000
10146 17914 17915 1 109.50000 418.400000
17914 17915 17916 1 115.00000 209.200000
1684 17917 5566 1 109.50000 418.400000
1684 17917 11326 1 109.50000 418.400000
1684 17917 17918 1 109.50000 418.400000
5566 17917 11326 1 109.50000 418.400000
5566 17917 17918 1 109.50000 418.400000
11326 17917 17918 1 109.50000 418.400000
17917 17918 17919 1 115.00000 209.200000
2009 17920 10063 1 109.50000 418.400000
2009 17920 11174 1 109.50000 418.400000
2009 17920 17921 1 109.50000 418.400000
10063 17920 11174 1 109.50000 418.400000
10063 17920 17921 1 109.50000 418.400000
11174 17920 17921 1 109.50000 418.400000
17920 17921 17922 1 115.00000 209.200000
3347 17923 10567 1 109.50000 418.400000
3347 17923 11186 1 109.50000 418.400000
3347 17923 17924 1 109.50000 418.400000
10567 17923 11186 1 109.50000 418.400000
10567 17923 17924 1 109.50000 418.400000
11186 17923 17924 1 109.50000 418.400000
17923 17924 17925 1 115.00000 209.200000
8412 17926 10940 1 109.50000 418.400000
8412 17926 11300 1 109.50000 418.400000
8412 17926 17927 1 109.50000 418.400000
10940 17926 11300 1 109.50000 418.400000
10940 17926 17927 1 109.50000 418.400000
11300 17926 17927 1 109.50000 418.400000
17926 17927 17928 1 115.00000 209.200000
10049 17929 10949 1 109.50000 418.400000
10049 17929 10950 1 109.50000 418.400000
10049 17929 17930 1 109.50000 418.400000
10949 17929 10950 1 109.50000 418.400000
10949 17929 17930 1 109.50000 418.400000
10950 17929 17930 1 109.50000 418.400000
17929 17930 17931 1 115.00000 209.200000
4955 17932 8067 1 109.50000 418.400000
4955 17932 10686 1 109.50000 418.400000
4955 17932 17933 1 109.50000 418.400000
8067 17932 10686 1 109.50000 418.400000
8067 17932 17933 1 109.50000 418.400000
10686 17932 17933 1 109.50000 418.400000
17932 17933 17934 1 115.00000 209.200000
10678 17935 10964 1 109.50000 418.400000
10678 17935 10965 1 109.50000 418.400000
10678 17935 17936 1 109.50000 418.400000
10964 17935 10965 1 109.50000 418.400000
10964 17935 17936 1 109.50000 418.400000
10965 17935 17936 1 109.50000 418.400000
17935 17936 17937 1 115.00000 209.200000
1623 17938 9645 1 109.50000 418.400000
1623 17938 11032 1 109.50000 418.400000
1623 17938 17939 1 109.50000 418.400000
9645 17938 11032 1 109.50000 418.400000
9645 17938 17939 1 109.50000 418.400000
11032 17938 17939 1 109.50000 418.400000
17938 17939 17940 1 115.00000 209.200000
6251 17941 10923 1 109.50000 418.400000
6251 17941 11214 1 109.50000 418.400000
6251 17941 17942 1 109.50000 418.400000
10923 17941 11214 1 109.50000 418.400000
10923 17941 17942 1 109.50000 418.400000
11214 17941 17942 1 109.50000 418.400000
17941 17942 17943 1 115.00000 209.200000
652 17944 3221 1 109.50000 418.400000
652 17944 11293 1 109.50000 418.400000
652 17944 17945 1 109.50000 418.400000
3221 17944 11293 1 109.50000 418.400000
3221 17944 17945 1 109.50000 418.400000
11293 17944 17945 1 109.50000 418.400000
17944 17945 17946 1 115.00000 209.200000
1644 17947 6386 1 109.50000 418.400000
1644 17947 10906 1 109.50000 418.400000
1644 17947 17948 1 109.50000 418.400000
6386 17947 10906 1 109.50000 418.400000
6386 17947 17948 1 109.50000 418.400000
10906 17947 17948 1 109.50000 418.400000
17947 17948 17949 1 115.00000 209.200000
1260 17950 4517 1 109.50000 418.400000
1260 17950 9202 1 109.50000 418.400000
1260 17950 17951 1 109.50000 418.400000
4517 17950 9202 1 109.50000 418.400000
4517 17950 17951 1 109.50000 418.400000
9202 17950 17951 1 109.50000 418.400000
17950 17951 17952 1 115.00000 209.200000
7813 17953 10355 1 109.50000 418.400000
7813 17953 11357 1 109.50000 418.400000
7813 17953 17954 1 109.50000 418.400000
10355 17953 11357 1 109.50000 418.400000
10355 17953 17954 1 109.50000 418.400000
11357 17953 17954 1 109.50000 418.400000
17953 17954 17955 1 115.00000 209.200000
245 17956 1120 1 109.50000 418.400000
245 17956 10790 1 109.50000 418.400000
245 17956 17957 1 109.50000 418.400000
1120 17956 10790 1 109.50000 418.400000
1120 17956 17957 1 109.50000 418.400000
10790 17956 17957 1 109.50000 418.400000
17956 17957 17958 1 115.00000 209.200000
6150 17959 7638 1 109.50000 418.400000
6150 17959 11014 1 109.50000 418.400000
6150 17959 17960 1 109.50000 418.400000
7638 17959 11014 1 109.50000 418.400000
7638 17959 17960 1 109.50000 418.400000
11014 17959 17960 1 109.50000 418.400000
17959 17960 17961 1 115.00000 209.200000
1224 17962 4238 1 109.50000 418.400000
1224 17962 8760 1 109.50000 418.400000
1224 17962 17963 1 109.50000 418.400000
4238 17962 8760 1 109.50000 418.400000
4238 17962 17963 1 109.50000 418.400000
8760 17962 17963 1 109.50000 418.400000
17962 17963 17964 1 115.00000 209.200000
4779 17965 6100 1 109.50000 418.400000
4779 17965 9541 1 109.50000 418.400000
4779 17965 17966 1 109.50000 418.400000
6100 17965 9541 1 109.50000 418.400000
6100 17965 17966 1 109.50000 418.400000
9541 17965 17966 1 109.50000 418.400000
17965 17966 17967 1 115.00000 209.200000
1984 17968 3195 1 109.50000 418.400000
1984 17968 10747 1 109.50000 418.400000
1984 17968 17969 1 109.50000 418.400000
3195 17968 10747 1 109.50000 418.400000
3195 17968 17969 1 109.50000 418.400000
10747 17968 17969 1 109.50000 418.400000
17968 17969 17970 1 115.00000 209.200000
2780 17971 4587 1 109.50000 418.400000
2780 17971 11187 1 109.50000 418.400000
2780 17971 17972 1 109.50000 418.400000
4587 17971 11187 1 109.50000 418.400000
4587 17971 17972 1 109.50000 418.400000
11187 17971 17972 1 109.50000 418.400000
17971 17972 17973 1 115.00000 209.200000
6567 17974 9576 1 109.50000 418.400000
6567 17974 10603 1 109.50000 418.400000
6567 17974 17975 1 109.50000 418.400000
9576 17974 10603 1 109.50000 418.400000
9576 17974 17975 1 109.50000 418.400000
10603 17974 17975 1 109.50000 418.400000
17974 17975 17976 1 115.00000 209.200000
3353 17977 10075 1 109.50000 418.400000
3353 17977 10974 1 109.50000 418.400000
3353 17977 17978 1 109.50000 418.400000
10075 17977 10974 1 109.50000 418.400000
10075 17977 17978 1 109.50000 418.400000
10974 17977 17978 1 109.50000 418.400000
17977 17978 17979 1 115.00000 209.200000
10222 17980 11032 1 109.50000 418.400000
10222 17980 11141 1 109.50000 418.400000
10222 17980 17981 1 109.50000 418.400000
11032 17980 11141 1 109.50000 418.400000
11032 17980 17981 1 109.50000 418.400000
11141 17980 17981 1 109.50000 418.400000
17980 17981 17982 1 115.00000 209.200000
1922 17983 5841 1 109.50000 418.400000
1922 17983 6262 1 109.50000 418.400000
1922 17983 17984 1 109.50000 418.400000
5841 17983 6262 1 109.50000 418.400000
5841 17983 17984 1 109.50000 418.400000
6262 17983 17984 1 109.50000 418.400000
17983 17984 17985 1 115.00000 209.200000
785 17986 3463 1 109.50000 418.400000
785 17986 6500 1 109.50000 418.400000
785 17986 17987 1 109.50000 418.400000
3463 17986 6500 1 109.50000 418.400000
3463 17986 17987 1 109.50000 418.400000
6500 17986 17987 1 109.50000 418.400000
17986 17987 17988 1 115.00000 209.200000
6341 17989 7990 1 109.50000 418.400000
6341 17989 11125 1 109.50000 418.400000
6341 17989 17990 1 109.50000 418.400000
7990 17989 11125 1 109.50000 418.400000
7990 17989 17990 1 109.50000 418.400000
11125 17989 17990 1 109.50000 418.400000
17989 17990 17991 1 115.00000 209.200000
3569 17992 8097 1 109.50000 418.400000
3569 17992 11375 1 109.50000 418.400000
3569 17992 17993 1 109.50000 418.400000
8097 17992 11375 1 109.50000 418.400000
8097 17992 17993 1 109.50000 418.400000
11375 17992 17993 1 109.50000 418.400000
17992 17993 17994 1 115.00000 209.200000
122 17995 867 1 109.50000 418.400000
122 17995 10945 1 109.50000 418.400000
122 17995 17996 1 109.50000 418.400000
867 17995 10945 1 109.50000 418.400000
867 17995 17996 1 109.50000 418.400000
10945 17995 17996 1 109.50000 418.400000
17995 17996 17997 1 115.00000 209.200000
3736 17998 7627 1 109.50000 418.400000
3736 17998 9844 1 109.50000 418.400000
3736 17998 17999 1 109.50000 418.400000
7627 17998 9844 1 109.50000 418.400000
7627 17998 17999 1 109.50000 418.400000
9844 17998 17999 1 109.50000 418.400000
17998 17999 18000 1 115.00000 209.200000
5997 18001 10786 1 109.50000 418.400000
5997 18001 11311 1 109.50000 418.400000
5997 18001 18002 1 109.50000 418.400000
10786 18001 11311 1 109.50000 418.400000
10786 18001 18002 1 109.50000 418.400000
11311 18001 18002 1 109.50000 418.400000
18001 18002 18003 1 115.00000 209.200000
1476 18004 1477 1 109.50000 418.400000
1476 18004 18005 1 109.50000 418.400000
1476 18004 18007 1 109.50000 418.400000
1477 18004 18005 1 109.50000 418.400000
1477 18004 18007 1 109.50000 418.400000
18005 18004 18007 1 109.50000 418.400000
18004 18005 18006 1 115.00000 209.200000
18004 18007 18008 1 115.00000 209.200000
374 18009 1718 1 109.50000 418.400000
374 18009 18010 1 109.50000 418.400000
374 18009 18012 1 109.50000 418.400000
1718 18009 18010 1 109.50000 418.400000
1718 18009 18012 1 109.50000 418.400000
18010 18009 18012 1 109.50000 418.400000
18009 18010 18011 1 115.00000 209.200000
18009 18012 18013 1 115.00000 209.200000
1866 18014 1867 1 109.50000 418.400000
1866 18014 18015 1 109.50000 418.400000
1866 18014 18017 1 109.50000 418.400000
1867 18014 18015 1 109.50000 418.400000
1867 18014 18017 1 109.50000 418.400000
18015 18014 18017 1 109.50000 418.400000
18014 18015 18016 1 115.00000 209.200000
18014 18017 18018 1 115.00000 209.200000
2107 18019 2108 1 109.50000 418.400000
2107 18019 18020 1 109.50000 418.400000
2107 18019 18022 1 109.50000 418.400000
2108 18019 18020 1 109.50000 418.400000
2108 18019 18022 1 109.50000 418.400000
18020 18019 18022 1 109.50000 418.400000
18019 18020 18021 1 115.00000 209.200000
18019 18022 18023 1 115.00000 209.200000
2500 18024 2501 1 109.50000 418.400000
2500 18024 18025 1 109.50000 418.400000
2500 18024 18027 1 109.50000 418.400000
2501 18024 18025 1 109.50000 418.400000
2501 18024 18027 1 109.50000 418.400000
18025 18024 18027 1 109.50000 418.400000
18024 18025 18026 1 115.00000 209.200000
18024 18027 18028 1 115.00000 209.200000
3223 18029 3224 1 109.50000 418.400000
3223 18029 18030 1 109.50000 418.400000
3223 18029 18032 1 109.50000 418.400000
3224 18029 18030 1 109.50000 418.400000
3224 18029 18032 1 109.50000 418.400000
18030 18029 18032 1 109.50000 418.400000
18029 18030 18031 1 115.00000 209.200000
18029 18032 18033 1 115.00000 209.200000
4815 18034 4816 1 109.50000 418.400000
4815 18034 18035 1 109.50000 418.400000
4815 18034 18037 1 109.50000 418.400000
4816 18034 18035 1 109.50000 418.400000
4816 18034 18037 1 109.50000 418.400000
18035 18034 18037 1 109.50000 418.400000
18034 18035 18036 1 115.00000 209.200000
18034 18037 18038 1 115.00000 209.200000
1414 18039 4971 1 109.50000 418.400000
1414 18039 18040 1 109.50000 418.400000
1414 18039 18042 1 109.50000 418.400000
4971 18039 18040 1 109.50000 418.400000
4971 18039 18042 1 109.50000 418.400000
18040 18039 18042 1 109.50000 418.400000
18039 18040 18041 1 115.00000 209.200000
18039 18042 18043 1 115.00000 209.200000
5540 18044 5541 1 109.50000 418.400000
5540 18044 18045 1 109.50000 418.400000
5540 18044 18047 1 109.50000 418.400000
5541 18044 18045 1 109.50000 418.400000
5541 18044 18047 1 109.50000 418.400000
18045 18044 18047 1 109.50000 418.400000
18044 18045 18046 1 115.00000 209.200000
18044 18047 18048 1 115.00000 209.200000
5472 18049 6051 1 109.50000 418.400000
5472 18049 18050 1 109.50000 418.400000
5472 18049 18052 1 109.50000 418.400000
6051 18049 18050 1 109.50000 418.400000
6051 18049 18052 1 109.50000 418.400000
18050 18049 18052 1 109.50000 418.400000
18049 18050 18051 1 115.00000 209.200000
18049 18052 18053 1 115.00000 209.200000
1450 18054 6725 1 109.50000 418.400000
1450 18054 18055 1 109.50000 418.400000
1450 18054 18057 1 109.50000 418.400000
6725 18054 18055 1 109.50000 418.400000
6725 18054 18057 1 109.50000 418.400000
18055 18054 18057 1 109.50000 418.400000
18054 18055 18056 1 115.00000 209.200000
18054 18057 18058 1 115.00000 209.200000
285 18059 6031 1 109.50000 418.400000
285 18059 18060 1 109.50000 418.400000
285 18059 18062 1 109.50000 418.400000
6031 18059 18060 1 109.50000 418.400000
6031 18059 18062 1 109.50000 418.400000
18060 18059 18062 1 109.50000 418.400000
18059 18060 18061 1 115.00000 209.200000
18059 18062 18063 1 115.00000 209.200000
2432 18064 2433 1 109.50000 418.400000
2432 18064 18065 1 109.50000 418.400000
2432 18064 18067 1 109.50000 418.400000
2433 18064 18065 1 109.50000 418.400000
2433 18064 18067 1 109.50000 418.400000
18065 18064 18067 1 109.50000 418.400000
18064 18065 18066 1 115.00000 209.200000
18064 18067 18068 1 115.00000 209.200000
5845 18069 7559 1 109.50000 418.400000
5845 18069 18070 1 109.50000 418.400000
5845 18069 18072 1 109.50000 418.400000
7559 18069 18070 1 109.50000 418.400000
7559 18069 18072 1 109.50000 418.400000
18070 18069 18072 1 109.50000 418.400000
18069 18070 18071 1 115.00000 209.200000
18069 18072 18073 1 115.00000 209.200000
24 18074 8067 1 109.50000 418.400000
24 18074 18075 1 109.50000 418.400000
24 18074 18077 1 109.50000 418.400000
8067 18074 18075 1 109.50000 418.400000
8067 18074 18077 1 109.50000 418.400000
18075 18074 18077 1 109.50000 418.400000
18074 18075 18076 1 115.00000 209.200000
18074 18077 18078 1 115.00000 209.200000
775 18079 8265 1 109.50000 418.400000
775 18079 18080 1 109.50000 418.400000
775 18079 18082 1 109.50000 418.400000
8265 18079 18080 1 109.50000 418.400000
8265 18079 18082 1 109.50000 418.400000
18080 18079 18082 1 109.50000 418.400000
18079 18080 18081 1 115.00000 209.200000
18079 18082 18083 1 115.00000 209.200000
8288 18084 8289 1 109.50000 418.400000
8288 18084 18085 1 109.50000 418.400000
8288 18084 18087 1 109.50000 418.400000
8289 18084 18085 1 109.50000 418.400000
8289 18084 18087 1 109.50000 418.400000
18085 18084 18087 1 109.50000 418.400000
18084 18085 18086 1 115.00000 209.200000
18084 18087 18088 1 115.00000 209.200000
1772 18089 7302 1 109.50000 418.400000
1772 18089 18090 1 109.50000 418.400000
1772 18089 18092 1 109.50000 418.400000
7302 18089 18090 1 109.50000 418.400000
7302 18089 18092 1 109.50000 418.400000
18090 18089 18092 1 109.50000 418.400000
18089 18090 18091 1 115.00000 209.200000
18089 18092 18093 1 115.00000 209.200000
7286 18094 8822 1 109.50000 418.400000
7286 18094 18095 1 109.50000 418.400000
7286 18094 18097 1 109.50000 418.400000
8822 18094 18095 1 109.50000 418.400000
8822 18094 18097 1 109.50000 418.400000
18095 18094 18097 1 109.50000 418.400000
18094 18095 18096 1 115.00000 209.200000
18094 18097 18098 1 115.00000 209.200000
61 18099 8916 1 109.50000 418.400000
61 18099 18100 1 109.50000 418.400000
61 18099 18102 1 109.50000 418.400000
8916 18099 18100 1 109.50000 418.400000
8916 18099 18102 1 109.50000 418.400000
18100 18099 18102 1 109.50000 418.400000
18099 18100 18101 1 115.00000 209.200000
18099 18102 18103 1 115.00000 209.200000
8173 18104 9098 1 109.50000 418.400000
8173 18104 18105 1 109.50000 418.400000
8173 18104 18107 1 109.50000 418.400000
9098 18104 18105 1 109.50000 418.400000
9098 18104 18107 1 109.50000 418.400000
18105 18104 18107 1 109.50000 418.400000
18104 18105 18106 1 115.00000 209.200000
18104 18107 18108 1 115.00000 209.200000
6737 18109 9405 1 109.50000 418.400000
6737 18109 18110 1 109.50000 418.400000
6737 18109 18112 1 109.50000 418.400000
9405 18109 18110 1 109.50000 418.400000
9405 18109 18112 1 109.50000 418.400000
18110 18109 18112 1 109.50000 418.400000
18109 18110 18111 1 115.00000 209.200000
18109 18112 18113 1 115.00000 209.200000
2624 18114 10143 1 109.50000 418.400000
2624 18114 18115 1 109.50000 418.400000
2624 18114 18117 1 109.50000 418.400000
10143 18114 18115 1 109.50000 418.400000
10143 18114 18117 1 109.50000 418.400000
18115 18114 18117 1 109.50000 418.400000
18114 18115 18116 1 115.00000 209.200000
18114 18117 18118 1 115.00000 209.200000
10433 18119 10815 1 109.50000 418.400000
10433 18119 18120 1 109.50000 418.400000
10433 18119 18122 1 109.50000 418.400000
10815 18119 18120 1 109.50000 418.400000
10815 18119 18122 1 109.50000 418.400000
18120 18119 18122 1 109.50000 418.400000
18119 18120 18121 1 115.00000 209.200000
18119 18122 18123 1 115.00000 209.200000
9691 18124 10852 1 109.50000 418.400000
9691 18124 18125 1 109.50000 418.400000
9691 18124 18127 1 109.50000 418.400000
10852 18124 18125 1 109.50000 418.400000
10852 18124 18127 1 109.50000 418.400000
18125 18124 18127 1 109.50000 418.400000
18124 18125 18126 1 115.00000 209.200000
18124 18127 18128 1 115.00000 209.200000
8865 18129 9164 1 109.50000 418.400000
8865 18129 18130 1 109.50000 418.400000
8865 18129 18132 1 109.50000 418.400000
9164 18129 18130 1 109.50000 418.400000
9164 18129 18132 1 109.50000 418.400000
18130 18129 18132 1 109.50000 418.400000
18129 18130 18131 1 115.00000 209.200000
18129 18132 18133 1 115.00000 209.200000
8841 18134 10957 1 109.50000 418.400000
8841 18134 18135 1 109.50000 418.400000
8841 18134 18137 1 109.50000 418.400000
10957 18134 18135 1 109.50000 418.400000
10957 18134 18137 1 109.50000 418.400000
18135 18134 18137 1 109.50000 418.400000
18134 18135 18136 1 115.00000 209.200000
18134 18137 18138 1 115.00000 209.200000
