Merged slit + ring-check filtered guest
66638
    1OM     OM1    1   3.802   2.983   0.273  0.0000  0.0000  0.0000
    2OM     OM1    2   3.885   2.800   0.429  0.0000  0.0000  0.0000
    3OM     OM1    3   3.694   2.956   0.513  0.0000  0.0000  0.0000
    4OM     OM1    4   3.932   3.054   0.492  0.0000  0.0000  0.0000
    5OM     OM1    5   3.604   6.494   1.241  0.0000  0.0000  0.0000
    6OM     OM1    6   3.832   6.426   1.330  0.0000  0.0000  0.0000
    7OM     OM1    7   5.982   5.574   8.850  0.0000  0.0000  0.0000
    8OM     OM1    8   6.188   5.415   8.854  0.0000  0.0000  0.0000
    9OM     OM1    9   6.213   5.678   8.872  0.0000  0.0000  0.0000
   10OM     OM1   10   6.104   5.556   9.071  0.0000  0.0000  0.0000
   11OM     OM1   11   5.061   3.626   1.221  0.0000  0.0000  0.0000
   12OM     OM1   12   4.864   3.595   1.054  0.0000  0.0000  0.0000
   13OM     OM1   13   4.915   3.832   1.153  0.0000  0.0000  0.0000
   14OM     OM1   14   8.973   4.194   9.431  0.0000  0.0000  0.0000
   15OM     OM1   15   8.921   3.940   9.354  0.0000  0.0000  0.0000
   16OM     OM1   16   8.731   4.104   9.402  0.0000  0.0000  0.0000
   17OM     OM1   17   8.879   4.148   9.197  0.0000  0.0000  0.0000
   18OM     OM1   18   5.240   9.191   1.209  0.0000  0.0000  0.0000
   19OM     OM1   19   0.775   5.026   1.423  0.0000  0.0000  0.0000
   20OM     OM1   20   0.623   4.880   1.272  0.0000  0.0000  0.0000
   21OM     OM1   21   0.800   4.763   1.408  0.0000  0.0000  0.0000
   22OM     OM1   22   5.851   6.763   1.103  0.0000  0.0000  0.0000
   23OM     OM1   23   5.642   6.899   1.136  0.0000  0.0000  0.0000
   24OM     OM1   24   5.807   6.891   1.325  0.0000  0.0000  0.0000
   25OM     OM1   25   5.860   7.028   1.094  0.0000  0.0000  0.0000
   26OM     OM1   26   1.676   0.657   0.783  0.0000  0.0000  0.0000
   27OM     OM1   27   1.736   0.820   0.585  0.0000  0.0000  0.0000
   28OM     OM1   28   1.540   0.882   0.746  0.0000  0.0000  0.0000
   29OM     OM1   29   1.780   0.879   0.845  0.0000  0.0000  0.0000
   30OM     OM1   30   7.849   5.850   8.421  0.0000  0.0000  0.0000
   31OM     OM1   31   7.985   6.014   8.263  0.0000  0.0000  0.0000
   32OM     OM1   32   8.098   5.912   8.471  0.0000  0.0000  0.0000
   33OM     OM1   33   8.628   6.176   0.217  0.0000  0.0000  0.0000
   34OM     OM1   34   8.779   6.098   0.411  0.0000  0.0000  0.0000
   35OM     OM1   35   8.879   6.157   0.168  0.0000  0.0000  0.0000
   36OM     OM1   36   8.789   6.343   0.336  0.0000  0.0000  0.0000
   37OM     OM1   37   3.322   6.641   9.495  0.0000  0.0000  0.0000
   38OM     OM1   38   3.547   6.744   9.443  0.0000  0.0000  0.0000
   39OM     OM1   39   3.343   6.889   9.543  0.0000  0.0000  0.0000
   40OM     OM1   40   3.363   6.841   9.296  0.0000  0.0000  0.0000
   41OM     OM1   41   1.367   3.048   9.419  0.0000  0.0000  0.0000
   42OM     OM1   42   1.338   2.942   0.050  0.0000  0.0000  0.0000
   43OM     OM1   43   1.158   3.115   9.552  0.0000  0.0000  0.0000
   44OM     OM1   44   1.394   3.195   0.029  0.0000  0.0000  0.0000
   45OM     OM1   45   8.070   0.953   8.354  0.0000  0.0000  0.0000
   46OM     OM1   46   7.824   0.977   8.403  0.0000  0.0000  0.0000
   47OM     OM1   47   7.945   1.199   8.390  0.0000  0.0000  0.0000
   48OM     OM1   48   8.003   1.037   8.588  0.0000  0.0000  0.0000
   49OM     OM1   49   1.547   8.029   9.196  0.0000  0.0000  0.0000
   50OM     OM1   50   1.334   8.153   9.246  0.0000  0.0000  0.0000
   51OM     OM1   51   1.366   8.058   9.004  0.0000  0.0000  0.0000
   52OM     OM1   52   1.521   8.256   9.074  0.0000  0.0000  0.0000
   53OM     OM1   53   7.057   6.501   8.859  0.0000  0.0000  0.0000
   54OM     OM1   54   6.858   6.394   8.726  0.0000  0.0000  0.0000
   55OM     OM1   55   7.019   6.571   8.608  0.0000  0.0000  0.0000
   56OM     OM1   56   6.844   6.643   8.788  0.0000  0.0000  0.0000
   57OM     OM1   57   3.872   1.024   0.005  0.0000  0.0000  0.0000
   58OM     OM1   58   3.860   1.011   0.266  0.0000  0.0000  0.0000
   59OM     OM1   59   3.972   1.210   0.139  0.0000  0.0000  0.0000
   60OM     OM1   60   3.714   1.197   0.148  0.0000  0.0000  0.0000
   61OM     OM1   61   1.819   1.420   8.277  0.0000  0.0000  0.0000
   62OM     OM1   62   1.904   1.546   8.489  0.0000  0.0000  0.0000
   63OM     OM1   63   1.774   1.339   8.524  0.0000  0.0000  0.0000
   64OM     OM1   64   1.641   1.538   8.424  0.0000  0.0000  0.0000
   65OM     OM1   65   1.223   3.136   8.350  0.0000  0.0000  0.0000
   66OM     OM1   66   1.481   3.129   8.265  0.0000  0.0000  0.0000
   67OM     OM1   67   1.416   3.199   8.505  0.0000  0.0000  0.0000
   68OM     OM1   68   0.971   2.326   1.307  0.0000  0.0000  0.0000
   69OM     OM1   69   0.716   2.352   1.363  0.0000  0.0000  0.0000
   70OM     OM1   70   4.139   4.598   0.306  0.0000  0.0000  0.0000
   71OM     OM1   71   4.191   4.691   0.052  0.0000  0.0000  0.0000
   72OM     OM1   72   3.991   4.544   0.084  0.0000  0.0000  0.0000
   73OM     OM1   73   4.234   4.449   0.122  0.0000  0.0000  0.0000
   74OM     OM1   74   4.776   0.132   1.192  0.0000  0.0000  0.0000
   75OM     OM1   75   4.949   9.547   1.238  0.0000  0.0000  0.0000
   76OM     OM1   76   4.835   9.573   0.998  0.0000  0.0000  0.0000
   77OM     OM1   77   4.702   9.489   1.216  0.0000  0.0000  0.0000
   78OM     OM1   78   3.653   3.941   8.624  0.0000  0.0000  0.0000
   79OM     OM1   79   3.551   4.179   8.622  0.0000  0.0000  0.0000
   80OM     OM1   80   3.785   4.156   8.699  0.0000  0.0000  0.0000
   81OM     OM1   81   3.608   4.054   8.858  0.0000  0.0000  0.0000
   82OM     OM1   82   3.015   0.836   0.738  0.0000  0.0000  0.0000
   83OM     OM1   83   2.765   0.901   0.710  0.0000  0.0000  0.0000
   84OM     OM1   84   2.904   1.014   0.903  0.0000  0.0000  0.0000
   85OM     OM1   85   2.942   1.075   0.656  0.0000  0.0000  0.0000
   86OM     OM1   86   5.584   1.997   0.276  0.0000  0.0000  0.0000
   87OM     OM1   87   5.938   1.806   0.549  0.0000  0.0000  0.0000
   88OM     OM1   88   5.810   1.991   0.406  0.0000  0.0000  0.0000
   89OM     OM1   89   6.031   1.875   0.314  0.0000  0.0000  0.0000
   90OM     OM1   90   8.893   3.879   1.299  0.0000  0.0000  0.0000
   91OM     OM1   91   8.870   4.125   1.214  0.0000  0.0000  0.0000
   92OM     OM1   92   8.667   4.015   1.336  0.0000  0.0000  0.0000
   93OM     OM1   93   0.226   1.506   9.077  0.0000  0.0000  0.0000
   94OM     OM1   94   0.354   1.605   9.290  0.0000  0.0000  0.0000
   95OM     OM1   95   0.462   1.420   9.150  0.0000  0.0000  0.0000
   96OM     OM1   96   0.250   1.361   9.280  0.0000  0.0000  0.0000
   97OM     OM1   97   5.872   1.390   9.564  0.0000  0.0000  0.0000
   98OM     OM1   98   5.679   1.502   9.419  0.0000  0.0000  0.0000
   99OM     OM1   99   5.830   1.332   9.303  0.0000  0.0000  0.0000
  100OM     OM1  100   5.661   1.256   9.491  0.0000  0.0000  0.0000
  101OM     OM1  101   0.572   3.154   0.300  0.0000  0.0000  0.0000
  102OM     OM1  102   0.338   3.258   0.305  0.0000  0.0000  0.0000
  103OM     OM1  103   0.403   3.094   0.112  0.0000  0.0000  0.0000
  104OM     OM1  104   0.373   2.995   0.358  0.0000  0.0000  0.0000
  105OM     OM1  105   0.400   2.090   0.499  0.0000  0.0000  0.0000
  106OM     OM1  106   0.563   2.271   0.399  0.0000  0.0000  0.0000
  107OM     OM1  107   0.590   2.193   0.647  0.0000  0.0000  0.0000
  108OM     OM1  108   0.646   2.025   0.452  0.0000  0.0000  0.0000
  109OM     OM1  109   7.637   5.051   0.471  0.0000  0.0000  0.0000
  110OM     OM1  110   7.650   5.169   0.244  0.0000  0.0000  0.0000
  111OM     OM1  111   7.488   5.263   0.420  0.0000  0.0000  0.0000
  112OM     OM1  112   7.429   5.034   0.309  0.0000  0.0000  0.0000
  113OM     OM1  113   9.540   0.195   9.184  0.0000  0.0000  0.0000
  114OM     OM1  114   9.300   0.234   9.254  0.0000  0.0000  0.0000
  115OM     OM1  115   9.455   0.150   9.441  0.0000  0.0000  0.0000
  116OM     OM1  116   9.400   9.594   9.246  0.0000  0.0000  0.0000
  117OM     OM1  117   4.084   2.263   9.557  0.0000  0.0000  0.0000
  118OM     OM1  118   3.867   2.369   9.432  0.0000  0.0000  0.0000
  119OM     OM1  119   4.106   2.462   9.419  0.0000  0.0000  0.0000
  120OM     OM1  120   3.968   2.477   0.045  0.0000  0.0000  0.0000
  121OM     OM1  121   1.115   2.547   1.307  0.0000  0.0000  0.0000
  122OM     OM1  122   1.181   2.799   1.336  0.0000  0.0000  0.0000
  123OM     OM1  123   0.591   6.835   8.355  0.0000  0.0000  0.0000
  124OM     OM1  124   0.524   7.077   8.419  0.0000  0.0000  0.0000
  125OM     OM1  125   0.355   6.951   8.286  0.0000  0.0000  0.0000
  126OM     OM1  126   5.383   5.213   8.952  0.0000  0.0000  0.0000
  127OM     OM1  127   5.584   5.105   9.076  0.0000  0.0000  0.0000
  128OM     OM1  128   5.379   5.207   9.211  0.0000  0.0000  0.0000
  129OM     OM1  129   5.349   4.987   9.069  0.0000  0.0000  0.0000
  130OM     OM1  130   6.070   8.666   9.246  0.0000  0.0000  0.0000
  131OM     OM1  131   5.954   8.843   9.091  0.0000  0.0000  0.0000
  132OM     OM1  132   6.145   8.700   8.991  0.0000  0.0000  0.0000
  133OM     OM1  133   5.913   8.589   9.054  0.0000  0.0000  0.0000
  134OM     OM1  134   5.833   5.151   9.161  0.0000  0.0000  0.0000
  135OM     OM1  135   5.779   4.919   9.074  0.0000  0.0000  0.0000
  136OM     OM1  136   5.664   5.001   9.292  0.0000  0.0000  0.0000
  137OM     OM1  137   1.291   5.071   1.262  0.0000  0.0000  0.0000
  138OM     OM1  138   1.526   5.031   1.183  0.0000  0.0000  0.0000
  139OM     OM1  139   1.430   5.275   1.167  0.0000  0.0000  0.0000
  140OM     OM1  140   0.504   3.714   8.704  0.0000  0.0000  0.0000
  141OM     OM1  141   0.580   3.962   8.751  0.0000  0.0000  0.0000
  142OM     OM1  142   0.546   3.897   8.511  0.0000  0.0000  0.0000
  143OM     OM1  143   0.745   3.786   8.641  0.0000  0.0000  0.0000
  144OM     OM1  144   6.183   2.314   8.600  0.0000  0.0000  0.0000
  145OM     OM1  145   6.079   2.282   8.362  0.0000  0.0000  0.0000
  146OM     OM1  146   6.272   2.121   8.455  0.0000  0.0000  0.0000
  147OM     OM1  147   6.314   2.367   8.368  0.0000  0.0000  0.0000
  148OM     OM1  148   2.487   3.401   0.628  0.0000  0.0000  0.0000
  149OM     OM1  149   2.182   3.435   0.300  0.0000  0.0000  0.0000
  150OM     OM1  150   2.437   3.449   0.365  0.0000  0.0000  0.0000
  151OM     OM1  151   2.363   3.449   0.112  0.0000  0.0000  0.0000
  152OM     OM1  152   7.793   1.409   0.247  0.0000  0.0000  0.0000
  153OM     OM1  153   7.579   1.487   0.155  0.0000  0.0000  0.0000
  154OM     OM1  154   7.721   1.677   0.262  0.0000  0.0000  0.0000
  155OM     OM1  155   7.624   1.504   0.421  0.0000  0.0000  0.0000
  156OM     OM1  156   9.081   4.290   0.029  0.0000  0.0000  0.0000
  157OM     OM1  157   8.916   4.442   9.516  0.0000  0.0000  0.0000
  158OM     OM1  158   9.133   4.383   9.373  0.0000  0.0000  0.0000
  159OM     OM1  159   4.999   2.474   9.019  0.0000  0.0000  0.0000
  160OM     OM1  160   5.001   2.950   8.799  0.0000  0.0000  0.0000
  161OM     OM1  161   5.065   2.696   8.732  0.0000  0.0000  0.0000
  162OM     OM1  162   5.088   2.775   8.977  0.0000  0.0000  0.0000
  163OM     OM1  163   8.202   7.601   0.579  0.0000  0.0000  0.0000
  164OM     OM1  164   8.168   7.350   0.675  0.0000  0.0000  0.0000
  165OM     OM1  165   8.288   7.537   0.813  0.0000  0.0000  0.0000
  166OM     OM1  166   8.029   7.547   0.768  0.0000  0.0000  0.0000
  167OM     OM1  167   1.535   1.299   8.604  0.0000  0.0000  0.0000
  168OM     OM1  168   1.692   1.115   8.472  0.0000  0.0000  0.0000
  169OM     OM1  169   1.727   1.164   8.724  0.0000  0.0000  0.0000
  170OM     OM1  170   0.812   1.844   0.542  0.0000  0.0000  0.0000
  171OM     OM1  171   0.784   1.928   0.786  0.0000  0.0000  0.0000
  172OM     OM1  172   0.803   1.677   0.745  0.0000  0.0000  0.0000
  173OM     OM1  173   1.018   1.841   0.708  0.0000  0.0000  0.0000
  174OM     OM1  174   5.931   0.035   1.027  0.0000  0.0000  0.0000
  175OM     OM1  175   5.814   0.254   1.055  0.0000  0.0000  0.0000
  176OM     OM1  176   5.943   0.196   0.826  0.0000  0.0000  0.0000
  177OM     OM1  177   5.715   0.094   0.876  0.0000  0.0000  0.0000
  178OM     OM1  178   4.793   7.092   1.352  0.0000  0.0000  0.0000
  179OM     OM1  179   4.697   7.267   1.188  0.0000  0.0000  0.0000
  180OM     OM1  180   5.520   6.370   1.090  0.0000  0.0000  0.0000
  181OM     OM1  181   5.299   6.238   1.040  0.0000  0.0000  0.0000
  182OM     OM1  182   5.532   6.199   0.903  0.0000  0.0000  0.0000
  183OM     OM1  183   5.383   6.406   0.867  0.0000  0.0000  0.0000
  184OM     OM1  184   5.559   3.438   0.585  0.0000  0.0000  0.0000
  185OM     OM1  185   5.398   3.320   0.410  0.0000  0.0000  0.0000
  186OM     OM1  186   5.655   3.329   0.377  0.0000  0.0000  0.0000
  187OM     OM1  187   5.540   3.178   0.566  0.0000  0.0000  0.0000
  188OM     OM1  188   7.310   6.443   0.301  0.0000  0.0000  0.0000
  189OM     OM1  189   7.319   6.705   0.283  0.0000  0.0000  0.0000
  190OM     OM1  190   7.362   6.556   0.076  0.0000  0.0000  0.0000
  191OM     OM1  191   7.119   6.571   0.177  0.0000  0.0000  0.0000
  192OM     OM1  192   6.363   2.511   1.248  0.0000  0.0000  0.0000
  193OM     OM1  193   8.654   0.792   0.467  0.0000  0.0000  0.0000
  194OM     OM1  194   8.924   0.776   0.521  0.0000  0.0000  0.0000
  195OM     OM1  195   8.759   0.929   0.648  0.0000  0.0000  0.0000
  196OM     OM1  196   8.761   0.664   0.677  0.0000  0.0000  0.0000
  197OM     OM1  197   7.182   3.343   9.016  0.0000  0.0000  0.0000
  198OM     OM1  198   7.149   3.388   9.272  0.0000  0.0000  0.0000
  199OM     OM1  199   7.361   3.476   9.150  0.0000  0.0000  0.0000
  200OM     OM1  200   7.122   3.583   9.112  0.0000  0.0000  0.0000
  201OM     OM1  201   3.453   3.847   0.779  0.0000  0.0000  0.0000
  202OM     OM1  202   3.345   3.705   0.973  0.0000  0.0000  0.0000
  203OM     OM1  203   3.502   3.602   0.803  0.0000  0.0000  0.0000
  204OM     OM1  204   3.484   3.585   1.156  0.0000  0.0000  0.0000
  205OM     OM1  205   2.434   2.307   1.305  0.0000  0.0000  0.0000
  206OM     OM1  206   2.383   2.604   0.889  0.0000  0.0000  0.0000
  207OM     OM1  207   2.369   2.480   1.117  0.0000  0.0000  0.0000
  208OM     OM1  208   2.573   2.642   1.061  0.0000  0.0000  0.0000
  209OM     OM1  209   3.466   8.084   0.332  0.0000  0.0000  0.0000
  210OM     OM1  210   3.399   7.844   0.242  0.0000  0.0000  0.0000
  211OM     OM1  211   3.243   7.974   0.415  0.0000  0.0000  0.0000
  212OM     OM1  212   3.475   7.861   0.478  0.0000  0.0000  0.0000
  213OM     OM1  213   7.074   5.181   9.401  0.0000  0.0000  0.0000
  214OM     OM1  214   7.293   5.119   9.531  0.0000  0.0000  0.0000
  215OM     OM1  215   7.447   5.070   9.326  0.0000  0.0000  0.0000
  216OM     OM1  216   7.391   4.877   9.492  0.0000  0.0000  0.0000
  217OM     OM1  217   7.914   1.375   8.574  0.0000  0.0000  0.0000
  218OM     OM1  218   8.078   1.571   8.549  0.0000  0.0000  0.0000
  219OM     OM1  219   8.139   1.384   8.711  0.0000  0.0000  0.0000
  220OM     OM1  220   7.936   1.545   8.771  0.0000  0.0000  0.0000
  221OM     OM1  221   8.608   8.977   8.261  0.0000  0.0000  0.0000
  222OM     OM1  222   8.515   9.220   8.363  0.0000  0.0000  0.0000
  223OM     OM1  223   8.483   8.987   8.482  0.0000  0.0000  0.0000
  224OM     OM1  224   6.421   3.457   0.066  0.0000  0.0000  0.0000
  225OM     OM1  225   6.335   3.241   9.548  0.0000  0.0000  0.0000
  226OM     OM1  226   6.219   3.324   0.153  0.0000  0.0000  0.0000
  227OM     OM1  227   6.188   3.452   9.537  0.0000  0.0000  0.0000
  228OM     OM1  228   7.103   0.391   0.759  0.0000  0.0000  0.0000
  229OM     OM1  229   6.987   0.530   0.950  0.0000  0.0000  0.0000
  230OM     OM1  230   7.119   0.648   0.757  0.0000  0.0000  0.0000
  231OM     OM1  231   6.886   0.540   0.715  0.0000  0.0000  0.0000
  232OM     OM1  232   7.489   5.682   1.217  0.0000  0.0000  0.0000
  233OM     OM1  233   7.334   5.473   1.246  0.0000  0.0000  0.0000
  234OM     OM1  234   7.230   5.710   1.184  0.0000  0.0000  0.0000
  235OM     OM1  235   6.350   0.966   0.439  0.0000  0.0000  0.0000
  236OM     OM1  236   6.448   0.804   0.618  0.0000  0.0000  0.0000
  237OM     OM1  237   6.218   0.764   0.506  0.0000  0.0000  0.0000
  238OM     OM1  238   6.239   0.954   0.685  0.0000  0.0000  0.0000
  239OM     OM1  239   3.460   1.191   8.257  0.0000  0.0000  0.0000
  240OM     OM1  240   3.515   1.357   8.454  0.0000  0.0000  0.0000
  241OM     OM1  241   3.699   1.255   8.305  0.0000  0.0000  0.0000
  242OM     OM1  242   2.805   1.571   8.416  0.0000  0.0000  0.0000
  243OM     OM1  243   2.576   1.454   8.447  0.0000  0.0000  0.0000
  244OM     OM1  244   2.795   1.312   8.454  0.0000  0.0000  0.0000
  245OM     OM1  245   9.522   1.010   1.457  0.0000  0.0000  0.0000
  246OM     OM1  246   8.748   5.838   9.171  0.0000  0.0000  0.0000
  247OM     OM1  247   8.506   5.953   9.138  0.0000  0.0000  0.0000
  248OM     OM1  248   8.673   5.953   8.947  0.0000  0.0000  0.0000
  249OM     OM1  249   8.727   6.096   9.156  0.0000  0.0000  0.0000
  250OM     OM1  250   8.103   4.849   0.978  0.0000  0.0000  0.0000
  251OM     OM1  251   8.139   5.174   1.023  0.0000  0.0000  0.0000
  252OM     OM1  252   8.034   5.183   0.784  0.0000  0.0000  0.0000
  253OM     OM1  253   8.241   5.035   0.844  0.0000  0.0000  0.0000
  254OM     OM1  254   8.497   1.884   1.180  0.0000  0.0000  0.0000
  255OM     OM1  255   8.442   1.632   1.226  0.0000  0.0000  0.0000
  256OM     OM1  256   6.318   1.387   8.936  0.0000  0.0000  0.0000
  257OM     OM1  257   6.251   1.549   9.131  0.0000  0.0000  0.0000
  258OM     OM1  258   6.487   1.569   9.019  0.0000  0.0000  0.0000
  259OM     OM1  259   6.265   1.627   8.882  0.0000  0.0000  0.0000
  260OM     OM1  260   9.027   6.910   8.352  0.0000  0.0000  0.0000
  261OM     OM1  261   9.212   6.856   8.545  0.0000  0.0000  0.0000
  262OM     OM1  262   9.197   6.711   8.331  0.0000  0.0000  0.0000
  263OM     OM1  263   9.274   6.966   8.319  0.0000  0.0000  0.0000
  264OM     OM1  264   7.966   2.439   9.251  0.0000  0.0000  0.0000
  265OM     OM1  265   8.083   2.641   9.147  0.0000  0.0000  0.0000
  266OM     OM1  266   8.068   2.629   9.405  0.0000  0.0000  0.0000
  267OM     OM1  267   7.854   2.681   9.260  0.0000  0.0000  0.0000
  268OM     OM1  268   9.315   5.962   9.321  0.0000  0.0000  0.0000
  269OM     OM1  269   9.338   6.186   9.194  0.0000  0.0000  0.0000
  270OM     OM1  270   9.196   6.001   9.087  0.0000  0.0000  0.0000
  271OM     OM1  271   9.113   6.131   9.308  0.0000  0.0000  0.0000
  272OM     OM1  272   8.542   2.762   8.373  0.0000  0.0000  0.0000
  273OM     OM1  273   8.608   2.559   8.538  0.0000  0.0000  0.0000
  274OM     OM1  274   8.795   2.697   8.399  0.0000  0.0000  0.0000
  275OM     OM1  275   5.282   3.521   0.706  0.0000  0.0000  0.0000
  276OM     OM1  276   5.337   3.631   0.941  0.0000  0.0000  0.0000
  277OM     OM1  277   5.302   3.781   0.729  0.0000  0.0000  0.0000
  278OM     OM1  278   5.516   3.628   0.753  0.0000  0.0000  0.0000
  279OM     OM1  279   7.720   1.105   9.196  0.0000  0.0000  0.0000
  280OM     OM1  280   7.510   1.240   9.157  0.0000  0.0000  0.0000
  281OM     OM1  281   7.661   1.165   8.941  0.0000  0.0000  0.0000
  282OM     OM1  282   7.742   1.344   9.105  0.0000  0.0000  0.0000
  283OM     OM1  283   6.948   3.590   1.229  0.0000  0.0000  0.0000
  284OM     OM1  284   7.036   3.361   1.134  0.0000  0.0000  0.0000
  285OM     OM1  285   7.193   3.533   1.255  0.0000  0.0000  0.0000
  286OM     OM1  286   6.850   5.966   0.512  0.0000  0.0000  0.0000
  287OM     OM1  287   6.841   6.152   0.679  0.0000  0.0000  0.0000
  288OM     OM1  288   7.072   6.103   0.569  0.0000  0.0000  0.0000
  289OM     OM1  289   6.895   6.204   0.413  0.0000  0.0000  0.0000
  290OM     OM1  290   8.891   7.514   9.452  0.0000  0.0000  0.0000
  291OM     OM1  291   8.816   7.476   9.199  0.0000  0.0000  0.0000
  292OM     OM1  292   8.666   7.599   9.378  0.0000  0.0000  0.0000
  293OM     OM1  293   8.842   7.344   0.046  0.0000  0.0000  0.0000
  294OM     OM1  294   3.010   1.617   9.529  0.0000  0.0000  0.0000
  295OM     OM1  295   3.034   1.546   0.181  0.0000  0.0000  0.0000
  296OM     OM1  296   3.102   1.390   9.585  0.0000  0.0000  0.0000
  297OM     OM1  297   3.156   1.285   9.355  0.0000  0.0000  0.0000
  298OM     OM1  298   1.457   4.417   0.196  0.0000  0.0000  0.0000
  299OM     OM1  299   1.677   4.320   0.304  0.0000  0.0000  0.0000
  300OM     OM1  300   1.630   4.280   0.051  0.0000  0.0000  0.0000
  301OM     OM1  301   1.501   4.152   0.227  0.0000  0.0000  0.0000
  302OM     OM1  302   2.396   4.040   0.187  0.0000  0.0000  0.0000
  303OM     OM1  303   2.217   3.891   0.287  0.0000  0.0000  0.0000
  304OM     OM1  304   2.144   4.126   0.215  0.0000  0.0000  0.0000
  305OM     OM1  305   2.312   4.118   0.409  0.0000  0.0000  0.0000
  306OM     OM1  306   3.314   1.915   1.263  0.0000  0.0000  0.0000
  307OM     OM1  307   3.355   1.737   1.057  0.0000  0.0000  0.0000
  308OM     OM1  308   3.122   1.830   1.129  0.0000  0.0000  0.0000
  309OM     OM1  309   3.253   1.661   1.282  0.0000  0.0000  0.0000
  310OM     OM1  310   5.579   0.015   9.194  0.0000  0.0000  0.0000
  311OM     OM1  311   5.637   0.035   9.443  0.0000  0.0000  0.0000
  312OM     OM1  312   5.457   0.192   9.328  0.0000  0.0000  0.0000
  313OM     OM1  313   5.718   0.221   9.288  0.0000  0.0000  0.0000
  314OM     OM1  314   9.450   6.834   8.208  0.0000  0.0000  0.0000
  315OM     OM1  315   9.508   6.981   8.423  0.0000  0.0000  0.0000
  316OM     OM1  316   1.151   1.212   0.877  0.0000  0.0000  0.0000
  317OM     OM1  317   1.169   1.410   0.716  0.0000  0.0000  0.0000
  318OM     OM1  318   0.970   1.241   0.699  0.0000  0.0000  0.0000
  319OM     OM1  319   0.976   1.402   0.906  0.0000  0.0000  0.0000
  320OM     OM1  320   0.805   8.696   1.249  0.0000  0.0000  0.0000
  321OM     OM1  321   6.755   6.188   0.198  0.0000  0.0000  0.0000
  322OM     OM1  322   6.939   6.380   0.217  0.0000  0.0000  0.0000
  323OM     OM1  323   7.014   6.129   0.206  0.0000  0.0000  0.0000
  324OM     OM1  324   6.038   5.656   9.596  0.0000  0.0000  0.0000
  325OM     OM1  325   5.942   5.461   9.467  0.0000  0.0000  0.0000
  326OM     OM1  326   6.090   5.411   0.078  0.0000  0.0000  0.0000
  327OM     OM1  327   5.838   5.500   0.088  0.0000  0.0000  0.0000
  328OM     OM1  328   4.270   7.350   8.861  0.0000  0.0000  0.0000
  329OM     OM1  329   4.196   7.276   9.102  0.0000  0.0000  0.0000
  330OM     OM1  330   4.026   7.402   8.925  0.0000  0.0000  0.0000
  331OM     OM1  331   4.114   7.159   8.887  0.0000  0.0000  0.0000
  332OM     OM1  332   4.050   8.987   0.071  0.0000  0.0000  0.0000
  333OM     OM1  333   4.081   8.835   0.283  0.0000  0.0000  0.0000
  334OM     OM1  334   4.201   8.782   0.047  0.0000  0.0000  0.0000
  335OM     OM1  335   4.277   8.985   0.194  0.0000  0.0000  0.0000
  336OM     OM1  336   0.183   4.704   9.372  0.0000  0.0000  0.0000
  337OM     OM1  337   0.029   4.798   9.554  0.0000  0.0000  0.0000
  338OM     OM1  338   0.024   4.782   9.044  0.0000  0.0000  0.0000
  339OM     OM1  339   0.080   4.950   9.346  0.0000  0.0000  0.0000
  340OM     OM1  340   8.753   2.714   9.384  0.0000  0.0000  0.0000
  341OM     OM1  341   8.912   2.897   9.280  0.0000  0.0000  0.0000
  342OM     OM1  342   9.011   2.685   9.382  0.0000  0.0000  0.0000
  343OM     OM1  343   8.883   2.651   9.162  0.0000  0.0000  0.0000
  344OM     OM1  344   0.052   7.166   9.156  0.0000  0.0000  0.0000
  345OM     OM1  345   0.072   7.054   8.919  0.0000  0.0000  0.0000
  346OM     OM1  346   9.529   7.263   8.951  0.0000  0.0000  0.0000
  347OM     OM1  347   0.189   7.281   8.960  0.0000  0.0000  0.0000
  348OM     OM1  348   4.227   2.120   8.336  0.0000  0.0000  0.0000
  349OM     OM1  349   4.280   1.944   8.519  0.0000  0.0000  0.0000
  350OM     OM1  350   4.426   1.959   8.313  0.0000  0.0000  0.0000
  351OM     OM1  351   4.664   1.967   8.424  0.0000  0.0000  0.0000
  352OM     OM1  352   7.338   3.139   0.703  0.0000  0.0000  0.0000
  353OM     OM1  353   7.206   3.336   0.582  0.0000  0.0000  0.0000
  354OM     OM1  354   7.408   3.394   0.728  0.0000  0.0000  0.0000
  355OM     OM1  355   7.449   3.255   0.506  0.0000  0.0000  0.0000
  356OM     OM1  356   9.117   0.694   1.174  0.0000  0.0000  0.0000
  357OM     OM1  357   9.370   0.648   1.265  0.0000  0.0000  0.0000
  358OM     OM1  358   9.328   0.618   1.019  0.0000  0.0000  0.0000
  359OM     OM1  359   9.202   0.462   1.183  0.0000  0.0000  0.0000
  360OM     OM1  360   4.166   5.054   0.260  0.0000  0.0000  0.0000
  361OM     OM1  361   4.417   5.143   0.271  0.0000  0.0000  0.0000
  362OM     OM1  362   4.346   4.980   0.082  0.0000  0.0000  0.0000
  363OM     OM1  363   4.259   5.229   0.091  0.0000  0.0000  0.0000
  364OM     OM1  364   8.231   8.459   0.799  0.0000  0.0000  0.0000
  365OM     OM1  365   8.412   8.582   0.934  0.0000  0.0000  0.0000
  366OM     OM1  366   8.255   8.728   0.780  0.0000  0.0000  0.0000
  367OM     OM1  367   8.421   8.578   0.668  0.0000  0.0000  0.0000
  368OM     OM1  368   5.497   4.634   8.592  0.0000  0.0000  0.0000
  369OM     OM1  369   5.572   4.408   8.492  0.0000  0.0000  0.0000
  370OM     OM1  370   5.312   4.465   8.513  0.0000  0.0000  0.0000
  371OM     OM1  371   8.915   7.695   8.571  0.0000  0.0000  0.0000
  372OM     OM1  372   9.087   7.514   8.509  0.0000  0.0000  0.0000
  373OM     OM1  373   9.154   7.685   8.685  0.0000  0.0000  0.0000
  374OM     OM1  374   9.324   7.490   8.397  0.0000  0.0000  0.0000
  375OM     OM1  375   4.600   8.953   8.755  0.0000  0.0000  0.0000
  376OM     OM1  376   4.695   8.708   8.692  0.0000  0.0000  0.0000
  377OM     OM1  377   4.318   8.889   8.518  0.0000  0.0000  0.0000
  378OM     OM1  378   4.448   8.748   8.695  0.0000  0.0000  0.0000
  379OM     OM1  379   1.308   6.287   0.119  0.0000  0.0000  0.0000
  380OM     OM1  380   1.368   6.538   0.062  0.0000  0.0000  0.0000
  381OM     OM1  381   1.297   6.441   0.312  0.0000  0.0000  0.0000
  382OM     OM1  382   1.527   6.394   0.206  0.0000  0.0000  0.0000
  383OM     OM1  383   9.034   2.996   1.146  0.0000  0.0000  0.0000
  384OM     OM1  384   9.124   2.810   0.980  0.0000  0.0000  0.0000
  385OM     OM1  385   9.020   3.024   0.885  0.0000  0.0000  0.0000
  386OM     OM1  386   9.252   3.037   0.998  0.0000  0.0000  0.0000
  387OM     OM1  387   8.043   7.722   0.105  0.0000  0.0000  0.0000
  388OM     OM1  388   8.280   7.816   0.057  0.0000  0.0000  0.0000
  389OM     OM1  389   8.086   7.987   0.055  0.0000  0.0000  0.0000
  390OM     OM1  390   8.107   7.809   9.469  0.0000  0.0000  0.0000
  391OM     OM1  391   0.539   9.503   9.428  0.0000  0.0000  0.0000
  392OM     OM1  392   0.573   9.504   9.162  0.0000  0.0000  0.0000
  393OM     OM1  393   0.337   9.439   9.269  0.0000  0.0000  0.0000
  394OM     OM1  394   0.532   9.282   9.294  0.0000  0.0000  0.0000
  395OM     OM1  395   7.506   2.344   1.253  0.0000  0.0000  0.0000
  396OM     OM1  396   7.585   2.573   1.154  0.0000  0.0000  0.0000
  397OM     OM1  397   3.855   8.862   9.019  0.0000  0.0000  0.0000
  398OM     OM1  398   3.979   8.984   9.290  0.0000  0.0000  0.0000
  399OM     OM1  399   4.102   8.829   8.997  0.0000  0.0000  0.0000
  400OM     OM1  400   3.958   8.743   9.215  0.0000  0.0000  0.0000
  401OM     OM1  401   8.653   0.894   0.112  0.0000  0.0000  0.0000
  402OM     OM1  402   8.699   1.120   0.233  0.0000  0.0000  0.0000
  403OM     OM1  403   8.894   0.946   0.249  0.0000  0.0000  0.0000
  404OM     OM1  404   8.844   1.026   0.020  0.0000  0.0000  0.0000
  405OM     OM1  405   9.594   4.316   0.142  0.0000  0.0000  0.0000
  406OM     OM1  406   9.485   4.079   0.111  0.0000  0.0000  0.0000
  407OM     OM1  407   0.377   4.066   0.192  0.0000  0.0000  0.0000
  408OM     OM1  408   0.121   4.116   0.223  0.0000  0.0000  0.0000
  409OM     OM1  409   6.371   9.075   0.065  0.0000  0.0000  0.0000
  410OM     OM1  410   6.348   9.324   0.145  0.0000  0.0000  0.0000
  411OM     OM1  411   6.253   9.246   9.522  0.0000  0.0000  0.0000
  412OM     OM1  412   6.144   9.173   0.155  0.0000  0.0000  0.0000
  413OM     OM1  413   6.672   4.479   8.636  0.0000  0.0000  0.0000
  414OM     OM1  414   6.683   4.215   8.619  0.0000  0.0000  0.0000
  415OM     OM1  415   6.899   4.348   8.586  0.0000  0.0000  0.0000
  416OM     OM1  416   6.732   4.367   8.403  0.0000  0.0000  0.0000
  417OM     OM1  417   0.241   0.114   1.188  0.0000  0.0000  0.0000
  418OM     OM1  418   0.218   0.379   1.242  0.0000  0.0000  0.0000
  419OM     OM1  419   0.449   0.254   1.185  0.0000  0.0000  0.0000
  420OM     OM1  420   5.111   9.124   0.351  0.0000  0.0000  0.0000
  421OM     OM1  421   5.196   9.290   0.177  0.0000  0.0000  0.0000
  422OM     OM1  422   4.939   9.271   0.210  0.0000  0.0000  0.0000
  423OM     OM1  423   5.059   9.067   0.101  0.0000  0.0000  0.0000
  424OM     OM1  424   9.064   6.344   9.466  0.0000  0.0000  0.0000
  425OM     OM1  425   8.984   6.108   9.536  0.0000  0.0000  0.0000
  426OM     OM1  426   8.871   6.226   9.333  0.0000  0.0000  0.0000
  427OM     OM1  427   2.040   0.158   9.300  0.0000  0.0000  0.0000
  428OM     OM1  428   1.881   0.246   9.488  0.0000  0.0000  0.0000
  429OM     OM1  429   1.859   0.003   9.404  0.0000  0.0000  0.0000
  430OM     OM1  430   1.797   0.205   9.240  0.0000  0.0000  0.0000
  431OM     OM1  431   5.093   4.113   8.931  0.0000  0.0000  0.0000
  432OM     OM1  432   5.170   4.068   9.172  0.0000  0.0000  0.0000
  433OM     OM1  433   5.134   4.310   9.101  0.0000  0.0000  0.0000
  434OM     OM1  434   4.927   4.150   9.126  0.0000  0.0000  0.0000
  435OM     OM1  435   8.476   7.817   8.577  0.0000  0.0000  0.0000
  436OM     OM1  436   8.571   7.709   8.791  0.0000  0.0000  0.0000
  437OM     OM1  437   8.745   7.524   8.853  0.0000  0.0000  0.0000
  438OM     OM1  438   8.813   7.770   8.882  0.0000  0.0000  0.0000
  439OM     OM1  439   5.272   8.416   1.231  0.0000  0.0000  0.0000
  440OM     OM1  440   5.024   8.414   1.320  0.0000  0.0000  0.0000
  441OM     OM1  441   1.530   6.691   8.265  0.0000  0.0000  0.0000
  442OM     OM1  442   1.781   6.686   8.327  0.0000  0.0000  0.0000
  443OM     OM1  443   1.595   6.579   8.497  0.0000  0.0000  0.0000
  444OM     OM1  444   1.611   6.834   8.457  0.0000  0.0000  0.0000
  445OM     OM1  445   9.038   1.891   9.374  0.0000  0.0000  0.0000
  446OM     OM1  446   9.247   2.050   9.373  0.0000  0.0000  0.0000
  447OM     OM1  447   9.273   1.789   9.428  0.0000  0.0000  0.0000
  448OM     OM1  448   9.155   1.952   9.596  0.0000  0.0000  0.0000
  449OM     OM1  449   8.203   2.455   8.307  0.0000  0.0000  0.0000
  450OM     OM1  450   8.088   2.212   8.280  0.0000  0.0000  0.0000
  451OM     OM1  451   7.243   5.350   0.422  0.0000  0.0000  0.0000
  452OM     OM1  452   7.043   5.226   0.306  0.0000  0.0000  0.0000
  453OM     OM1  453   6.991   5.439   0.435  0.0000  0.0000  0.0000
  454OM     OM1  454   7.128   5.447   0.208  0.0000  0.0000  0.0000
  455OM     OM1  455   2.227   8.066   0.938  0.0000  0.0000  0.0000
  456OM     OM1  456   2.021   8.184   0.849  0.0000  0.0000  0.0000
  457OM     OM1  457   2.211   8.332   0.945  0.0000  0.0000  0.0000
  458OM     OM1  458   2.068   8.203   1.105  0.0000  0.0000  0.0000
  459OM     OM1  459   8.117   4.362   1.282  0.0000  0.0000  0.0000
  460OM     OM1  460   8.268   4.565   1.380  0.0000  0.0000  0.0000
  461OM     OM1  461   4.856   3.289   9.202  0.0000  0.0000  0.0000
  462OM     OM1  462   4.601   3.291   9.255  0.0000  0.0000  0.0000
  463OM     OM1  463   4.725   3.071   9.188  0.0000  0.0000  0.0000
  464OM     OM1  464   4.673   3.270   9.013  0.0000  0.0000  0.0000
  465OM     OM1  465   5.763   5.910   0.386  0.0000  0.0000  0.0000
  466OM     OM1  466   5.727   6.092   0.191  0.0000  0.0000  0.0000
  467OM     OM1  467   5.686   6.132   0.454  0.0000  0.0000  0.0000
  468OM     OM1  468   5.928   6.113   0.348  0.0000  0.0000  0.0000
  469OM     OM1  469   8.911   6.664   8.493  0.0000  0.0000  0.0000
  470OM     OM1  470   9.025   6.786   8.693  0.0000  0.0000  0.0000
  471OM     OM1  471   8.803   6.890   8.578  0.0000  0.0000  0.0000
  472OM     OM1  472   8.797   6.674   8.726  0.0000  0.0000  0.0000
  473OM     OM1  473   2.313   3.862   8.383  0.0000  0.0000  0.0000
  474OM     OM1  474   2.242   3.621   8.417  0.0000  0.0000  0.0000
  475OM     OM1  475   0.525   3.438   9.516  0.0000  0.0000  0.0000
  476OM     OM1  476   0.740   3.457   0.053  0.0000  0.0000  0.0000
  477OM     OM1  477   0.663   3.224   9.575  0.0000  0.0000  0.0000
  478OM     OM1  478   0.752   3.397   9.399  0.0000  0.0000  0.0000
  479OM     OM1  479   7.765   1.383   1.007  0.0000  0.0000  0.0000
  480OM     OM1  480   7.419   1.421   1.105  0.0000  0.0000  0.0000
  481OM     OM1  481   7.639   0.999   1.038  0.0000  0.0000  0.0000
  482OM     OM1  482   7.754   1.188   1.173  0.0000  0.0000  0.0000
  483OM     OM1  483   2.015   5.361   0.090  0.0000  0.0000  0.0000
  484OM     OM1  484   2.005   5.131   0.214  0.0000  0.0000  0.0000
  485OM     OM1  485   1.795   5.209   0.089  0.0000  0.0000  0.0000
  486OM     OM1  486   1.868   5.337   0.311  0.0000  0.0000  0.0000
  487OM     OM1  487   5.137   7.479   9.190  0.0000  0.0000  0.0000
  488OM     OM1  488   5.028   7.715   9.215  0.0000  0.0000  0.0000
  489OM     OM1  489   5.289   7.688   9.244  0.0000  0.0000  0.0000
  490OM     OM1  490   5.179   7.675   9.013  0.0000  0.0000  0.0000
  491OM     OM1  491   6.658   3.791   8.311  0.0000  0.0000  0.0000
  492OM     OM1  492   6.626   3.699   8.547  0.0000  0.0000  0.0000
  493OM     OM1  493   6.666   3.966   8.513  0.0000  0.0000  0.0000
  494OM     OM1  494   6.854   3.787   8.502  0.0000  0.0000  0.0000
  495OM     OM1  495   0.458   1.220   8.979  0.0000  0.0000  0.0000
  496OM     OM1  496   0.150   0.942   9.011  0.0000  0.0000  0.0000
  497OM     OM1  497   0.408   0.968   8.965  0.0000  0.0000  0.0000
  498OM     OM1  498   0.309   0.733   9.026  0.0000  0.0000  0.0000
  499OM     OM1  499   8.129   1.214   1.136  0.0000  0.0000  0.0000
  500OM     OM1  500   3.494   9.447   8.971  0.0000  0.0000  0.0000
  501OM     OM1  501   3.533   9.514   9.222  0.0000  0.0000  0.0000
  502OM     OM1  502   3.630   9.297   9.124  0.0000  0.0000  0.0000
  503OM     OM1  503   3.726   9.543   9.054  0.0000  0.0000  0.0000
  504OM     OM1  504   6.442   5.606   9.366  0.0000  0.0000  0.0000
  505OM     OM1  505   6.394   5.622   9.114  0.0000  0.0000  0.0000
  506OM     OM1  506   6.371   5.392   9.233  0.0000  0.0000  0.0000
  507OM     OM1  507   6.207   5.607   9.287  0.0000  0.0000  0.0000
  508OM     OM1  508   9.536   3.042   0.123  0.0000  0.0000  0.0000
  509OM     OM1  509   9.466   2.864   0.306  0.0000  0.0000  0.0000
  510OM     OM1  510   9.343   3.103   0.287  0.0000  0.0000  0.0000
  511OM     OM1  511   9.311   2.924   0.102  0.0000  0.0000  0.0000
  512OM     OM1  512   0.830   6.803   8.265  0.0000  0.0000  0.0000
  513OM     OM1  513   0.776   6.816   8.533  0.0000  0.0000  0.0000
  514OM     OM1  514   0.730   6.610   8.395  0.0000  0.0000  0.0000
  515OM     OM1  515   3.148   5.116   1.081  0.0000  0.0000  0.0000
  516OM     OM1  516   2.955   5.291   1.102  0.0000  0.0000  0.0000
  517OM     OM1  517   2.915   5.029   1.140  0.0000  0.0000  0.0000
  518OM     OM1  518   5.587   5.133   1.195  0.0000  0.0000  0.0000
  519OM     OM1  519   5.731   5.009   1.369  0.0000  0.0000  0.0000
  520OM     OM1  520   5.561   4.871   1.215  0.0000  0.0000  0.0000
  521OM     OM1  521   6.458   7.678   1.233  0.0000  0.0000  0.0000
  522OM     OM1  522   6.328   7.667   1.010  0.0000  0.0000  0.0000
  523OM     OM1  523   6.611   7.865   1.308  0.0000  0.0000  0.0000
  524OM     OM1  524   6.204   7.753   1.210  0.0000  0.0000  0.0000
  525OM     OM1  525   7.460   8.519   0.554  0.0000  0.0000  0.0000
  526OM     OM1  526   7.513   8.284   0.638  0.0000  0.0000  0.0000
  527OM     OM1  527   7.571   8.341   0.388  0.0000  0.0000  0.0000
  528OM     OM1  528   7.720   8.435   0.570  0.0000  0.0000  0.0000
  529OM     OM1  529   1.184   4.233   9.305  0.0000  0.0000  0.0000
  530OM     OM1  530   1.159   3.982   9.256  0.0000  0.0000  0.0000
  531OM     OM1  531   0.968   4.102   9.401  0.0000  0.0000  0.0000
  532OM     OM1  532   0.998   4.153   9.150  0.0000  0.0000  0.0000
  533OM     OM1  533   3.933   9.577   9.201  0.0000  0.0000  0.0000
  534OM     OM1  534   3.955   9.506   8.952  0.0000  0.0000  0.0000
  535OM     OM1  535   3.906   0.141   8.989  0.0000  0.0000  0.0000
  536OM     OM1  536   3.474   6.351   1.059  0.0000  0.0000  0.0000
  537OM     OM1  537   3.505   6.612   1.030  0.0000  0.0000  0.0000
  538OM     OM1  538   3.712   6.459   1.017  0.0000  0.0000  0.0000
  539OM     OM1  539   1.575   8.690   8.858  0.0000  0.0000  0.0000
  540OM     OM1  540   1.330   8.606   8.881  0.0000  0.0000  0.0000
  541OM     OM1  541   1.459   8.707   9.086  0.0000  0.0000  0.0000
  542OM     OM1  542   1.383   8.864   8.884  0.0000  0.0000  0.0000
  543OM     OM1  543   5.557   3.463   0.180  0.0000  0.0000  0.0000
  544OM     OM1  544   5.746   3.281   0.144  0.0000  0.0000  0.0000
  545OM     OM1  545   5.804   3.510   0.246  0.0000  0.0000  0.0000
  546OM     OM1  546   8.809   6.342   9.112  0.0000  0.0000  0.0000
  547OM     OM1  547   8.619   6.289   9.286  0.0000  0.0000  0.0000
  548OM     OM1  548   7.974   3.984   0.575  0.0000  0.0000  0.0000
  549OM     OM1  549   7.945   4.206   0.712  0.0000  0.0000  0.0000
  550OM     OM1  550   7.822   3.998   0.797  0.0000  0.0000  0.0000
  551OM     OM1  551   7.747   4.126   0.585  0.0000  0.0000  0.0000
  552OM     OM1  552   5.103   6.192   9.553  0.0000  0.0000  0.0000
  553OM     OM1  553   4.944   6.402   9.572  0.0000  0.0000  0.0000
  554OM     OM1  554   5.091   6.378   9.360  0.0000  0.0000  0.0000
  555OM     OM1  555   4.868   6.561   0.176  0.0000  0.0000  0.0000
  556OM     OM1  556   8.482   8.423   1.138  0.0000  0.0000  0.0000
  557OM     OM1  557   8.440   8.169   1.143  0.0000  0.0000  0.0000
  558OM     OM1  558   8.674   8.269   1.213  0.0000  0.0000  0.0000
  559OM     OM1  559   6.797   1.297   8.484  0.0000  0.0000  0.0000
  560OM     OM1  560   6.760   1.037   8.423  0.0000  0.0000  0.0000
  561OM     OM1  561   6.968   1.122   8.563  0.0000  0.0000  0.0000
  562OM     OM1  562   2.863   2.494   8.888  0.0000  0.0000  0.0000
  563OM     OM1  563   2.696   2.409   8.722  0.0000  0.0000  0.0000
  564OM     OM1  564   2.863   2.235   8.827  0.0000  0.0000  0.0000
  565OM     OM1  565   2.675   2.333   8.977  0.0000  0.0000  0.0000
  566OM     OM1  566   6.211   6.817   8.532  0.0000  0.0000  0.0000
  567OM     OM1  567   6.343   6.953   8.711  0.0000  0.0000  0.0000
  568OM     OM1  568   6.335   7.049   8.471  0.0000  0.0000  0.0000
  569OM     OM1  569   6.467   6.829   8.513  0.0000  0.0000  0.0000
  570OM     OM1  570   9.144   7.905   0.573  0.0000  0.0000  0.0000
  571OM     OM1  571   9.391   7.996   0.568  0.0000  0.0000  0.0000
  572OM     OM1  572   9.183   8.142   0.657  0.0000  0.0000  0.0000
  573OM     OM1  573   9.226   8.082   0.400  0.0000  0.0000  0.0000
  574OM     OM1  574   7.133   3.974   0.245  0.0000  0.0000  0.0000
  575OM     OM1  575   7.367   4.061   0.181  0.0000  0.0000  0.0000
  576OM     OM1  576   7.330   3.796   0.218  0.0000  0.0000  0.0000
  577OM     OM1  577   7.342   3.949   0.415  0.0000  0.0000  0.0000
  578OM     OM1  578   1.100   4.973   1.098  0.0000  0.0000  0.0000
  579OM     OM1  579   1.087   5.202   1.213  0.0000  0.0000  0.0000
  580OM     OM1  580   0.384   7.382   8.775  0.0000  0.0000  0.0000
  581OM     OM1  581   0.159   7.311   8.711  0.0000  0.0000  0.0000
  582OM     OM1  582   0.199   7.524   8.882  0.0000  0.0000  0.0000
  583OM     OM1  583   6.072   9.107   8.363  0.0000  0.0000  0.0000
  584OM     OM1  584   5.882   9.270   8.442  0.0000  0.0000  0.0000
  585OM     OM1  585   8.055   5.841   9.222  0.0000  0.0000  0.0000
  586OM     OM1  586   8.185   5.647   9.128  0.0000  0.0000  0.0000
  587OM     OM1  587   8.257   5.892   9.064  0.0000  0.0000  0.0000
  588OM     OM1  588   8.052   5.778   8.953  0.0000  0.0000  0.0000
  589OM     OM1  589   1.715   9.357   0.006  0.0000  0.0000  0.0000
  590OM     OM1  590   1.495   9.237   0.037  0.0000  0.0000  0.0000
  591OM     OM1  591   1.552   9.463   0.173  0.0000  0.0000  0.0000
  592OM     OM1  592   1.485   9.475   9.530  0.0000  0.0000  0.0000
  593OM     OM1  593   2.275   5.611   9.167  0.0000  0.0000  0.0000
  594OM     OM1  594   2.519   5.628   9.246  0.0000  0.0000  0.0000
  595OM     OM1  595   2.432   5.797   9.065  0.0000  0.0000  0.0000
  596OM     OM1  596   2.357   5.822   9.304  0.0000  0.0000  0.0000
  597OM     OM1  597   9.042   5.126   1.049  0.0000  0.0000  0.0000
  598OM     OM1  598   9.093   5.056   1.293  0.0000  0.0000  0.0000
  599OM     OM1  599   9.228   4.950   1.098  0.0000  0.0000  0.0000
  600OM     OM1  600   8.983   4.873   1.135  0.0000  0.0000  0.0000
  601OM     OM1  601   3.508   0.286   1.343  0.0000  0.0000  0.0000
  602OM     OM1  602   3.681   0.260   1.150  0.0000  0.0000  0.0000
  603OM     OM1  603   3.738   0.388   1.366  0.0000  0.0000  0.0000
  604OM     OM1  604   7.614   0.006   9.054  0.0000  0.0000  0.0000
  605OM     OM1  605   7.639   0.270   9.115  0.0000  0.0000  0.0000
  606OM     OM1  606   7.831   0.115   9.153  0.0000  0.0000  0.0000
  607OM     OM1  607   7.609   0.080   9.298  0.0000  0.0000  0.0000
  608OM     OM1  608   7.926   0.118   8.909  0.0000  0.0000  0.0000
  609OM     OM1  609   8.077   0.051   9.115  0.0000  0.0000  0.0000
  610OM     OM1  610   8.015   0.293   9.081  0.0000  0.0000  0.0000
  611OM     OM1  611   6.188   3.234   0.789  0.0000  0.0000  0.0000
  612OM     OM1  612   6.048   3.247   1.014  0.0000  0.0000  0.0000
  613OM     OM1  613   5.966   3.391   0.815  0.0000  0.0000  0.0000
  614OM     OM1  614   5.958   3.123   0.802  0.0000  0.0000  0.0000
  615OM     OM1  615   1.646   2.426   9.311  0.0000  0.0000  0.0000
  616OM     OM1  616   1.678   2.310   9.556  0.0000  0.0000  0.0000
  617OM     OM1  617   1.511   2.509   9.522  0.0000  0.0000  0.0000
  618OM     OM1  618   1.773   2.542   9.502  0.0000  0.0000  0.0000
  619OM     OM1  619   6.797   1.334   1.260  0.0000  0.0000  0.0000
  620OM     OM1  620   6.604   1.495   1.322  0.0000  0.0000  0.0000
  621OM     OM1  621   6.775   1.564   1.131  0.0000  0.0000  0.0000
  622OM     OM1  622   0.138   7.047   0.307  0.0000  0.0000  0.0000
  623OM     OM1  623   9.522   6.975   0.170  0.0000  0.0000  0.0000
  624OM     OM1  624   9.572   6.869   0.401  0.0000  0.0000  0.0000
  625OM     OM1  625   0.117   6.815   0.189  0.0000  0.0000  0.0000
  626OM     OM1  626   4.524   9.196   8.854  0.0000  0.0000  0.0000
  627OM     OM1  627   4.654   9.029   8.989  0.0000  0.0000  0.0000
  628OM     OM1  628   4.789   9.124   8.790  0.0000  0.0000  0.0000
  629OM     OM1  629   8.476   7.716   9.523  0.0000  0.0000  0.0000
  630OM     OM1  630   8.498   7.737   9.254  0.0000  0.0000  0.0000
  631OM     OM1  631   8.406   7.529   9.363  0.0000  0.0000  0.0000
  632OM     OM1  632   4.801   0.008   9.081  0.0000  0.0000  0.0000
  633OM     OM1  633   4.855   0.274   9.074  0.0000  0.0000  0.0000
  634OM     OM1  634   4.998   0.111   9.208  0.0000  0.0000  0.0000
  635OM     OM1  635   4.756   0.157   9.289  0.0000  0.0000  0.0000
  636OM     OM1  636   8.710   6.556   0.057  0.0000  0.0000  0.0000
  637OM     OM1  637   8.890   6.745   0.086  0.0000  0.0000  0.0000
  638OM     OM1  638   8.962   6.493   0.056  0.0000  0.0000  0.0000
  639OM     OM1  639   8.849   6.578   0.280  0.0000  0.0000  0.0000
  640OM     OM1  640   0.406   0.713   0.172  0.0000  0.0000  0.0000
  641OM     OM1  641   0.512   0.477   0.192  0.0000  0.0000  0.0000
  642OM     OM1  642   0.328   0.507   0.016  0.0000  0.0000  0.0000
  643OM     OM1  643   0.561   0.625   9.584  0.0000  0.0000  0.0000
  644OM     OM1  644   8.863   2.071   9.433  0.0000  0.0000  0.0000
  645OM     OM1  645   8.883   1.989   9.190  0.0000  0.0000  0.0000
  646OM     OM1  646   8.776   1.832   9.372  0.0000  0.0000  0.0000
  647OM     OM1  647   7.809   7.710   0.402  0.0000  0.0000  0.0000
  648OM     OM1  648   7.639   7.814   0.232  0.0000  0.0000  0.0000
  649OM     OM1  649   7.578   7.673   0.456  0.0000  0.0000  0.0000
  650OM     OM1  650   7.664   7.558   0.235  0.0000  0.0000  0.0000
  651OM     OM1  651   9.454   0.749   8.514  0.0000  0.0000  0.0000
  652OM     OM1  652   0.057   0.706   8.371  0.0000  0.0000  0.0000
  653OM     OM1  653   0.081   0.838   8.596  0.0000  0.0000  0.0000
  654OM     OM1  654   9.556   0.945   8.395  0.0000  0.0000  0.0000
  655OM     OM1  655   8.437   7.631   0.159  0.0000  0.0000  0.0000
  656OM     OM1  656   8.540   7.864   0.120  0.0000  0.0000  0.0000
  657OM     OM1  657   8.519   1.612   0.138  0.0000  0.0000  0.0000
  658OM     OM1  658   8.265   1.639   0.201  0.0000  0.0000  0.0000
  659OM     OM1  659   8.346   1.442   0.050  0.0000  0.0000  0.0000
  660OM     OM1  660   8.070   1.558   0.361  0.0000  0.0000  0.0000
  661OM     OM1  661   0.312   8.846   0.740  0.0000  0.0000  0.0000
  662OM     OM1  662   0.090   8.918   0.638  0.0000  0.0000  0.0000
  663OM     OM1  663   0.081   9.164   0.570  0.0000  0.0000  0.0000
  664OM     OM1  664   0.266   8.798   0.483  0.0000  0.0000  0.0000
  665OM     OM1  665   9.581   1.253   0.351  0.0000  0.0000  0.0000
  666OM     OM1  666   9.487   1.069   0.513  0.0000  0.0000  0.0000
  667OM     OM1  667   0.126   1.429   0.478  0.0000  0.0000  0.0000
  668OM     OM1  668   0.212   1.335   0.255  0.0000  0.0000  0.0000
  669OM     OM1  669   0.424   5.300   8.488  0.0000  0.0000  0.0000
  670OM     OM1  670   0.638   5.147   8.474  0.0000  0.0000  0.0000
  671OM     OM1  671   5.621   4.250   9.153  0.0000  0.0000  0.0000
  672OM     OM1  672   5.662   4.022   9.041  0.0000  0.0000  0.0000
  673OM     OM1  673   5.828   4.234   9.321  0.0000  0.0000  0.0000
  674OM     OM1  674   5.423   4.090   9.101  0.0000  0.0000  0.0000
  675OM     OM1  675   0.515   4.238   1.287  0.0000  0.0000  0.0000
  676OM     OM1  676   0.735   4.168   1.418  0.0000  0.0000  0.0000
  677OM     OM1  677   0.570   3.994   1.315  0.0000  0.0000  0.0000
  678OM     OM1  678   3.410   3.698   0.069  0.0000  0.0000  0.0000
  679OM     OM1  679   3.318   3.461   0.015  0.0000  0.0000  0.0000
  680OM     OM1  680   3.306   3.632   9.431  0.0000  0.0000  0.0000
  681OM     OM1  681   3.383   3.938   0.146  0.0000  0.0000  0.0000
  682OM     OM1  682   8.945   5.656   9.150  0.0000  0.0000  0.0000
  683OM     OM1  683   9.138   5.841   8.882  0.0000  0.0000  0.0000
  684OM     OM1  684   9.162   5.498   9.152  0.0000  0.0000  0.0000
  685OM     OM1  685   9.063   5.595   8.930  0.0000  0.0000  0.0000
  686OM     OM1  686   7.510   2.220   8.573  0.0000  0.0000  0.0000
  687OM     OM1  687   7.351   2.015   8.592  0.0000  0.0000  0.0000
  688OM     OM1  688   7.329   2.201   8.760  0.0000  0.0000  0.0000
  689OM     OM1  689   7.550   2.060   8.771  0.0000  0.0000  0.0000
  690OM     OM1  690   8.540   0.726   9.540  0.0000  0.0000  0.0000
  691OM     OM1  691   8.422   0.836   0.327  0.0000  0.0000  0.0000
  692OM     OM1  692   8.396   0.886   0.076  0.0000  0.0000  0.0000
  693OM     OM1  693   0.443   4.189   8.777  0.0000  0.0000  0.0000
  694OM     OM1  694   0.632   4.343   8.688  0.0000  0.0000  0.0000
  695OM     OM1  695   0.383   4.382   8.603  0.0000  0.0000  0.0000
  696OM     OM1  696   0.517   4.163   8.538  0.0000  0.0000  0.0000
  697OM     OM1  697   2.827   6.880   8.694  0.0000  0.0000  0.0000
  698OM     OM1  698   2.596   6.951   8.620  0.0000  0.0000  0.0000
  699OM     OM1  699   2.722   7.072   8.822  0.0000  0.0000  0.0000
  700OM     OM1  700   2.614   6.832   8.850  0.0000  0.0000  0.0000
  701OM     OM1  701   5.881   0.412   0.705  0.0000  0.0000  0.0000
  702OM     OM1  702   6.112   0.392   0.809  0.0000  0.0000  0.0000
  703OM     OM1  703   6.051   0.248   0.591  0.0000  0.0000  0.0000
  704OM     OM1  704   3.341   4.532   0.115  0.0000  0.0000  0.0000
  705OM     OM1  705   3.408   4.530   0.377  0.0000  0.0000  0.0000
  706OM     OM1  706   3.527   4.377   0.197  0.0000  0.0000  0.0000
  707OM     OM1  707   3.281   4.336   0.282  0.0000  0.0000  0.0000
  708OM     OM1  708   8.140   8.958   1.189  0.0000  0.0000  0.0000
  709OM     OM1  709   8.211   8.927   0.936  0.0000  0.0000  0.0000
  710OM     OM1  710   8.210   9.157   1.047  0.0000  0.0000  0.0000
  711OM     OM1  711   7.984   9.037   0.993  0.0000  0.0000  0.0000
  712OM     OM1  712   9.007   3.405   0.479  0.0000  0.0000  0.0000
  713OM     OM1  713   8.979   3.365   0.222  0.0000  0.0000  0.0000
  714OM     OM1  714   9.051   3.172   0.382  0.0000  0.0000  0.0000
  715OM     OM1  715   8.824   3.086   0.442  0.0000  0.0000  0.0000
  716OM     OM1  716   3.537   0.346   0.952  0.0000  0.0000  0.0000
  717OM     OM1  717   3.706   0.503   1.048  0.0000  0.0000  0.0000
  718OM     OM1  718   3.602   0.744   1.055  0.0000  0.0000  0.0000
  719OM     OM1  719   3.662   0.669   8.498  0.0000  0.0000  0.0000
  720OM     OM1  720   3.460   0.552   8.373  0.0000  0.0000  0.0000
  721OM     OM1  721   3.707   0.475   8.332  0.0000  0.0000  0.0000
  722OM     OM1  722   0.197   8.078   1.242  0.0000  0.0000  0.0000
  723OM     OM1  723   9.556   8.479   1.076  0.0000  0.0000  0.0000
  724OM     OM1  724   0.053   8.258   1.145  0.0000  0.0000  0.0000
  725OM     OM1  725   3.345   6.708   0.746  0.0000  0.0000  0.0000
  726OM     OM1  726   3.540   6.856   0.690  0.0000  0.0000  0.0000
  727OM     OM1  727   3.455   6.852   0.938  0.0000  0.0000  0.0000
  728OM     OM1  728   3.293   6.955   0.762  0.0000  0.0000  0.0000
  729OM     OM1  729   2.681   3.603   8.633  0.0000  0.0000  0.0000
  730OM     OM1  730   2.557   3.390   8.735  0.0000  0.0000  0.0000
  731OM     OM1  731   2.527   3.630   8.832  0.0000  0.0000  0.0000
  732OM     OM1  732   2.743   3.505   8.881  0.0000  0.0000  0.0000
  733OM     OM1  733   2.155   5.967   8.920  0.0000  0.0000  0.0000
  734OM     OM1  734   1.938   5.975   9.063  0.0000  0.0000  0.0000
  735OM     OM1  735   2.039   5.747   8.976  0.0000  0.0000  0.0000
  736OM     OM1  736   2.147   5.884   9.177  0.0000  0.0000  0.0000
  737OM     OM1  737   4.058   3.643   9.502  0.0000  0.0000  0.0000
  738OM     OM1  738   4.273   3.502   9.525  0.0000  0.0000  0.0000
  739OM     OM1  739   4.294   3.758   9.555  0.0000  0.0000  0.0000
  740OM     OM1  740   4.172   3.607   0.129  0.0000  0.0000  0.0000
  741OM     OM1  741   9.274   8.884   8.474  0.0000  0.0000  0.0000
  742OM     OM1  742   9.306   9.145   8.465  0.0000  0.0000  0.0000
  743OM     OM1  743   9.444   9.005   8.639  0.0000  0.0000  0.0000
  744OM     OM1  744   9.499   9.003   8.385  0.0000  0.0000  0.0000
  745OM     OM1  745   5.153   1.032   0.473  0.0000  0.0000  0.0000
  746OM     OM1  746   5.375   0.975   0.615  0.0000  0.0000  0.0000
  747OM     OM1  747   5.212   0.788   0.527  0.0000  0.0000  0.0000
  748OM     OM1  748   5.137   0.938   0.722  0.0000  0.0000  0.0000
  749OM     OM1  749   3.285   9.297   0.617  0.0000  0.0000  0.0000
  750OM     OM1  750   3.534   9.211   0.608  0.0000  0.0000  0.0000
  751OM     OM1  751   3.488   9.394   0.782  0.0000  0.0000  0.0000
  752OM     OM1  752   3.372   9.166   0.816  0.0000  0.0000  0.0000
  753OM     OM1  753   7.113   8.039   9.348  0.0000  0.0000  0.0000
  754OM     OM1  754   6.866   8.071   9.429  0.0000  0.0000  0.0000
  755OM     OM1  755   7.061   8.103   9.589  0.0000  0.0000  0.0000
  756OM     OM1  756   7.016   8.286   9.390  0.0000  0.0000  0.0000
  757OM     OM1  757   8.978   5.168   9.131  0.0000  0.0000  0.0000
  758OM     OM1  758   8.957   5.224   8.882  0.0000  0.0000  0.0000
  759OM     OM1  759   8.746   5.226   9.021  0.0000  0.0000  0.0000
  760OM     OM1  760   8.932   5.413   9.063  0.0000  0.0000  0.0000
  761OM     OM1  761   3.460   5.500   9.380  0.0000  0.0000  0.0000
  762OM     OM1  762   3.274   5.336   9.440  0.0000  0.0000  0.0000
  763OM     OM1  763   3.444   5.283   9.243  0.0000  0.0000  0.0000
  764OM     OM1  764   3.535   5.275   9.485  0.0000  0.0000  0.0000
  765OM     OM1  765   1.706   7.766   9.603  0.0000  0.0000  0.0000
  766OM     OM1  766   1.598   7.842   9.373  0.0000  0.0000  0.0000
  767OM     OM1  767   1.467   7.701   9.552  0.0000  0.0000  0.0000
  768OM     OM1  768   1.505   7.950   9.590  0.0000  0.0000  0.0000
  769OM     OM1  769   0.147   4.452   8.688  0.0000  0.0000  0.0000
  770OM     OM1  770   0.122   4.570   8.916  0.0000  0.0000  0.0000
  771OM     OM1  771   9.517   4.484   8.814  0.0000  0.0000  0.0000
  772OM     OM1  772   0.080   4.296   8.879  0.0000  0.0000  0.0000
  773OM     OM1  773   1.079   3.158   8.573  0.0000  0.0000  0.0000
  774OM     OM1  774   1.105   2.933   8.444  0.0000  0.0000  0.0000
  775OM     OM1  775   0.958   3.121   8.344  0.0000  0.0000  0.0000
  776OM     OM1  776   4.509   5.015   9.493  0.0000  0.0000  0.0000
  777OM     OM1  777   4.339   4.812   9.483  0.0000  0.0000  0.0000
  778OM     OM1  778   4.086   4.788   9.432  0.0000  0.0000  0.0000
  779OM     OM1  779   1.760   1.211   1.254  0.0000  0.0000  0.0000
  780OM     OM1  780   1.635   1.250   1.033  0.0000  0.0000  0.0000
  781OM     OM1  781   1.889   1.279   1.042  0.0000  0.0000  0.0000
  782OM     OM1  782   1.790   1.035   1.057  0.0000  0.0000  0.0000
  783OM     OM1  783   3.609   9.426   8.375  0.0000  0.0000  0.0000
  784OM     OM1  784   3.432   9.571   8.496  0.0000  0.0000  0.0000
  785OM     OM1  785   3.382   9.310   8.442  0.0000  0.0000  0.0000
  786OM     OM1  786   8.430   8.241   0.061  0.0000  0.0000  0.0000
  787OM     OM1  787   8.224   8.363   9.573  0.0000  0.0000  0.0000
  788OM     OM1  788   8.452   8.377   9.451  0.0000  0.0000  0.0000
  789OM     OM1  789   8.320   8.152   9.441  0.0000  0.0000  0.0000
  790OM     OM1  790   9.430   4.850   8.538  0.0000  0.0000  0.0000
  791OM     OM1  791   9.415   4.605   8.478  0.0000  0.0000  0.0000
  792OM     OM1  792   9.226   4.765   8.392  0.0000  0.0000  0.0000
  793OM     OM1  793   6.554   3.861   1.222  0.0000  0.0000  0.0000
  794OM     OM1  794   9.373   5.122   0.973  0.0000  0.0000  0.0000
  795OM     OM1  795   9.429   4.871   0.943  0.0000  0.0000  0.0000
  796OM     OM1  796   9.467   4.991   1.180  0.0000  0.0000  0.0000
  797OM     OM1  797   6.412   5.113   1.071  0.0000  0.0000  0.0000
  798OM     OM1  798   6.190   5.010   1.171  0.0000  0.0000  0.0000
  799OM     OM1  799   6.424   4.911   1.230  0.0000  0.0000  0.0000
  800OM     OM1  800   3.304   5.721   1.220  0.0000  0.0000  0.0000
  801OM     OM1  801   3.087   5.703   1.363  0.0000  0.0000  0.0000
  802OM     OM1  802   4.358   2.745   0.628  0.0000  0.0000  0.0000
  803OM     OM1  803   4.149   2.746   0.780  0.0000  0.0000  0.0000
  804OM     OM1  804   4.378   2.842   0.872  0.0000  0.0000  0.0000
  805OM     OM1  805   4.248   2.975   0.705  0.0000  0.0000  0.0000
  806OM     OM1  806   1.102   3.513   0.184  0.0000  0.0000  0.0000
  807OM     OM1  807   1.294   3.420   0.057  0.0000  0.0000  0.0000
  808OM     OM1  808   1.136   3.594   9.545  0.0000  0.0000  0.0000
  809OM     OM1  809   1.275   3.710   0.200  0.0000  0.0000  0.0000
  810OM     OM1  810   6.938   0.796   9.426  0.0000  0.0000  0.0000
  811OM     OM1  811   6.746   0.609   9.414  0.0000  0.0000  0.0000
  812OM     OM1  812   6.948   0.565   9.568  0.0000  0.0000  0.0000
  813OM     OM1  813   6.792   0.746   0.025  0.0000  0.0000  0.0000
  814OM     OM1  814   8.440   4.017   1.190  0.0000  0.0000  0.0000
  815OM     OM1  815   8.510   4.252   1.167  0.0000  0.0000  0.0000
  816OM     OM1  816   8.427   4.124   0.950  0.0000  0.0000  0.0000
  817OM     OM1  817   8.254   4.199   1.132  0.0000  0.0000  0.0000
  818OM     OM1  818   4.484   0.881   0.373  0.0000  0.0000  0.0000
  819OM     OM1  819   4.562   0.798   0.612  0.0000  0.0000  0.0000
  820OM     OM1  820   4.348   0.684   0.518  0.0000  0.0000  0.0000
  821OM     OM1  821   4.578   0.644   0.406  0.0000  0.0000  0.0000
  822OM     OM1  822   8.852   1.018   9.363  0.0000  0.0000  0.0000
  823OM     OM1  823   9.031   1.158   9.524  0.0000  0.0000  0.0000
  824OM     OM1  824   9.042   0.901   9.483  0.0000  0.0000  0.0000
  825OM     OM1  825   9.440   1.915   0.831  0.0000  0.0000  0.0000
  826OM     OM1  826   0.094   1.850   0.808  0.0000  0.0000  0.0000
  827OM     OM1  827   9.290   1.977   1.033  0.0000  0.0000  0.0000
  828OM     OM1  828   9.366   1.738   0.998  0.0000  0.0000  0.0000
  829OM     OM1  829   7.114   1.940   0.064  0.0000  0.0000  0.0000
  830OM     OM1  830   6.993   1.832   9.451  0.0000  0.0000  0.0000
  831OM     OM1  831   7.179   1.712   9.567  0.0000  0.0000  0.0000
  832OM     OM1  832   6.939   1.741   0.079  0.0000  0.0000  0.0000
  833OM     OM1  833   0.960   8.333   8.763  0.0000  0.0000  0.0000
  834OM     OM1  834   1.044   8.160   8.935  0.0000  0.0000  0.0000
  835OM     OM1  835   1.185   8.381   8.885  0.0000  0.0000  0.0000
  836OM     OM1  836   0.951   8.384   9.018  0.0000  0.0000  0.0000
  837OM     OM1  837   1.097   1.499   1.280  0.0000  0.0000  0.0000
  838OM     OM1  838   1.042   1.744   1.242  0.0000  0.0000  0.0000
  839OM     OM1  839   0.904   1.552   1.108  0.0000  0.0000  0.0000
  840OM     OM1  840   3.158   9.262   1.394  0.0000  0.0000  0.0000
  841OM     OM1  841   6.310   0.610   0.045  0.0000  0.0000  0.0000
  842OM     OM1  842   6.362   0.807   0.225  0.0000  0.0000  0.0000
  843OM     OM1  843   6.550   0.701   0.102  0.0000  0.0000  0.0000
  844OM     OM1  844   6.412   0.555   0.278  0.0000  0.0000  0.0000
  845OM     OM1  845   2.488   8.534   8.261  0.0000  0.0000  0.0000
  846OM     OM1  846   1.895   0.401   9.095  0.0000  0.0000  0.0000
  847OM     OM1  847   1.737   0.232   8.976  0.0000  0.0000  0.0000
  848OM     OM1  848   1.643   0.398   9.148  0.0000  0.0000  0.0000
  849OM     OM1  849   3.588   3.791   0.246  0.0000  0.0000  0.0000
  850OM     OM1  850   3.540   3.558   9.506  0.0000  0.0000  0.0000
  851OM     OM1  851   3.581   3.874   9.599  0.0000  0.0000  0.0000
  852OM     OM1  852   7.212   4.606   8.628  0.0000  0.0000  0.0000
  853OM     OM1  853   7.290   4.434   8.450  0.0000  0.0000  0.0000
  854OM     OM1  854   7.447   4.640   8.538  0.0000  0.0000  0.0000
  855OM     OM1  855   7.413   4.436   8.681  0.0000  0.0000  0.0000
  856OM     OM1  856   6.934   8.927   0.805  0.0000  0.0000  0.0000
  857OM     OM1  857   6.967   9.043   1.044  0.0000  0.0000  0.0000
  858OM     OM1  858   7.158   9.036   0.874  0.0000  0.0000  0.0000
  859OM     OM1  859   6.948   9.184   0.826  0.0000  0.0000  0.0000
  860OM     OM1  860   6.139   6.658   0.031  0.0000  0.0000  0.0000
  861OM     OM1  861   5.886   6.665   0.056  0.0000  0.0000  0.0000
  862OM     OM1  862   6.006   6.868   9.562  0.0000  0.0000  0.0000
  863OM     OM1  863   5.988   6.638   9.423  0.0000  0.0000  0.0000
  864OM     OM1  864   1.233   3.253   1.180  0.0000  0.0000  0.0000
  865OM     OM1  865   1.111   3.087   1.022  0.0000  0.0000  0.0000
  866OM     OM1  866   1.318   3.069   0.868  0.0000  0.0000  0.0000
  867OM     OM1  867   1.275   3.011   1.209  0.0000  0.0000  0.0000
  868OM     OM1  868   9.597   8.726   1.154  0.0000  0.0000  0.0000
  869OM     OM1  869   0.177   8.554   1.172  0.0000  0.0000  0.0000
  870OM     OM1  870   0.103   8.630   0.931  0.0000  0.0000  0.0000
  871OM     OM1  871   7.273   9.247   0.772  0.0000  0.0000  0.0000
  872OM     OM1  872   7.182   9.505   0.785  0.0000  0.0000  0.0000
  873OM     OM1  873   7.436   9.445   0.743  0.0000  0.0000  0.0000
  874OM     OM1  874   7.243   9.397   0.569  0.0000  0.0000  0.0000
  875OM     OM1  875   4.853   8.540   0.236  0.0000  0.0000  0.0000
  876OM     OM1  876   4.655   8.687   0.146  0.0000  0.0000  0.0000
  877OM     OM1  877   4.602   8.461   0.257  0.0000  0.0000  0.0000
  878OM     OM1  878   4.705   8.644   0.410  0.0000  0.0000  0.0000
  879OM     OM1  879   2.378   0.905   0.140  0.0000  0.0000  0.0000
  880OM     OM1  880   2.184   0.891   0.323  0.0000  0.0000  0.0000
  881OM     OM1  881   2.415   0.794   0.379  0.0000  0.0000  0.0000
  882OM     OM1  882   2.264   0.681   0.190  0.0000  0.0000  0.0000
  883OM     OM1  883   2.137   8.702   8.837  0.0000  0.0000  0.0000
  884OM     OM1  884   2.024   8.929   8.914  0.0000  0.0000  0.0000
  885OM     OM1  885   2.165   8.896   8.688  0.0000  0.0000  0.0000
  886OM     OM1  886   2.277   8.908   8.937  0.0000  0.0000  0.0000
  887OM     OM1  887   7.054   8.030   1.211  0.0000  0.0000  0.0000
  888OM     OM1  888   6.938   7.840   1.075  0.0000  0.0000  0.0000
  889OM     OM1  889   6.812   8.004   1.261  0.0000  0.0000  0.0000
  890OM     OM1  890   5.991   2.802   0.154  0.0000  0.0000  0.0000
  891OM     OM1  891   6.039   2.689   9.529  0.0000  0.0000  0.0000
  892OM     OM1  892   6.205   2.646   0.111  0.0000  0.0000  0.0000
  893OM     OM1  893   5.975   2.540   0.137  0.0000  0.0000  0.0000
  894OM     OM1  894   5.466   5.718   8.663  0.0000  0.0000  0.0000
  895OM     OM1  895   5.308   5.503   8.400  0.0000  0.0000  0.0000
  896OM     OM1  896   5.597   5.926   8.588  0.0000  0.0000  0.0000
  897OM     OM1  897   5.508   5.354   8.498  0.0000  0.0000  0.0000
  898OM     OM1  898   2.601   8.231   9.201  0.0000  0.0000  0.0000
  899OM     OM1  899   2.427   8.179   8.996  0.0000  0.0000  0.0000
  900OM     OM1  900   2.592   8.000   9.073  0.0000  0.0000  0.0000
  901OM     OM1  901   2.394   8.080   9.226  0.0000  0.0000  0.0000
  902OM     OM1  902   0.068   8.769   8.836  0.0000  0.0000  0.0000
  903OM     OM1  903   0.175   8.739   8.611  0.0000  0.0000  0.0000
  904OM     OM1  904   0.325   8.813   8.811  0.0000  0.0000  0.0000
  905OM     OM1  905   0.238   8.572   8.823  0.0000  0.0000  0.0000
  906OM     OM1  906   0.373   7.606   8.636  0.0000  0.0000  0.0000
  907OM     OM1  907   0.661   7.906   8.909  0.0000  0.0000  0.0000
  908OM     OM1  908   0.773   7.839   8.689  0.0000  0.0000  0.0000
  909OM     OM1  909   0.519   7.804   8.690  0.0000  0.0000  0.0000
  910OM     OM1  910   6.602   6.587   0.553  0.0000  0.0000  0.0000
  911OM     OM1  911   6.728   6.801   0.608  0.0000  0.0000  0.0000
  912OM     OM1  912   6.663   6.762   0.368  0.0000  0.0000  0.0000
  913OM     OM1  913   6.470   6.808   0.562  0.0000  0.0000  0.0000
  914OM     OM1  914   7.436   3.376   8.632  0.0000  0.0000  0.0000
  915OM     OM1  915   7.491   3.471   8.871  0.0000  0.0000  0.0000
  916OM     OM1  916   7.554   3.595   8.665  0.0000  0.0000  0.0000
  917OM     OM1  917   7.284   3.560   8.718  0.0000  0.0000  0.0000
  918OM     OM1  918   4.804   7.775   9.095  0.0000  0.0000  0.0000
  919OM     OM1  919   4.910   7.965   9.229  0.0000  0.0000  0.0000
  920OM     OM1  920   4.827   7.762   9.365  0.0000  0.0000  0.0000
  921OM     OM1  921   2.696   0.114   9.374  0.0000  0.0000  0.0000
  922OM     OM1  922   2.778   0.254   9.185  0.0000  0.0000  0.0000
  923OM     OM1  923   2.848   9.595   9.193  0.0000  0.0000  0.0000
  924OM     OM1  924   2.612   0.065   9.130  0.0000  0.0000  0.0000
  925OM     OM1  925   2.342   5.785   0.497  0.0000  0.0000  0.0000
  926OM     OM1  926   2.391   5.878   0.743  0.0000  0.0000  0.0000
  927OM     OM1  927   2.553   5.941   0.545  0.0000  0.0000  0.0000
  928OM     OM1  928   2.302   6.031   0.559  0.0000  0.0000  0.0000
  929OM     OM1  929   6.182   1.761   0.136  0.0000  0.0000  0.0000
  930OM     OM1  930   6.313   1.563   0.021  0.0000  0.0000  0.0000
  931OM     OM1  931   6.255   1.540   0.263  0.0000  0.0000  0.0000
  932OM     OM1  932   6.054   1.536   0.091  0.0000  0.0000  0.0000
  933OM     OM1  933   2.263   7.977   8.982  0.0000  0.0000  0.0000
  934OM     OM1  934   2.018   7.925   9.034  0.0000  0.0000  0.0000
  935OM     OM1  935   2.136   7.822   8.815  0.0000  0.0000  0.0000
  936OM     OM1  936   2.192   7.731   9.055  0.0000  0.0000  0.0000
  937OM     OM1  937   3.218   1.159   1.158  0.0000  0.0000  0.0000
  938OM     OM1  938   3.252   1.419   1.191  0.0000  0.0000  0.0000
  939OM     OM1  939   3.421   1.294   1.041  0.0000  0.0000  0.0000
  940OM     OM1  940   3.409   1.256   1.302  0.0000  0.0000  0.0000
  941OM     OM1  941   6.171   6.344   8.664  0.0000  0.0000  0.0000
  942OM     OM1  942   6.183   6.103   8.723  0.0000  0.0000  0.0000
  943OM     OM1  943   6.187   6.178   8.462  0.0000  0.0000  0.0000
  944OM     OM1  944   6.398   6.193   8.618  0.0000  0.0000  0.0000
  945OM     OM1  945   0.264   6.276   0.654  0.0000  0.0000  0.0000
  946OM     OM1  946   0.153   6.253   0.408  0.0000  0.0000  0.0000
  947OM     OM1  947   0.087   6.441   0.578  0.0000  0.0000  0.0000
  948OM     OM1  948   0.020   6.201   0.634  0.0000  0.0000  0.0000
  949OM     OM1  949   4.779   6.897   8.563  0.0000  0.0000  0.0000
  950OM     OM1  950   4.973   6.664   8.895  0.0000  0.0000  0.0000
  951OM     OM1  951   4.953   6.899   8.763  0.0000  0.0000  0.0000
  952OM     OM1  952   5.032   6.693   8.642  0.0000  0.0000  0.0000
  953OM     OM1  953   8.020   3.565   8.523  0.0000  0.0000  0.0000
  954OM     OM1  954   8.073   3.687   8.753  0.0000  0.0000  0.0000
  955OM     OM1  955   7.943   3.458   8.740  0.0000  0.0000  0.0000
  956OM     OM1  956   7.819   3.666   8.667  0.0000  0.0000  0.0000
  957OM     OM1  957   7.507   5.876   9.027  0.0000  0.0000  0.0000
  958OM     OM1  958   7.473   5.886   9.281  0.0000  0.0000  0.0000
  959OM     OM1  959   7.705   5.769   8.897  0.0000  0.0000  0.0000
  960OM     OM1  960   7.727   5.922   9.230  0.0000  0.0000  0.0000
  961OM     OM1  961   2.332   5.654   0.263  0.0000  0.0000  0.0000
  962OM     OM1  962   2.110   5.728   0.382  0.0000  0.0000  0.0000
  963OM     OM1  963   2.268   5.539   0.483  0.0000  0.0000  0.0000
  964OM     OM1  964   6.584   5.445   1.290  0.0000  0.0000  0.0000
  965OM     OM1  965   6.402   5.619   1.268  0.0000  0.0000  0.0000
  966OM     OM1  966   7.360   9.000   0.725  0.0000  0.0000  0.0000
  967OM     OM1  967   7.567   8.845   0.752  0.0000  0.0000  0.0000
  968OM     OM1  968   7.497   8.934   0.521  0.0000  0.0000  0.0000
  969OM     OM1  969   7.360   8.744   0.644  0.0000  0.0000  0.0000
  970OM     OM1  970   9.140   7.089   9.164  0.0000  0.0000  0.0000
  971OM     OM1  971   9.115   7.187   9.394  0.0000  0.0000  0.0000
  972OM     OM1  972   8.950   7.260   9.208  0.0000  0.0000  0.0000
  973OM     OM1  973   8.931   7.017   9.296  0.0000  0.0000  0.0000
  974OM     OM1  974   1.669   2.761   0.808  0.0000  0.0000  0.0000
  975OM     OM1  975   1.844   2.703   1.018  0.0000  0.0000  0.0000
  976OM     OM1  976   1.584   2.684   1.041  0.0000  0.0000  0.0000
  977OM     OM1  977   1.704   2.917   1.013  0.0000  0.0000  0.0000
  978OM     OM1  978   0.131   5.388   1.236  0.0000  0.0000  0.0000
  979OM     OM1  979   0.040   5.562   1.072  0.0000  0.0000  0.0000
  980OM     OM1  980   0.122   5.652   1.298  0.0000  0.0000  0.0000
  981OM     OM1  981   2.359   7.720   0.270  0.0000  0.0000  0.0000
  982OM     OM1  982   2.527   7.752   0.464  0.0000  0.0000  0.0000
  983OM     OM1  983   2.407   7.490   0.148  0.0000  0.0000  0.0000
  984OM     OM1  984   2.415   7.707   0.016  0.0000  0.0000  0.0000
  985OM     OM1  985   1.876   2.187   8.383  0.0000  0.0000  0.0000
  986OM     OM1  986   1.032   3.065   1.262  0.0000  0.0000  0.0000
  987OM     OM1  987   1.099   2.967   0.785  0.0000  0.0000  0.0000
  988OM     OM1  988   1.227   2.854   0.972  0.0000  0.0000  0.0000
  989OM     OM1  989   8.631   5.360   8.739  0.0000  0.0000  0.0000
  990OM     OM1  990   8.577   5.183   8.560  0.0000  0.0000  0.0000
  991OM     OM1  991   8.794   5.331   8.530  0.0000  0.0000  0.0000
  992OM     OM1  992   8.789   5.148   8.703  0.0000  0.0000  0.0000
  993OM     OM1  993   4.156   6.959   8.724  0.0000  0.0000  0.0000
  994OM     OM1  994   3.973   7.153   8.672  0.0000  0.0000  0.0000
  995OM     OM1  995   4.223   7.204   8.663  0.0000  0.0000  0.0000
  996OM     OM1  996   3.851   7.593   8.920  0.0000  0.0000  0.0000
  997OM     OM1  997   3.696   7.697   9.108  0.0000  0.0000  0.0000
  998OM     OM1  998   3.923   7.583   9.158  0.0000  0.0000  0.0000
  999OM     OM1  999   3.718   7.434   9.095  0.0000  0.0000  0.0000
 1000OM     OM1 1000   7.167   6.323   9.350  0.0000  0.0000  0.0000
 1001OM     OM1 1001   7.413   6.229   9.353  0.0000  0.0000  0.0000
 1002OM     OM1 1002   7.291   6.236   9.578  0.0000  0.0000  0.0000
 1003OM     OM1 1003   7.364   6.457   9.449  0.0000  0.0000  0.0000
 1004OM     OM1 1004   5.359   8.414   0.203  0.0000  0.0000  0.0000
 1005OM     OM1 1005   5.125   8.513   0.276  0.0000  0.0000  0.0000
 1006OM     OM1 1006   5.348   8.508   0.433  0.0000  0.0000  0.0000
 1007OM     OM1 1007   5.327   8.670   0.224  0.0000  0.0000  0.0000
 1008OM     OM1 1008   3.501   1.900   0.391  0.0000  0.0000  0.0000
 1009OM     OM1 1009   3.248   1.873   0.500  0.0000  0.0000  0.0000
 1010OM     OM1 1010   3.447   2.259   0.398  0.0000  0.0000  0.0000
 1011OM     OM1 1011   3.303   2.051   0.325  0.0000  0.0000  0.0000
 1012OM     OM1 1012   1.883   5.821   0.485  0.0000  0.0000  0.0000
 1013OM     OM1 1013   1.803   6.076   0.444  0.0000  0.0000  0.0000
 1014OM     OM1 1014   2.043   6.015   0.513  0.0000  0.0000  0.0000
 1015OM     OM1 1015   1.847   5.990   0.686  0.0000  0.0000  0.0000
 1016OM     OM1 1016   1.073   4.305   0.856  0.0000  0.0000  0.0000
 1017OM     OM1 1017   1.044   4.382   1.105  0.0000  0.0000  0.0000
 1018OM     OM1 1018   1.284   4.380   1.005  0.0000  0.0000  0.0000
 1019OM     OM1 1019   1.097   4.550   0.916  0.0000  0.0000  0.0000
 1020OM     OM1 1020   7.901   3.579   8.301  0.0000  0.0000  0.0000
 1021OM     OM1 1021   8.008   3.345   8.364  0.0000  0.0000  0.0000
 1022OM     OM1 1022   8.165   3.531   8.302  0.0000  0.0000  0.0000
 1023OM     OM1 1023   5.942   8.854   0.091  0.0000  0.0000  0.0000
 1024OM     OM1 1024   6.153   8.829   0.256  0.0000  0.0000  0.0000
 1025OM     OM1 1025   5.905   8.781   0.343  0.0000  0.0000  0.0000
 1026OM     OM1 1026   5.987   9.016   0.287  0.0000  0.0000  0.0000
 1027OM     OM1 1027   6.550   6.540   1.227  0.0000  0.0000  0.0000
 1028OM     OM1 1028   6.674   6.743   1.102  0.0000  0.0000  0.0000
 1029OM     OM1 1029   6.411   6.682   1.072  0.0000  0.0000  0.0000
 1030OM     OM1 1030   0.574   8.858   8.890  0.0000  0.0000  0.0000
 1031OM     OM1 1031   0.782   8.802   9.035  0.0000  0.0000  0.0000
 1032OM     OM1 1032   0.768   8.697   8.795  0.0000  0.0000  0.0000
 1033OM     OM1 1033   0.807   8.947   8.816  0.0000  0.0000  0.0000
 1034OM     OM1 1034   0.228   4.592   1.379  0.0000  0.0000  0.0000
 1035OM     OM1 1035   0.413   4.737   1.270  0.0000  0.0000  0.0000
 1036OM     OM1 1036   4.548   6.405   1.195  0.0000  0.0000  0.0000
 1037OM     OM1 1037   4.799   6.404   1.141  0.0000  0.0000  0.0000
 1038OM     OM1 1038   4.687   6.636   1.150  0.0000  0.0000  0.0000
 1039OM     OM1 1039   4.637   6.467   0.955  0.0000  0.0000  0.0000
 1040OM     OM1 1040   0.355   8.724   1.260  0.0000  0.0000  0.0000
 1041OM     OM1 1041   0.416   8.562   1.075  0.0000  0.0000  0.0000
 1042OM     OM1 1042   0.394   8.478   1.321  0.0000  0.0000  0.0000
 1043OM     OM1 1043   0.615   8.351   1.281  0.0000  0.0000  0.0000
 1044OM     OM1 1044   0.618   8.599   1.379  0.0000  0.0000  0.0000
 1045OM     OM1 1045   3.328   4.235   9.367  0.0000  0.0000  0.0000
 1046OM     OM1 1046   3.281   4.013   9.520  0.0000  0.0000  0.0000
 1047OM     OM1 1047   3.320   4.000   9.259  0.0000  0.0000  0.0000
 1048OM     OM1 1048   3.512   4.054   9.426  0.0000  0.0000  0.0000
 1049OM     OM1 1049   4.235   8.970   9.249  0.0000  0.0000  0.0000
 1050OM     OM1 1050   4.128   9.103   9.450  0.0000  0.0000  0.0000
 1051OM     OM1 1051   4.138   9.195   9.199  0.0000  0.0000  0.0000
 1052OM     OM1 1052   0.689   6.868   9.394  0.0000  0.0000  0.0000
 1053OM     OM1 1053   0.487   6.973   9.277  0.0000  0.0000  0.0000
 1054OM     OM1 1054   0.455   6.817   9.492  0.0000  0.0000  0.0000
 1055OM     OM1 1055   0.513   6.708   9.267  0.0000  0.0000  0.0000
 1056OM     OM1 1056   6.764   2.044   0.779  0.0000  0.0000  0.0000
 1057OM     OM1 1057   6.827   1.837   0.630  0.0000  0.0000  0.0000
 1058OM     OM1 1058   6.832   2.086   0.538  0.0000  0.0000  0.0000
 1059OM     OM1 1059   7.013   2.009   0.713  0.0000  0.0000  0.0000
 1060OM     OM1 1060   6.832   8.690   0.746  0.0000  0.0000  0.0000
 1061OM     OM1 1061   6.999   8.791   0.580  0.0000  0.0000  0.0000
 1062OM     OM1 1062   6.946   8.471   0.686  0.0000  0.0000  0.0000
 1063OM     OM1 1063   5.000   7.523   8.928  0.0000  0.0000  0.0000
 1064OM     OM1 1064   5.002   7.752   8.822  0.0000  0.0000  0.0000
 1065OM     OM1 1065   5.205   7.585   8.773  0.0000  0.0000  0.0000
 1066OM     OM1 1066   9.129   6.738   0.702  0.0000  0.0000  0.0000
 1067OM     OM1 1067   9.218   6.530   0.789  0.0000  0.0000  0.0000
 1068OM     OM1 1068   8.963   6.587   0.850  0.0000  0.0000  0.0000
 1069OM     OM1 1069   9.152   6.714   0.967  0.0000  0.0000  0.0000
 1070OM     OM1 1070   9.044   7.664   0.593  0.0000  0.0000  0.0000
 1071OM     OM1 1071   8.907   7.862   0.472  0.0000  0.0000  0.0000
 1072OM     OM1 1072   8.935   7.848   0.731  0.0000  0.0000  0.0000
 1073OM     OM1 1073   4.521   6.145   1.140  0.0000  0.0000  0.0000
 1074OM     OM1 1074   4.369   6.033   0.947  0.0000  0.0000  0.0000
 1075OM     OM1 1075   4.322   5.993   1.193  0.0000  0.0000  0.0000
 1076OM     OM1 1076   4.527   5.881   1.082  0.0000  0.0000  0.0000
 1077OM     OM1 1077   5.615   7.386   1.033  0.0000  0.0000  0.0000
 1078OM     OM1 1078   5.618   7.511   0.803  0.0000  0.0000  0.0000
 1079OM     OM1 1079   5.387   7.459   0.923  0.0000  0.0000  0.0000
 1080OM     OM1 1080   5.536   7.278   0.807  0.0000  0.0000  0.0000
 1081OM     OM1 1081   1.802   6.949   8.581  0.0000  0.0000  0.0000
 1082OM     OM1 1082   1.840   7.205   8.564  0.0000  0.0000  0.0000
 1083OM     OM1 1083   2.020   7.058   8.462  0.0000  0.0000  0.0000
 1084OM     OM1 1084   1.991   7.058   8.718  0.0000  0.0000  0.0000
 1085OM     OM1 1085   0.943   7.304   8.975  0.0000  0.0000  0.0000
 1086OM     OM1 1086   1.007   7.089   9.116  0.0000  0.0000  0.0000
 1087OM     OM1 1087   0.764   7.197   9.123  0.0000  0.0000  0.0000
 1088OM     OM1 1088   0.963   7.308   9.245  0.0000  0.0000  0.0000
 1089OM     OM1 1089   0.763   5.111   9.494  0.0000  0.0000  0.0000
 1090OM     OM1 1090   0.808   5.092   0.140  0.0000  0.0000  0.0000
 1091OM     OM1 1091   1.022   5.123   9.593  0.0000  0.0000  0.0000
 1092OM     OM1 1092   0.873   5.317   0.024  0.0000  0.0000  0.0000
 1093OM     OM1 1093   8.102   9.451   9.274  0.0000  0.0000  0.0000
 1094OM     OM1 1094   8.095   0.090   9.371  0.0000  0.0000  0.0000
 1095OM     OM1 1095   8.303   0.015   9.251  0.0000  0.0000  0.0000
 1096OM     OM1 1096   8.460   0.512   8.928  0.0000  0.0000  0.0000
 1097OM     OM1 1097   8.319   0.313   8.838  0.0000  0.0000  0.0000
 1098OM     OM1 1098   8.480   0.278   9.044  0.0000  0.0000  0.0000
 1099OM     OM1 1099   8.255   0.413   9.063  0.0000  0.0000  0.0000
 1100OM     OM1 1100   3.381   8.537   9.344  0.0000  0.0000  0.0000
 1101OM     OM1 1101   3.583   8.650   9.464  0.0000  0.0000  0.0000
 1102OM     OM1 1102   3.390   8.518   9.597  0.0000  0.0000  0.0000
 1103OM     OM1 1103   3.563   8.386   9.447  0.0000  0.0000  0.0000
 1104OM     OM1 1104   0.748   3.336   0.373  0.0000  0.0000  0.0000
 1105OM     OM1 1105   0.799   3.158   0.179  0.0000  0.0000  0.0000
 1106OM     OM1 1106   0.786   3.085   0.428  0.0000  0.0000  0.0000
 1107OM     OM1 1107   4.600   7.692   8.940  0.0000  0.0000  0.0000
 1108OM     OM1 1108   4.667   7.945   8.936  0.0000  0.0000  0.0000
 1109OM     OM1 1109   4.569   7.846   9.148  0.0000  0.0000  0.0000
 1110OM     OM1 1110   5.637   3.567   8.190  0.0000  0.0000  0.0000
 1111OM     OM1 1111   5.441   3.501   8.343  0.0000  0.0000  0.0000
 1112OM     OM1 1112   5.490   3.761   8.288  0.0000  0.0000  0.0000
 1113OM     OM1 1113   8.892   0.032   0.661  0.0000  0.0000  0.0000
 1114OM     OM1 1114   8.998   0.224   0.799  0.0000  0.0000  0.0000
 1115OM     OM1 1115   8.940   0.013   0.411  0.0000  0.0000  0.0000
 1116OM     OM1 1116   8.690   0.038   0.489  0.0000  0.0000  0.0000
 1117OM     OM1 1117   0.215   1.053   1.063  0.0000  0.0000  0.0000
 1118OM     OM1 1118   0.339   1.148   1.268  0.0000  0.0000  0.0000
 1119OM     OM1 1119   0.350   0.889   1.233  0.0000  0.0000  0.0000
 1120OM     OM1 1120   0.121   0.987   1.290  0.0000  0.0000  0.0000
 1121OM     OM1 1121   8.419   0.100   8.557  0.0000  0.0000  0.0000
 1122OM     OM1 1122   8.452   0.360   8.509  0.0000  0.0000  0.0000
 1123OM     OM1 1123   8.598   0.165   8.392  0.0000  0.0000  0.0000
 1124OM     OM1 1124   8.629   0.228   8.650  0.0000  0.0000  0.0000
 1125OM     OM1 1125   3.736   2.039   0.362  0.0000  0.0000  0.0000
 1126OM     OM1 1126   3.707   1.819   0.244  0.0000  0.0000  0.0000
 1127OM     OM1 1127   3.726   1.821   0.503  0.0000  0.0000  0.0000
 1128OM     OM1 1128   8.930   4.967   8.839  0.0000  0.0000  0.0000
 1129OM     OM1 1129   9.041   5.116   8.658  0.0000  0.0000  0.0000
 1130OM     OM1 1130   4.734   6.568   9.557  0.0000  0.0000  0.0000
 1131OM     OM1 1131   4.891   6.222   9.390  0.0000  0.0000  0.0000
 1132OM     OM1 1132   4.730   6.354   0.100  0.0000  0.0000  0.0000
 1133OM     OM1 1133   3.080   3.395   9.529  0.0000  0.0000  0.0000
 1134OM     OM1 1134   2.845   3.507   9.580  0.0000  0.0000  0.0000
 1135OM     OM1 1135   2.855   3.276   9.463  0.0000  0.0000  0.0000
 1136OM     OM1 1136   2.930   3.493   9.337  0.0000  0.0000  0.0000
 1137OM     OM1 1137   3.480   7.576   8.424  0.0000  0.0000  0.0000
 1138OM     OM1 1138   7.526   0.515   9.536  0.0000  0.0000  0.0000
 1139OM     OM1 1139   7.286   0.507   9.599  0.0000  0.0000  0.0000
 1140OM     OM1 1140   7.357   0.648   9.386  0.0000  0.0000  0.0000
 1141OM     OM1 1141   7.393   0.743   0.011  0.0000  0.0000  0.0000
 1142OM     OM1 1142   7.546   4.713   0.247  0.0000  0.0000  0.0000
 1143OM     OM1 1143   7.681   4.863   0.062  0.0000  0.0000  0.0000
 1144OM     OM1 1144   7.517   4.678   9.600  0.0000  0.0000  0.0000
 1145OM     OM1 1145   7.751   4.620   0.119  0.0000  0.0000  0.0000
 1146OM     OM1 1146   3.890   5.556   8.575  0.0000  0.0000  0.0000
 1147OM     OM1 1147   4.089   5.663   8.698  0.0000  0.0000  0.0000
 1148OM     OM1 1148   4.117   5.642   8.446  0.0000  0.0000  0.0000
 1149OM     OM1 1149   3.932   5.809   8.532  0.0000  0.0000  0.0000
 1150OM     OM1 1150   2.493   3.228   0.068  0.0000  0.0000  0.0000
 1151OM     OM1 1151   2.653   3.066   0.199  0.0000  0.0000  0.0000
 1152OM     OM1 1152   2.594   3.454   0.004  0.0000  0.0000  0.0000
 1153OM     OM1 1153   5.228   4.923   0.922  0.0000  0.0000  0.0000
 1154OM     OM1 1154   5.030   5.077   1.003  0.0000  0.0000  0.0000
 1155OM     OM1 1155   5.273   5.171   1.018  0.0000  0.0000  0.0000
 1156OM     OM1 1156   5.172   5.131   0.782  0.0000  0.0000  0.0000
 1157OM     OM1 1157   5.956   6.497   8.640  0.0000  0.0000  0.0000
 1158OM     OM1 1158   5.985   6.380   8.866  0.0000  0.0000  0.0000
 1159OM     OM1 1159   6.149   6.563   8.802  0.0000  0.0000  0.0000
 1160OM     OM1 1160   6.655   8.868   9.287  0.0000  0.0000  0.0000
 1161OM     OM1 1161   6.997   8.526   9.240  0.0000  0.0000  0.0000
 1162OM     OM1 1162   6.887   8.771   9.253  0.0000  0.0000  0.0000
 1163OM     OM1 1163   6.847   8.913   9.463  0.0000  0.0000  0.0000
 1164OM     OM1 1164   5.741   4.556   0.279  0.0000  0.0000  0.0000
 1165OM     OM1 1165   5.949   4.625   0.126  0.0000  0.0000  0.0000
 1166OM     OM1 1166   5.716   4.750   0.111  0.0000  0.0000  0.0000
 1167OM     OM1 1167   5.735   4.496   0.036  0.0000  0.0000  0.0000
 1168OM     OM1 1168   0.701   0.290   1.125  0.0000  0.0000  0.0000
 1169OM     OM1 1169   0.858   0.426   0.958  0.0000  0.0000  0.0000
 1170OM     OM1 1170   0.746   0.542   1.162  0.0000  0.0000  0.0000
 1171OM     OM1 1171   0.947   0.351   1.185  0.0000  0.0000  0.0000
 1172OM     OM1 1172   0.630   4.952   9.008  0.0000  0.0000  0.0000
 1173OM     OM1 1173   0.824   5.112   9.065  0.0000  0.0000  0.0000
 1174OM     OM1 1174   0.587   5.202   9.068  0.0000  0.0000  0.0000
 1175OM     OM1 1175   0.655   5.038   9.263  0.0000  0.0000  0.0000
 1176OM     OM1 1176   0.709   4.161   9.425  0.0000  0.0000  0.0000
 1177OM     OM1 1177   0.795   3.917   9.446  0.0000  0.0000  0.0000
 1178OM     OM1 1178   0.859   4.098   0.026  0.0000  0.0000  0.0000
 1179OM     OM1 1179   7.237   1.138   8.372  0.0000  0.0000  0.0000
 1180OM     OM1 1180   7.282   1.226   8.128  0.0000  0.0000  0.0000
 1181OM     OM1 1181   1.927   7.135   0.190  0.0000  0.0000  0.0000
 1182OM     OM1 1182   2.098   7.119   0.394  0.0000  0.0000  0.0000
 1183OM     OM1 1183   1.893   6.946   0.366  0.0000  0.0000  0.0000
 1184OM     OM1 1184   2.097   6.931   0.222  0.0000  0.0000  0.0000
 1185OM     OM1 1185   8.815   8.394   0.735  0.0000  0.0000  0.0000
 1186OM     OM1 1186   8.974   8.600   0.734  0.0000  0.0000  0.0000
 1187OM     OM1 1187   8.958   8.444   0.527  0.0000  0.0000  0.0000
 1188OM     OM1 1188   9.073   8.361   0.745  0.0000  0.0000  0.0000
 1189OM     OM1 1189   8.367   6.965   9.374  0.0000  0.0000  0.0000
 1190OM     OM1 1190   8.325   6.802   9.585  0.0000  0.0000  0.0000
 1191OM     OM1 1191   8.483   6.743   9.380  0.0000  0.0000  0.0000
 1192OM     OM1 1192   8.241   7.030   9.165  0.0000  0.0000  0.0000
 1193OM     OM1 1193   2.675   0.305   8.959  0.0000  0.0000  0.0000
 1194OM     OM1 1194   2.475   0.311   8.806  0.0000  0.0000  0.0000
 1195OM     OM1 1195   2.643   0.104   8.794  0.0000  0.0000  0.0000
 1196OM     OM1 1196   2.712   0.331   8.699  0.0000  0.0000  0.0000
 1197OM     OM1 1197   7.556   5.059   9.559  0.0000  0.0000  0.0000
 1198OM     OM1 1198   7.796   5.106   0.047  0.0000  0.0000  0.0000
 1199OM     OM1 1199   0.653   9.540   0.533  0.0000  0.0000  0.0000
 1200OM     OM1 1200   0.724   9.078   0.631  0.0000  0.0000  0.0000
 1201OM     OM1 1201   0.807   9.334   0.556  0.0000  0.0000  0.0000
 1202OM     OM1 1202   0.600   9.299   0.685  0.0000  0.0000  0.0000
 1203OM     OM1 1203   7.274   5.950   9.107  0.0000  0.0000  0.0000
 1204OM     OM1 1204   7.557   5.961   8.777  0.0000  0.0000  0.0000
 1205OM     OM1 1205   7.454   5.737   8.820  0.0000  0.0000  0.0000
 1206OM     OM1 1206   1.848   4.144   1.236  0.0000  0.0000  0.0000
 1207OM     OM1 1207   2.027   4.301   1.349  0.0000  0.0000  0.0000
 1208OM     OM1 1208   1.352   1.058   0.816  0.0000  0.0000  0.0000
 1209OM     OM1 1209   1.372   1.236   1.011  0.0000  0.0000  0.0000
 1210OM     OM1 1210   1.224   1.016   1.032  0.0000  0.0000  0.0000
 1211OM     OM1 1211   8.902   7.902   9.089  0.0000  0.0000  0.0000
 1212OM     OM1 1212   8.881   7.715   9.275  0.0000  0.0000  0.0000
 1213OM     OM1 1213   8.759   7.939   9.304  0.0000  0.0000  0.0000
 1214OM     OM1 1214   9.018   7.930   9.329  0.0000  0.0000  0.0000
 1215OM     OM1 1215   7.752   2.058   0.984  0.0000  0.0000  0.0000
 1216OM     OM1 1216   7.999   2.103   1.073  0.0000  0.0000  0.0000
 1217OM     OM1 1217   7.959   2.037   0.825  0.0000  0.0000  0.0000
 1218OM     OM1 1218   7.867   2.270   0.900  0.0000  0.0000  0.0000
 1219OM     OM1 1219   5.446   5.934   8.796  0.0000  0.0000  0.0000
 1220OM     OM1 1220   5.281   5.566   8.757  0.0000  0.0000  0.0000
 1221OM     OM1 1221   5.339   5.924   8.556  0.0000  0.0000  0.0000
 1222OM     OM1 1222   3.043   5.763   8.264  0.0000  0.0000  0.0000
 1223OM     OM1 1223   3.169   5.989   8.280  0.0000  0.0000  0.0000
 1224OM     OM1 1224   3.287   5.768   8.176  0.0000  0.0000  0.0000
 1225OM     OM1 1225   4.531   6.466   0.498  0.0000  0.0000  0.0000
 1226OM     OM1 1226   4.546   6.452   0.248  0.0000  0.0000  0.0000
 1227OM     OM1 1227   4.441   6.675   0.368  0.0000  0.0000  0.0000
 1228OM     OM1 1228   4.692   6.627   0.355  0.0000  0.0000  0.0000
 1229OM     OM1 1229   0.428   1.586   8.649  0.0000  0.0000  0.0000
 1230OM     OM1 1230   0.622   1.644   8.495  0.0000  0.0000  0.0000
 1231OM     OM1 1231   0.381   1.688   8.409  0.0000  0.0000  0.0000
 1232OM     OM1 1232   0.478   1.837   8.596  0.0000  0.0000  0.0000
 1233OM     OM1 1233   4.964   2.686   0.194  0.0000  0.0000  0.0000
 1234OM     OM1 1234   4.719   2.698   0.270  0.0000  0.0000  0.0000
 1235OM     OM1 1235   4.790   2.773   0.018  0.0000  0.0000  0.0000
 1236OM     OM1 1236   4.758   2.530   0.081  0.0000  0.0000  0.0000
 1237OM     OM1 1237   9.228   4.008   8.463  0.0000  0.0000  0.0000
 1238OM     OM1 1238   9.479   3.948   8.406  0.0000  0.0000  0.0000
 1239OM     OM1 1239   9.299   3.766   8.451  0.0000  0.0000  0.0000
 1240OM     OM1 1240   7.178   1.916   8.421  0.0000  0.0000  0.0000
 1241OM     OM1 1241   7.089   2.015   8.642  0.0000  0.0000  0.0000
 1242OM     OM1 1242   7.231   1.798   8.653  0.0000  0.0000  0.0000
 1243OM     OM1 1243   8.053   7.867   9.211  0.0000  0.0000  0.0000
 1244OM     OM1 1244   8.201   7.663   9.283  0.0000  0.0000  0.0000
 1245OM     OM1 1245   8.282   7.918   9.323  0.0000  0.0000  0.0000
 1246OM     OM1 1246   2.091   4.511   9.022  0.0000  0.0000  0.0000
 1247OM     OM1 1247   2.105   4.374   9.237  0.0000  0.0000  0.0000
 1248OM     OM1 1248   2.186   4.257   9.026  0.0000  0.0000  0.0000
 1249OM     OM1 1249   2.320   4.465   9.140  0.0000  0.0000  0.0000
 1250OM     OM1 1250   3.495   0.377   9.261  0.0000  0.0000  0.0000
 1251OM     OM1 1251   3.564   0.548   9.452  0.0000  0.0000  0.0000
 1252OM     OM1 1252   3.311   0.516   9.391  0.0000  0.0000  0.0000
 1253OM     OM1 1253   3.479   0.632   9.230  0.0000  0.0000  0.0000
 1254OM     OM1 1254   8.368   9.195   0.247  0.0000  0.0000  0.0000
 1255OM     OM1 1255   8.396   9.158   0.508  0.0000  0.0000  0.0000
 1256OM     OM1 1256   8.163   9.219   0.436  0.0000  0.0000  0.0000
 1257OM     OM1 1257   8.329   9.402   0.406  0.0000  0.0000  0.0000
 1258OM     OM1 1258   1.798   1.990   1.108  0.0000  0.0000  0.0000
 1259OM     OM1 1259   1.415   6.837   1.284  0.0000  0.0000  0.0000
 1260OM     OM1 1260   1.177   6.801   1.262  0.0000  0.0000  0.0000
 1261OM     OM1 1261   1.324   6.587   1.192  0.0000  0.0000  0.0000
 1262OM     OM1 1262   1.335   6.801   1.045  0.0000  0.0000  0.0000
 1263OM     OM1 1263   4.904   3.105   8.609  0.0000  0.0000  0.0000
 1264OM     OM1 1264   4.811   3.138   8.846  0.0000  0.0000  0.0000
 1265OM     OM1 1265   4.765   2.916   8.716  0.0000  0.0000  0.0000
 1266OM     OM1 1266   6.718   4.652   0.910  0.0000  0.0000  0.0000
 1267OM     OM1 1267   6.503   4.510   0.963  0.0000  0.0000  0.0000
 1268OM     OM1 1268   6.498   4.742   0.827  0.0000  0.0000  0.0000
 1269OM     OM1 1269   6.548   4.732   1.089  0.0000  0.0000  0.0000
 1270OM     OM1 1270   5.441   0.217   0.499  0.0000  0.0000  0.0000
 1271OM     OM1 1271   5.571   0.054   0.653  0.0000  0.0000  0.0000
 1272OM     OM1 1272   5.369   0.170   0.752  0.0000  0.0000  0.0000
 1273OM     OM1 1273   5.330   9.599   0.560  0.0000  0.0000  0.0000
 1274OM     OM1 1274   6.050   7.124   9.552  0.0000  0.0000  0.0000
 1275OM     OM1 1275   6.247   7.293   9.548  0.0000  0.0000  0.0000
 1276OM     OM1 1276   6.231   7.076   9.377  0.0000  0.0000  0.0000
 1277OM     OM1 1277   6.078   7.272   9.342  0.0000  0.0000  0.0000
 1278OM     OM1 1278   3.122   0.597   9.560  0.0000  0.0000  0.0000
 1279OM     OM1 1279   2.948   0.654   0.138  0.0000  0.0000  0.0000
 1280OM     OM1 1280   2.914   0.448   0.013  0.0000  0.0000  0.0000
 1281OM     OM1 1281   3.130   0.455   0.172  0.0000  0.0000  0.0000
 1282OM     OM1 1282   1.120   7.387   0.085  0.0000  0.0000  0.0000
 1283OM     OM1 1283   1.064   7.645   0.042  0.0000  0.0000  0.0000
 1284OM     OM1 1284   1.172   7.510   0.426  0.0000  0.0000  0.0000
 1285OM     OM1 1285   1.261   7.580   0.185  0.0000  0.0000  0.0000
 1286OM     OM1 1286   8.251   8.538   8.492  0.0000  0.0000  0.0000
 1287OM     OM1 1287   8.187   8.355   8.659  0.0000  0.0000  0.0000
 1288OM     OM1 1288   8.468   8.527   8.327  0.0000  0.0000  0.0000
 1289OM     OM1 1289   4.618   6.975   8.742  0.0000  0.0000  0.0000
 1290OM     OM1 1290   4.591   6.734   8.643  0.0000  0.0000  0.0000
 1291OM     OM1 1291   4.521   6.951   8.504  0.0000  0.0000  0.0000
 1292OM     OM1 1292   4.629   4.097   8.806  0.0000  0.0000  0.0000
 1293OM     OM1 1293   4.726   4.326   8.743  0.0000  0.0000  0.0000
 1294OM     OM1 1294   4.488   4.269   8.659  0.0000  0.0000  0.0000
 1295OM     OM1 1295   4.688   4.142   8.554  0.0000  0.0000  0.0000
 1296OM     OM1 1296   0.404   1.413   0.095  0.0000  0.0000  0.0000
 1297OM     OM1 1297   0.455   1.223   0.270  0.0000  0.0000  0.0000
 1298OM     OM1 1298   0.303   1.177   0.069  0.0000  0.0000  0.0000
 1299OM     OM1 1299   1.669   2.992   8.900  0.0000  0.0000  0.0000
 1300OM     OM1 1300   1.479   3.089   8.738  0.0000  0.0000  0.0000
 1301OM     OM1 1301   1.508   3.163   8.986  0.0000  0.0000  0.0000
 1302OM     OM1 1302   1.421   2.925   8.933  0.0000  0.0000  0.0000
 1303OM     OM1 1303   0.614   8.607   0.508  0.0000  0.0000  0.0000
 1304OM     OM1 1304   0.535   8.971   0.781  0.0000  0.0000  0.0000
 1305OM     OM1 1305   0.701   8.814   0.663  0.0000  0.0000  0.0000
 1306OM     OM1 1306   0.864   8.675   0.514  0.0000  0.0000  0.0000
 1307OM     OM1 1307   3.524   4.042   9.102  0.0000  0.0000  0.0000
 1308OM     OM1 1308   3.357   3.841   9.054  0.0000  0.0000  0.0000
 1309OM     OM1 1309   3.292   4.094   9.017  0.0000  0.0000  0.0000
 1310OM     OM1 1310   4.503   6.205   0.555  0.0000  0.0000  0.0000
 1311OM     OM1 1311   4.401   6.391   0.706  0.0000  0.0000  0.0000
 1312OM     OM1 1312   4.653   6.373   0.705  0.0000  0.0000  0.0000
 1313OM     OM1 1313   9.336   9.467   0.756  0.0000  0.0000  0.0000
 1314OM     OM1 1314   9.152   0.038   0.695  0.0000  0.0000  0.0000
 1315OM     OM1 1315   9.229   9.463   0.522  0.0000  0.0000  0.0000
 1316OM     OM1 1316   9.387   0.063   0.589  0.0000  0.0000  0.0000
 1317OM     OM1 1317   4.148   6.796   0.731  0.0000  0.0000  0.0000
 1318OM     OM1 1318   4.360   6.917   0.787  0.0000  0.0000  0.0000
 1319OM     OM1 1319   4.321   6.828   0.541  0.0000  0.0000  0.0000
 1320OM     OM1 1320   4.357   6.649   0.728  0.0000  0.0000  0.0000
 1321OM     OM1 1321   5.639   0.203   0.324  0.0000  0.0000  0.0000
 1322OM     OM1 1322   5.884   0.258   0.387  0.0000  0.0000  0.0000
 1323OM     OM1 1323   5.842   0.144   0.162  0.0000  0.0000  0.0000
 1324OM     OM1 1324   5.757   0.393   0.196  0.0000  0.0000  0.0000
 1325OM     OM1 1325   9.456   2.113   8.496  0.0000  0.0000  0.0000
 1326OM     OM1 1326   9.299   1.923   8.567  0.0000  0.0000  0.0000
 1327OM     OM1 1327   9.425   1.912   8.338  0.0000  0.0000  0.0000
 1328OM     OM1 1328   9.565   1.878   8.545  0.0000  0.0000  0.0000
 1329OM     OM1 1329   8.225   4.025   8.306  0.0000  0.0000  0.0000
 1330OM     OM1 1330   8.280   4.280   8.270  0.0000  0.0000  0.0000
 1331OM     OM1 1331   8.021   3.883   8.377  0.0000  0.0000  0.0000
 1332OM     OM1 1332   6.108   4.822   0.552  0.0000  0.0000  0.0000
 1333OM     OM1 1333   6.194   4.671   0.751  0.0000  0.0000  0.0000
 1334OM     OM1 1334   6.226   4.601   0.497  0.0000  0.0000  0.0000
 1335OM     OM1 1335   6.366   4.790   0.604  0.0000  0.0000  0.0000
 1336OM     OM1 1336   3.666   3.067   8.555  0.0000  0.0000  0.0000
 1337OM     OM1 1337   3.926   2.993   8.508  0.0000  0.0000  0.0000
 1338OM     OM1 1338   3.724   2.823   8.527  0.0000  0.0000  0.0000
 1339OM     OM1 1339   3.819   2.937   8.733  0.0000  0.0000  0.0000
 1340OM     OM1 1340   5.636   9.383   9.481  0.0000  0.0000  0.0000
 1341OM     OM1 1341   5.840   9.490   9.365  0.0000  0.0000  0.0000
 1342OM     OM1 1342   5.804   9.540   0.008  0.0000  0.0000  0.0000
 1343OM     OM1 1343   7.920   7.319   8.275  0.0000  0.0000  0.0000
 1344OM     OM1 1344   7.675   7.240   8.215  0.0000  0.0000  0.0000
 1345OM     OM1 1345   8.124   8.679   0.367  0.0000  0.0000  0.0000
 1346OM     OM1 1346   7.934   8.581   0.526  0.0000  0.0000  0.0000
 1347OM     OM1 1347   7.873   8.701   0.305  0.0000  0.0000  0.0000
 1348OM     OM1 1348   7.974   8.847   0.496  0.0000  0.0000  0.0000
 1349OM     OM1 1349   0.213   4.437   0.709  0.0000  0.0000  0.0000
 1350OM     OM1 1350   0.225   4.449   0.437  0.0000  0.0000  0.0000
 1351OM     OM1 1351   0.425   4.368   0.592  0.0000  0.0000  0.0000
 1352OM     OM1 1352   0.299   4.305   0.240  0.0000  0.0000  0.0000
 1353OM     OM1 1353   7.137   2.811   0.302  0.0000  0.0000  0.0000
 1354OM     OM1 1354   6.690   2.623   0.317  0.0000  0.0000  0.0000
 1355OM     OM1 1355   6.904   2.919   0.338  0.0000  0.0000  0.0000
 1356OM     OM1 1356   6.916   2.695   0.216  0.0000  0.0000  0.0000
 1357OM     OM1 1357   2.160   5.169   8.886  0.0000  0.0000  0.0000
 1358OM     OM1 1358   1.837   4.840   8.727  0.0000  0.0000  0.0000
 1359OM     OM1 1359   1.967   5.169   9.062  0.0000  0.0000  0.0000
 1360OM     OM1 1360   2.000   4.960   8.906  0.0000  0.0000  0.0000
 1361OM     OM1 1361   1.851   7.737   9.033  0.0000  0.0000  0.0000
 1362OM     OM1 1362   1.894   7.480   9.100  0.0000  0.0000  0.0000
 1363OM     OM1 1363   1.711   7.553   8.925  0.0000  0.0000  0.0000
 1364OM     OM1 1364   1.683   7.601   9.181  0.0000  0.0000  0.0000
 1365OM     OM1 1365   5.581   2.426   0.475  0.0000  0.0000  0.0000
 1366OM     OM1 1366   5.766   2.478   0.651  0.0000  0.0000  0.0000
 1367OM     OM1 1367   5.498   2.437   0.710  0.0000  0.0000  0.0000
 1368OM     OM1 1368   5.575   2.654   0.597  0.0000  0.0000  0.0000
 1369OM     OM1 1369   4.427   3.631   8.390  0.0000  0.0000  0.0000
 1370OM     OM1 1370   4.373   3.883   8.417  0.0000  0.0000  0.0000
 1371OM     OM1 1371   4.563   3.765   8.569  0.0000  0.0000  0.0000
 1372OM     OM1 1372   4.594   3.822   8.314  0.0000  0.0000  0.0000
 1373OM     OM1 1373   3.928   3.210   0.702  0.0000  0.0000  0.0000
 1374OM     OM1 1374   4.152   3.176   0.575  0.0000  0.0000  0.0000
 1375OM     OM1 1375   3.952   3.307   0.460  0.0000  0.0000  0.0000
 1376OM     OM1 1376   6.185   8.840   9.386  0.0000  0.0000  0.0000
 1377OM     OM1 1377   6.415   8.758   9.286  0.0000  0.0000  0.0000
 1378OM     OM1 1378   6.310   8.976   9.199  0.0000  0.0000  0.0000
 1379OM     OM1 1379   6.408   8.957   9.445  0.0000  0.0000  0.0000
 1380OM     OM1 1380   4.006   8.720   8.327  0.0000  0.0000  0.0000
 1381OM     OM1 1381   4.159   8.934   8.321  0.0000  0.0000  0.0000
 1382OM     OM1 1382   4.252   8.720   8.231  0.0000  0.0000  0.0000
 1383OM     OM1 1383   1.616   2.023   8.722  0.0000  0.0000  0.0000
 1384OM     OM1 1384   1.749   2.010   8.949  0.0000  0.0000  0.0000
 1385OM     OM1 1385   1.872   1.978   8.727  0.0000  0.0000  0.0000
 1386OM     OM1 1386   1.705   1.794   8.824  0.0000  0.0000  0.0000
 1387OM     OM1 1387   2.600   0.734   1.082  0.0000  0.0000  0.0000
 1388OM     OM1 1388   2.754   0.945   1.088  0.0000  0.0000  0.0000
 1389OM     OM1 1389   2.846   0.718   0.986  0.0000  0.0000  0.0000
 1390OM     OM1 1390   2.688   6.721   0.896  0.0000  0.0000  0.0000
 1391OM     OM1 1391   2.618   6.703   0.632  0.0000  0.0000  0.0000
 1392OM     OM1 1392   2.814   6.851   0.716  0.0000  0.0000  0.0000
 1393OM     OM1 1393   2.823   6.582   0.721  0.0000  0.0000  0.0000
 1394OM     OM1 1394   4.585   6.338   8.879  0.0000  0.0000  0.0000
 1395OM     OM1 1395   4.576   6.494   9.088  0.0000  0.0000  0.0000
 1396OM     OM1 1396   4.745   6.537   8.898  0.0000  0.0000  0.0000
 1397OM     OM1 1397   4.497   6.589   8.850  0.0000  0.0000  0.0000
 1398OM     OM1 1398   3.851   3.289   8.931  0.0000  0.0000  0.0000
 1399OM     OM1 1399   3.737   3.522   8.998  0.0000  0.0000  0.0000
 1400OM     OM1 1400   3.709   3.309   9.145  0.0000  0.0000  0.0000
 1401OM     OM1 1401   3.587   3.327   8.916  0.0000  0.0000  0.0000
 1402OM     OM1 1402   2.781   8.578   8.996  0.0000  0.0000  0.0000
 1403OM     OM1 1403   2.475   8.403   9.347  0.0000  0.0000  0.0000
 1404OM     OM1 1404   2.555   8.538   8.872  0.0000  0.0000  0.0000
 1405OM     OM1 1405   2.588   8.469   9.125  0.0000  0.0000  0.0000
 1406OM     OM1 1406   2.376   4.564   8.399  0.0000  0.0000  0.0000
 1407OM     OM1 1407   2.562   4.407   8.281  0.0000  0.0000  0.0000
 1408OM     OM1 1408   2.622   4.636   8.403  0.0000  0.0000  0.0000
 1409OM     OM1 1409   3.274   6.161   9.131  0.0000  0.0000  0.0000
 1410OM     OM1 1410   3.196   6.362   9.268  0.0000  0.0000  0.0000
 1411OM     OM1 1411   3.117   6.269   9.494  0.0000  0.0000  0.0000
 1412OM     OM1 1412   3.000   6.186   9.277  0.0000  0.0000  0.0000
 1413OM     OM1 1413   8.914   2.136   8.359  0.0000  0.0000  0.0000
 1414OM     OM1 1414   8.726   2.040   8.204  0.0000  0.0000  0.0000
 1415OM     OM1 1415   7.863   2.464   0.711  0.0000  0.0000  0.0000
 1416OM     OM1 1416   7.732   2.491   0.943  0.0000  0.0000  0.0000
 1417OM     OM1 1417   7.648   2.329   0.758  0.0000  0.0000  0.0000
 1418OM     OM1 1418   7.398   2.836   9.099  0.0000  0.0000  0.0000
 1419OM     OM1 1419   7.316   2.617   9.232  0.0000  0.0000  0.0000
 1420OM     OM1 1420   7.423   2.609   8.998  0.0000  0.0000  0.0000
 1421OM     OM1 1421   7.180   2.729   9.034  0.0000  0.0000  0.0000
 1422OM     OM1 1422   5.646   8.221   8.836  0.0000  0.0000  0.0000
 1423OM     OM1 1423   5.770   8.426   8.753  0.0000  0.0000  0.0000
 1424OM     OM1 1424   5.908   8.255   8.901  0.0000  0.0000  0.0000
 1425OM     OM1 1425   5.733   8.402   9.012  0.0000  0.0000  0.0000
 1426OM     OM1 1426   3.895   0.466   9.239  0.0000  0.0000  0.0000
 1427OM     OM1 1427   4.152   0.476   9.249  0.0000  0.0000  0.0000
 1428OM     OM1 1428   4.041   0.270   9.359  0.0000  0.0000  0.0000
 1429OM     OM1 1429   4.012   0.497   9.473  0.0000  0.0000  0.0000
 1430OM     OM1 1430   2.507   7.812   9.404  0.0000  0.0000  0.0000
 1431OM     OM1 1431   2.385   7.961   9.576  0.0000  0.0000  0.0000
 1432OM     OM1 1432   2.615   7.882   0.037  0.0000  0.0000  0.0000
 1433OM     OM1 1433   0.066   5.138   9.153  0.0000  0.0000  0.0000
 1434OM     OM1 1434   0.064   5.194   9.413  0.0000  0.0000  0.0000
 1435OM     OM1 1435   9.464   5.098   9.294  0.0000  0.0000  0.0000
 1436OM     OM1 1436   0.042   8.943   0.178  0.0000  0.0000  0.0000
 1437OM     OM1 1437   9.476   9.131   0.255  0.0000  0.0000  0.0000
 1438OM     OM1 1438   9.403   8.947   0.086  0.0000  0.0000  0.0000
 1439OM     OM1 1439   9.429   8.892   0.339  0.0000  0.0000  0.0000
 1440OM     OM1 1440   3.120   3.432   0.178  0.0000  0.0000  0.0000
 1441OM     OM1 1441   3.294   3.358   0.358  0.0000  0.0000  0.0000
 1442OM     OM1 1442   3.180   3.591   0.371  0.0000  0.0000  0.0000
 1443OM     OM1 1443   4.427   4.282   8.405  0.0000  0.0000  0.0000
 1444OM     OM1 1444   4.279   4.386   8.229  0.0000  0.0000  0.0000
 1445OM     OM1 1445   3.496   2.522   9.183  0.0000  0.0000  0.0000
 1446OM     OM1 1446   3.355   2.636   9.359  0.0000  0.0000  0.0000
 1447OM     OM1 1447   3.497   2.421   9.418  0.0000  0.0000  0.0000
 1448OM     OM1 1448   3.630   2.639   9.378  0.0000  0.0000  0.0000
 1449OM     OM1 1449   7.065   7.865   8.350  0.0000  0.0000  0.0000
 1450OM     OM1 1450   7.166   7.653   8.247  0.0000  0.0000  0.0000
 1451OM     OM1 1451   5.260   4.762   9.165  0.0000  0.0000  0.0000
 1452OM     OM1 1452   5.136   4.874   8.956  0.0000  0.0000  0.0000
 1453OM     OM1 1453   5.121   4.988   9.187  0.0000  0.0000  0.0000
 1454OM     OM1 1454   4.220   2.626   8.410  0.0000  0.0000  0.0000
 1455OM     OM1 1455   3.997   2.713   8.299  0.0000  0.0000  0.0000
 1456OM     OM1 1456   4.147   2.877   8.438  0.0000  0.0000  0.0000
 1457OM     OM1 1457   7.926   9.187   0.368  0.0000  0.0000  0.0000
 1458OM     OM1 1458   7.979   9.370   0.552  0.0000  0.0000  0.0000
 1459OM     OM1 1459   7.992   9.101   0.597  0.0000  0.0000  0.0000
 1460OM     OM1 1460   8.465   2.378   0.643  0.0000  0.0000  0.0000
 1461OM     OM1 1461   8.277   2.676   0.901  0.0000  0.0000  0.0000
 1462OM     OM1 1462   8.501   2.627   0.778  0.0000  0.0000  0.0000
 1463OM     OM1 1463   8.225   2.615   0.382  0.0000  0.0000  0.0000
 1464OM     OM1 1464   6.504   9.582   9.369  0.0000  0.0000  0.0000
 1465OM     OM1 1465   6.530   9.575   0.022  0.0000  0.0000  0.0000
 1466OM     OM1 1466   6.288   0.031   9.517  0.0000  0.0000  0.0000
 1467OM     OM1 1467   6.494   0.191   9.517  0.0000  0.0000  0.0000
 1468OM     OM1 1468   5.969   6.704   8.491  0.0000  0.0000  0.0000
 1469OM     OM1 1469   5.949   7.062   8.504  0.0000  0.0000  0.0000
 1470OM     OM1 1470   6.086   6.884   8.325  0.0000  0.0000  0.0000
 1471OM     OM1 1471   5.909   7.058   8.253  0.0000  0.0000  0.0000
 1472OM     OM1 1472   9.242   8.984   0.504  0.0000  0.0000  0.0000
 1473OM     OM1 1473   9.195   9.213   0.597  0.0000  0.0000  0.0000
 1474OM     OM1 1474   9.017   9.015   0.644  0.0000  0.0000  0.0000
 1475OM     OM1 1475   9.237   9.018   0.762  0.0000  0.0000  0.0000
 1476OM     OM1 1476   2.043   6.976   1.445  0.0000  0.0000  0.0000
 1477OM     OM1 1477   1.847   7.021   1.283  0.0000  0.0000  0.0000
 1478OM     OM1 1478   7.726   3.000   0.989  0.0000  0.0000  0.0000
 1479OM     OM1 1479   7.515   3.096   0.886  0.0000  0.0000  0.0000
 1480OM     OM1 1480   7.727   3.254   0.935  0.0000  0.0000  0.0000
 1481OM     OM1 1481   7.581   3.172   1.134  0.0000  0.0000  0.0000
 1482OM     OM1 1482   4.254   6.625   9.459  0.0000  0.0000  0.0000
 1483OM     OM1 1483   4.502   6.698   9.506  0.0000  0.0000  0.0000
 1484OM     OM1 1484   4.283   6.773   0.057  0.0000  0.0000  0.0000
 1485OM     OM1 1485   4.317   6.869   9.423  0.0000  0.0000  0.0000
 1486OM     OM1 1486   2.543   3.877   0.560  0.0000  0.0000  0.0000
 1487OM     OM1 1487   2.753   3.753   0.638  0.0000  0.0000  0.0000
 1488OM     OM1 1488   2.717   3.795   0.373  0.0000  0.0000  0.0000
 1489OM     OM1 1489   2.578   3.619   0.509  0.0000  0.0000  0.0000
 1490OM     OM1 1490   5.367   8.077   0.604  0.0000  0.0000  0.0000
 1491OM     OM1 1491   5.319   8.178   0.832  0.0000  0.0000  0.0000
 1492OM     OM1 1492   5.153   8.222   0.632  0.0000  0.0000  0.0000
 1493OM     OM1 1493   5.390   8.339   0.630  0.0000  0.0000  0.0000
 1494OM     OM1 1494   5.749   1.953   8.633  0.0000  0.0000  0.0000
 1495OM     OM1 1495   5.811   1.823   8.413  0.0000  0.0000  0.0000
 1496OM     OM1 1496   5.571   1.908   8.437  0.0000  0.0000  0.0000
 1497OM     OM1 1497   5.642   1.724   8.603  0.0000  0.0000  0.0000
 1498OM     OM1 1498   8.587   3.490   0.381  0.0000  0.0000  0.0000
 1499OM     OM1 1499   8.241   3.453   0.104  0.0000  0.0000  0.0000
 1500OM     OM1 1500   8.406   3.328   0.258  0.0000  0.0000  0.0000
 1501OM     OM1 1501   8.605   3.434   0.131  0.0000  0.0000  0.0000
 1502OM     OM1 1502   6.939   8.146   0.599  0.0000  0.0000  0.0000
 1503OM     OM1 1503   7.128   8.280   0.705  0.0000  0.0000  0.0000
 1504OM     OM1 1504   7.188   8.031   0.614  0.0000  0.0000  0.0000
 1505OM     OM1 1505   7.130   8.228   0.453  0.0000  0.0000  0.0000
 1506OM     OM1 1506   5.011   7.213   0.495  0.0000  0.0000  0.0000
 1507OM     OM1 1507   5.084   7.219   0.734  0.0000  0.0000  0.0000
 1508OM     OM1 1508   5.026   7.452   0.618  0.0000  0.0000  0.0000
 1509OM     OM1 1509   5.243   7.319   0.555  0.0000  0.0000  0.0000
 1510OM     OM1 1510   0.110   0.931   0.848  0.0000  0.0000  0.0000
 1511OM     OM1 1511   0.082   0.907   0.600  0.0000  0.0000  0.0000
 1512OM     OM1 1512   0.330   0.875   0.746  0.0000  0.0000  0.0000
 1513OM     OM1 1513   0.151   0.698   0.730  0.0000  0.0000  0.0000
 1514OM     OM1 1514   4.471   8.250   0.872  0.0000  0.0000  0.0000
 1515OM     OM1 1515   4.410   8.415   0.666  0.0000  0.0000  0.0000
 1516OM     OM1 1516   4.449   8.159   0.637  0.0000  0.0000  0.0000
 1517OM     OM1 1517   4.237   8.267   0.771  0.0000  0.0000  0.0000
 1518OM     OM1 1518   7.214   5.279   0.778  0.0000  0.0000  0.0000
 1519OM     OM1 1519   7.002   5.280   0.631  0.0000  0.0000  0.0000
 1520OM     OM1 1520   6.995   5.202   0.878  0.0000  0.0000  0.0000
 1521OM     OM1 1521   7.114   5.050   0.690  0.0000  0.0000  0.0000
 1522OM     OM1 1522   2.967   3.899   8.997  0.0000  0.0000  0.0000
 1523OM     OM1 1523   2.895   3.954   9.249  0.0000  0.0000  0.0000
 1524OM     OM1 1524   2.975   3.711   9.187  0.0000  0.0000  0.0000
 1525OM     OM1 1525   2.750   3.800   9.102  0.0000  0.0000  0.0000
 1526OM     OM1 1526   8.857   6.298   1.239  0.0000  0.0000  0.0000
 1527OM     OM1 1527   8.832   6.423   1.002  0.0000  0.0000  0.0000
 1528OM     OM1 1528   8.825   6.165   1.017  0.0000  0.0000  0.0000
 1529OM     OM1 1529   9.055   6.295   1.066  0.0000  0.0000  0.0000
 1530OM     OM1 1530   7.450   1.725   9.021  0.0000  0.0000  0.0000
 1531OM     OM1 1531   7.332   1.522   9.118  0.0000  0.0000  0.0000
 1532OM     OM1 1532   7.493   1.487   8.906  0.0000  0.0000  0.0000
 1533OM     OM1 1533   7.594   1.548   9.131  0.0000  0.0000  0.0000
 1534OM     OM1 1534   0.147   8.475   9.048  0.0000  0.0000  0.0000
 1535OM     OM1 1535   0.083   8.224   9.084  0.0000  0.0000  0.0000
 1536OM     OM1 1536   0.015   8.359   8.870  0.0000  0.0000  0.0000
 1537OM     OM1 1537   9.501   8.408   9.107  0.0000  0.0000  0.0000
 1538OM     OM1 1538   3.397   3.617   9.183  0.0000  0.0000  0.0000
 1539OM     OM1 1539   3.532   3.675   8.965  0.0000  0.0000  0.0000
 1540OM     OM1 1540   3.276   3.603   8.960  0.0000  0.0000  0.0000
 1541OM     OM1 1541   2.088   4.172   8.426  0.0000  0.0000  0.0000
 1542OM     OM1 1542   1.836   4.109   8.409  0.0000  0.0000  0.0000
 1543OM     OM1 1543   4.019   5.256   9.321  0.0000  0.0000  0.0000
 1544OM     OM1 1544   4.182   5.374   9.494  0.0000  0.0000  0.0000
 1545OM     OM1 1545   4.064   5.510   9.299  0.0000  0.0000  0.0000
 1546OM     OM1 1546   4.256   5.338   9.251  0.0000  0.0000  0.0000
 1547OM     OM1 1547   2.217   0.421   0.168  0.0000  0.0000  0.0000
 1548OM     OM1 1548   2.462   0.332   0.187  0.0000  0.0000  0.0000
 1549OM     OM1 1549   2.283   0.193   0.301  0.0000  0.0000  0.0000
 1550OM     OM1 1550   2.282   0.192   0.048  0.0000  0.0000  0.0000
 1551OM     OM1 1551   4.814   2.324   9.429  0.0000  0.0000  0.0000
 1552OM     OM1 1552   4.676   2.112   9.414  0.0000  0.0000  0.0000
 1553OM     OM1 1553   4.807   2.141   0.030  0.0000  0.0000  0.0000
 1554OM     OM1 1554   4.629   2.314   9.597  0.0000  0.0000  0.0000
 1555OM     OM1 1555   0.560   0.303   0.390  0.0000  0.0000  0.0000
 1556OM     OM1 1556   0.795   0.341   0.304  0.0000  0.0000  0.0000
 1557OM     OM1 1557   0.772   0.236   0.538  0.0000  0.0000  0.0000
 1558OM     OM1 1558   0.695   0.091   0.340  0.0000  0.0000  0.0000
 1559OM     OM1 1559   8.120   4.296   9.491  0.0000  0.0000  0.0000
 1560OM     OM1 1560   8.013   4.075   9.533  0.0000  0.0000  0.0000
 1561OM     OM1 1561   8.056   4.221   0.135  0.0000  0.0000  0.0000
 1562OM     OM1 1562   8.263   4.120   0.019  0.0000  0.0000  0.0000
 1563OM     OM1 1563   7.815   7.892   1.100  0.0000  0.0000  0.0000
 1564OM     OM1 1564   7.816   7.991   0.849  0.0000  0.0000  0.0000
 1565OM     OM1 1565   8.034   7.915   0.959  0.0000  0.0000  0.0000
 1566OM     OM1 1566   7.915   8.127   1.058  0.0000  0.0000  0.0000
 1567OM     OM1 1567   5.343   2.073   9.064  0.0000  0.0000  0.0000
 1568OM     OM1 1568   5.599   2.222   8.767  0.0000  0.0000  0.0000
 1569OM     OM1 1569   5.365   2.219   8.850  0.0000  0.0000  0.0000
 1570OM     OM1 1570   5.422   2.330   9.073  0.0000  0.0000  0.0000
 1571OM     OM1 1571   4.969   1.275   0.629  0.0000  0.0000  0.0000
 1572OM     OM1 1572   4.970   1.507   0.726  0.0000  0.0000  0.0000
 1573OM     OM1 1573   5.091   1.458   0.489  0.0000  0.0000  0.0000
 1574OM     OM1 1574   5.201   1.379   0.705  0.0000  0.0000  0.0000
 1575OM     OM1 1575   8.554   0.070   0.704  0.0000  0.0000  0.0000
 1576OM     OM1 1576   8.407   0.149   0.904  0.0000  0.0000  0.0000
 1577OM     OM1 1577   8.420   0.024   0.493  0.0000  0.0000  0.0000
 1578OM     OM1 1578   8.554   0.253   0.521  0.0000  0.0000  0.0000
 1579OM     OM1 1579   6.556   5.446   0.562  0.0000  0.0000  0.0000
 1580OM     OM1 1580   6.307   5.486   0.625  0.0000  0.0000  0.0000
 1581OM     OM1 1581   6.506   5.564   0.793  0.0000  0.0000  0.0000
 1582OM     OM1 1582   6.456   5.685   0.572  0.0000  0.0000  0.0000
 1583OM     OM1 1583   2.825   2.592   1.076  0.0000  0.0000  0.0000
 1584OM     OM1 1584   2.718   2.665   0.846  0.0000  0.0000  0.0000
 1585OM     OM1 1585   2.731   2.843   1.032  0.0000  0.0000  0.0000
 1586OM     OM1 1586   0.907   7.007   9.333  0.0000  0.0000  0.0000
 1587OM     OM1 1587   0.866   6.940   9.575  0.0000  0.0000  0.0000
 1588OM     OM1 1588   0.979   6.713   9.603  0.0000  0.0000  0.0000
 1589OM     OM1 1589   5.320   5.888   0.593  0.0000  0.0000  0.0000
 1590OM     OM1 1590   5.194   6.049   0.416  0.0000  0.0000  0.0000
 1591OM     OM1 1591   5.118   5.800   0.456  0.0000  0.0000  0.0000
 1592OM     OM1 1592   5.082   5.994   0.633  0.0000  0.0000  0.0000
 1593OM     OM1 1593   6.318   5.918   8.833  0.0000  0.0000  0.0000
 1594OM     OM1 1594   6.465   5.713   8.883  0.0000  0.0000  0.0000
 1595OM     OM1 1595   6.332   5.719   8.653  0.0000  0.0000  0.0000
 1596OM     OM1 1596   6.284   3.449   0.369  0.0000  0.0000  0.0000
 1597OM     OM1 1597   6.037   3.410   0.298  0.0000  0.0000  0.0000
 1598OM     OM1 1598   6.209   3.200   0.379  0.0000  0.0000  0.0000
 1599OM     OM1 1599   0.146   6.098   0.201  0.0000  0.0000  0.0000
 1600OM     OM1 1600   0.113   6.349   0.160  0.0000  0.0000  0.0000
 1601OM     OM1 1601   0.352   6.269   0.243  0.0000  0.0000  0.0000
 1602OM     OM1 1602   0.087   0.348   9.013  0.0000  0.0000  0.0000
 1603OM     OM1 1603   0.168   0.254   9.233  0.0000  0.0000  0.0000
 1604OM     OM1 1604   9.571   0.441   9.222  0.0000  0.0000  0.0000
 1605OM     OM1 1605   2.596   6.586   9.605  0.0000  0.0000  0.0000
 1606OM     OM1 1606   2.409   6.725   9.508  0.0000  0.0000  0.0000
 1607OM     OM1 1607   2.642   6.821   9.480  0.0000  0.0000  0.0000
 1608OM     OM1 1608   2.555   6.811   0.120  0.0000  0.0000  0.0000
 1609OM     OM1 1609   8.945   0.392   8.916  0.0000  0.0000  0.0000
 1610OM     OM1 1610   8.720   0.534   8.946  0.0000  0.0000  0.0000
 1611OM     OM1 1611   8.959   0.642   8.996  0.0000  0.0000  0.0000
 1612OM     OM1 1612   9.012   0.146   8.975  0.0000  0.0000  0.0000
 1613OM     OM1 1613   9.180   8.519   0.434  0.0000  0.0000  0.0000
 1614OM     OM1 1614   8.992   8.427   0.268  0.0000  0.0000  0.0000
 1615OM     OM1 1615   8.978   8.666   0.386  0.0000  0.0000  0.0000
 1616OM     OM1 1616   0.038   6.795   8.891  0.0000  0.0000  0.0000
 1617OM     OM1 1617   9.586   6.961   8.692  0.0000  0.0000  0.0000
 1618OM     OM1 1618   0.226   6.908   8.761  0.0000  0.0000  0.0000
 1619OM     OM1 1619   8.698   1.687   9.572  0.0000  0.0000  0.0000
 1620OM     OM1 1620   8.758   1.716   0.216  0.0000  0.0000  0.0000
 1621OM     OM1 1621   8.956   1.546   0.215  0.0000  0.0000  0.0000
 1622OM     OM1 1622   8.981   1.797   0.119  0.0000  0.0000  0.0000
 1623OM     OM1 1623   3.725   5.436   1.226  0.0000  0.0000  0.0000
 1624OM     OM1 1624   3.625   5.444   0.978  0.0000  0.0000  0.0000
 1625OM     OM1 1625   3.632   5.229   1.119  0.0000  0.0000  0.0000
 1626OM     OM1 1626   4.662   5.473   9.365  0.0000  0.0000  0.0000
 1627OM     OM1 1627   4.686   5.585   9.139  0.0000  0.0000  0.0000
 1628OM     OM1 1628   4.503   5.400   9.165  0.0000  0.0000  0.0000
 1629OM     OM1 1629   4.760   5.337   9.172  0.0000  0.0000  0.0000
 1630OM     OM1 1630   1.456   1.970   0.234  0.0000  0.0000  0.0000
 1631OM     OM1 1631   1.515   1.882   0.461  0.0000  0.0000  0.0000
 1632OM     OM1 1632   1.347   2.076   0.456  0.0000  0.0000  0.0000
 1633OM     OM1 1633   1.497   1.635   0.420  0.0000  0.0000  0.0000
 1634OM     OM1 1634   2.817   3.244   1.292  0.0000  0.0000  0.0000
 1635OM     OM1 1635   2.929   3.037   1.190  0.0000  0.0000  0.0000
 1636OM     OM1 1636   2.682   3.074   1.137  0.0000  0.0000  0.0000
 1637OM     OM1 1637   7.238   7.565   0.785  0.0000  0.0000  0.0000
 1638OM     OM1 1638   7.319   7.810   0.737  0.0000  0.0000  0.0000
 1639OM     OM1 1639   7.480   7.617   0.705  0.0000  0.0000  0.0000
 1640OM     OM1 1640   7.376   7.661   0.964  0.0000  0.0000  0.0000
 1641OM     OM1 1641   3.331   4.216   8.511  0.0000  0.0000  0.0000
 1642OM     OM1 1642   3.530   4.314   8.390  0.0000  0.0000  0.0000
 1643OM     OM1 1643   3.505   4.052   8.402  0.0000  0.0000  0.0000
 1644OM     OM1 1644   7.247   3.972   8.314  0.0000  0.0000  0.0000
 1645OM     OM1 1645   7.360   4.185   8.399  0.0000  0.0000  0.0000
 1646OM     OM1 1646   7.501   3.968   8.434  0.0000  0.0000  0.0000
 1647OM     OM1 1647   4.435   7.566   9.087  0.0000  0.0000  0.0000
 1648OM     OM1 1648   4.654   7.191   8.906  0.0000  0.0000  0.0000
 1649OM     OM1 1649   4.543   7.436   8.899  0.0000  0.0000  0.0000
 1650OM     OM1 1650   6.965   2.182   1.141  0.0000  0.0000  0.0000
 1651OM     OM1 1651   6.771   2.272   1.277  0.0000  0.0000  0.0000
 1652OM     OM1 1652   6.846   7.036   8.318  0.0000  0.0000  0.0000
 1653OM     OM1 1653   7.010   7.173   8.467  0.0000  0.0000  0.0000
 1654OM     OM1 1654   6.791   7.276   8.386  0.0000  0.0000  0.0000
 1655OM     OM1 1655   6.670   6.842   8.357  0.0000  0.0000  0.0000
 1656OM     OM1 1656   1.011   3.894   0.589  0.0000  0.0000  0.0000
 1657OM     OM1 1657   0.990   3.916   0.842  0.0000  0.0000  0.0000
 1658OM     OM1 1658   1.219   3.854   0.752  0.0000  0.0000  0.0000
 1659OM     OM1 1659   1.023   3.678   0.743  0.0000  0.0000  0.0000
 1660OM     OM1 1660   4.493   5.654   0.756  0.0000  0.0000  0.0000
 1661OM     OM1 1661   4.298   5.821   0.812  0.0000  0.0000  0.0000
 1662OM     OM1 1662   4.244   5.579   0.731  0.0000  0.0000  0.0000
 1663OM     OM1 1663   4.342   5.621   0.972  0.0000  0.0000  0.0000
 1664OM     OM1 1664   0.561   5.573   9.233  0.0000  0.0000  0.0000
 1665OM     OM1 1665   0.397   5.414   9.354  0.0000  0.0000  0.0000
 1666OM     OM1 1666   0.429   5.405   9.089  0.0000  0.0000  0.0000
 1667OM     OM1 1667   0.302   5.606   9.192  0.0000  0.0000  0.0000
 1668OM     OM1 1668   5.170   3.768   0.054  0.0000  0.0000  0.0000
 1669OM     OM1 1669   5.195   4.001   9.548  0.0000  0.0000  0.0000
 1670OM     OM1 1670   5.146   3.805   9.394  0.0000  0.0000  0.0000
 1671OM     OM1 1671   4.956   3.880   9.557  0.0000  0.0000  0.0000
 1672OM     OM1 1672   8.754   1.582   9.325  0.0000  0.0000  0.0000
 1673OM     OM1 1673   8.536   1.709   9.381  0.0000  0.0000  0.0000
 1674OM     OM1 1674   3.136   2.514   0.210  0.0000  0.0000  0.0000
 1675OM     OM1 1675   3.060   2.320   0.041  0.0000  0.0000  0.0000
 1676OM     OM1 1676   3.276   2.288   0.203  0.0000  0.0000  0.0000
 1677OM     OM1 1677   3.033   2.296   0.293  0.0000  0.0000  0.0000
 1678OM     OM1 1678   7.343   1.443   0.227  0.0000  0.0000  0.0000
 1679OM     OM1 1679   7.420   1.313   0.014  0.0000  0.0000  0.0000
 1680OM     OM1 1680   7.387   1.565   9.602  0.0000  0.0000  0.0000
 1681OM     OM1 1681   7.630   7.104   8.432  0.0000  0.0000  0.0000
 1682OM     OM1 1682   7.461   7.283   8.354  0.0000  0.0000  0.0000
 1683OM     OM1 1683   7.465   7.057   8.249  0.0000  0.0000  0.0000
 1684OM     OM1 1684   4.476   7.165   8.354  0.0000  0.0000  0.0000
 1685OM     OM1 1685   4.060   6.935   8.244  0.0000  0.0000  0.0000
 1686OM     OM1 1686   9.074   0.236   1.161  0.0000  0.0000  0.0000
 1687OM     OM1 1687   9.315   0.253   1.095  0.0000  0.0000  0.0000
 1688OM     OM1 1688   9.282   0.002   1.169  0.0000  0.0000  0.0000
 1689OM     OM1 1689   1.355   0.576   8.357  0.0000  0.0000  0.0000
 1690OM     OM1 1690   1.523   0.699   8.504  0.0000  0.0000  0.0000
 1691OM     OM1 1691   1.317   0.823   8.445  0.0000  0.0000  0.0000
 1692OM     OM1 1692   9.071   4.826   0.709  0.0000  0.0000  0.0000
 1693OM     OM1 1693   9.030   4.658   0.509  0.0000  0.0000  0.0000
 1694OM     OM1 1694   9.112   4.577   0.745  0.0000  0.0000  0.0000
 1695OM     OM1 1695   8.861   4.656   0.710  0.0000  0.0000  0.0000
 1696OM     OM1 1696   1.219   9.511   8.552  0.0000  0.0000  0.0000
 1697OM     OM1 1697   1.463   9.477   8.480  0.0000  0.0000  0.0000
 1698OM     OM1 1698   1.507   9.235   8.571  0.0000  0.0000  0.0000
 1699OM     OM1 1699   1.526   9.290   8.316  0.0000  0.0000  0.0000
 1700OM     OM1 1700   8.187   5.465   8.595  0.0000  0.0000  0.0000
 1701OM     OM1 1701   8.176   5.426   8.336  0.0000  0.0000  0.0000
 1702OM     OM1 1702   8.145   5.230   8.498  0.0000  0.0000  0.0000
 1703OM     OM1 1703   7.955   5.415   8.466  0.0000  0.0000  0.0000
 1704OM     OM1 1704   1.743   4.104   8.900  0.0000  0.0000  0.0000
 1705OM     OM1 1705   1.955   4.046   8.745  0.0000  0.0000  0.0000
 1706OM     OM1 1706   1.830   4.263   8.718  0.0000  0.0000  0.0000
 1707OM     OM1 1707   1.718   4.049   8.637  0.0000  0.0000  0.0000
 1708OM     OM1 1708   6.829   0.384   9.312  0.0000  0.0000  0.0000
 1709OM     OM1 1709   6.674   0.378   9.515  0.0000  0.0000  0.0000
 1710OM     OM1 1710   6.577   0.438   9.292  0.0000  0.0000  0.0000
 1711OM     OM1 1711   8.022   4.782   1.199  0.0000  0.0000  0.0000
 1712OM     OM1 1712   8.112   5.034   1.240  0.0000  0.0000  0.0000
 1713OM     OM1 1713   7.965   4.610   1.005  0.0000  0.0000  0.0000
 1714OM     OM1 1714   8.207   4.636   1.057  0.0000  0.0000  0.0000
 1715OM     OM1 1715   6.768   0.777   8.424  0.0000  0.0000  0.0000
 1716OM     OM1 1716   6.593   0.912   8.578  0.0000  0.0000  0.0000
 1717OM     OM1 1717   6.553   0.888   8.329  0.0000  0.0000  0.0000
 1718OM     OM1 1718   9.523   7.661   8.370  0.0000  0.0000  0.0000
 1719OM     OM1 1719   0.369   8.379   8.977  0.0000  0.0000  0.0000
 1720OM     OM1 1720   0.712   8.269   8.732  0.0000  0.0000  0.0000
 1721OM     OM1 1721   0.449   8.269   8.688  0.0000  0.0000  0.0000
 1722OM     OM1 1722   0.537   8.196   8.910  0.0000  0.0000  0.0000
 1723OM     OM1 1723   2.719   8.516   0.325  0.0000  0.0000  0.0000
 1724OM     OM1 1724   2.560   8.615   0.136  0.0000  0.0000  0.0000
 1725OM     OM1 1725   2.750   8.762   0.244  0.0000  0.0000  0.0000
 1726OM     OM1 1726   2.524   8.698   0.367  0.0000  0.0000  0.0000
 1727OM     OM1 1727   4.339   6.280   1.266  0.0000  0.0000  0.0000
 1728OM     OM1 1728   8.778   6.824   9.210  0.0000  0.0000  0.0000
 1729OM     OM1 1729   9.022   6.775   9.313  0.0000  0.0000  0.0000
 1730OM     OM1 1730   8.834   6.854   9.467  0.0000  0.0000  0.0000
 1731OM     OM1 1731   7.622   2.191   8.985  0.0000  0.0000  0.0000
 1732OM     OM1 1732   7.811   2.278   9.133  0.0000  0.0000  0.0000
 1733OM     OM1 1733   7.551   2.273   9.222  0.0000  0.0000  0.0000
 1734OM     OM1 1734   7.628   2.444   9.037  0.0000  0.0000  0.0000
 1735OM     OM1 1735   1.936   8.534   1.117  0.0000  0.0000  0.0000
 1736OM     OM1 1736   2.101   8.691   1.234  0.0000  0.0000  0.0000
 1737OM     OM1 1737   1.848   8.731   1.270  0.0000  0.0000  0.0000
 1738OM     OM1 1738   3.865   5.965   9.150  0.0000  0.0000  0.0000
 1739OM     OM1 1739   3.752   5.751   9.215  0.0000  0.0000  0.0000
 1740OM     OM1 1740   4.054   6.017   9.315  0.0000  0.0000  0.0000
 1741OM     OM1 1741   3.746   5.894   9.436  0.0000  0.0000  0.0000
 1742OM     OM1 1742   4.889   7.878   1.322  0.0000  0.0000  0.0000
 1743OM     OM1 1743   6.911   4.004   9.419  0.0000  0.0000  0.0000
 1744OM     OM1 1744   7.060   4.206   9.339  0.0000  0.0000  0.0000
 1745OM     OM1 1745   6.806   4.204   9.296  0.0000  0.0000  0.0000
 1746OM     OM1 1746   6.948   4.044   9.158  0.0000  0.0000  0.0000
 1747OM     OM1 1747   8.230   0.717   0.193  0.0000  0.0000  0.0000
 1748OM     OM1 1748   8.221   0.978   0.246  0.0000  0.0000  0.0000
 1749OM     OM1 1749   8.545   0.993   9.499  0.0000  0.0000  0.0000
 1750OM     OM1 1750   9.030   2.331   1.152  0.0000  0.0000  0.0000
 1751OM     OM1 1751   0.333   9.555   8.321  0.0000  0.0000  0.0000
 1752OM     OM1 1752   0.099   9.424   8.365  0.0000  0.0000  0.0000
 1753OM     OM1 1753   0.316   9.303   8.397  0.0000  0.0000  0.0000
 1754OM     OM1 1754   5.410   1.757   0.946  0.0000  0.0000  0.0000
 1755OM     OM1 1755   5.376   1.896   1.166  0.0000  0.0000  0.0000
 1756OM     OM1 1756   5.465   1.641   1.170  0.0000  0.0000  0.0000
 1757OM     OM1 1757   5.610   1.843   1.092  0.0000  0.0000  0.0000
 1758OM     OM1 1758   0.590   8.895   8.382  0.0000  0.0000  0.0000
 1759OM     OM1 1759   0.394   9.063   8.423  0.0000  0.0000  0.0000
 1760OM     OM1 1760   0.640   9.154   8.383  0.0000  0.0000  0.0000
 1761OM     OM1 1761   1.877   2.966   8.745  0.0000  0.0000  0.0000
 1762OM     OM1 1762   1.870   2.815   8.950  0.0000  0.0000  0.0000
 1763OM     OM1 1763   1.682   2.780   8.770  0.0000  0.0000  0.0000
 1764OM     OM1 1764   4.686   3.862   9.546  0.0000  0.0000  0.0000
 1765OM     OM1 1765   4.593   3.915   0.177  0.0000  0.0000  0.0000
 1766OM     OM1 1766   4.694   4.100   0.028  0.0000  0.0000  0.0000
 1767OM     OM1 1767   4.449   3.975   9.579  0.0000  0.0000  0.0000
 1768OM     OM1 1768   9.259   5.935   0.156  0.0000  0.0000  0.0000
 1769OM     OM1 1769   9.398   6.023   9.558  0.0000  0.0000  0.0000
 1770OM     OM1 1770   9.296   6.196   0.119  0.0000  0.0000  0.0000
 1771OM     OM1 1771   9.493   6.052   0.196  0.0000  0.0000  0.0000
 1772OM     OM1 1772   5.078   1.986   8.296  0.0000  0.0000  0.0000
 1773OM     OM1 1773   5.129   2.116   8.520  0.0000  0.0000  0.0000
 1774OM     OM1 1774   4.957   2.204   8.336  0.0000  0.0000  0.0000
 1775OM     OM1 1775   4.906   1.987   8.492  0.0000  0.0000  0.0000
 1776OM     OM1 1776   1.878   2.237   1.101  0.0000  0.0000  0.0000
 1777OM     OM1 1777   2.058   2.071   1.156  0.0000  0.0000  0.0000
 1778OM     OM1 1778   0.545   6.444   0.201  0.0000  0.0000  0.0000
 1779OM     OM1 1779   0.481   6.365   0.448  0.0000  0.0000  0.0000
 1780OM     OM1 1780   0.614   6.215   0.292  0.0000  0.0000  0.0000
 1781OM     OM1 1781   7.141   6.093   8.519  0.0000  0.0000  0.0000
 1782OM     OM1 1782   7.336   6.088   8.697  0.0000  0.0000  0.0000
 1783OM     OM1 1783   7.249   6.310   8.597  0.0000  0.0000  0.0000
 1784OM     OM1 1784   7.092   6.160   8.762  0.0000  0.0000  0.0000
 1785OM     OM1 1785   0.457   0.785   0.414  0.0000  0.0000  0.0000
 1786OM     OM1 1786   0.472   0.965   0.232  0.0000  0.0000  0.0000
 1787OM     OM1 1787   0.234   0.862   0.297  0.0000  0.0000  0.0000
 1788OM     OM1 1788   5.057   0.827   8.767  0.0000  0.0000  0.0000
 1789OM     OM1 1789   4.960   0.792   8.995  0.0000  0.0000  0.0000
 1790OM     OM1 1790   5.180   0.929   8.983  0.0000  0.0000  0.0000
 1791OM     OM1 1791   4.954   1.037   8.895  0.0000  0.0000  0.0000
 1792OM     OM1 1792   6.513   2.088   0.745  0.0000  0.0000  0.0000
 1793OM     OM1 1793   6.610   1.992   0.971  0.0000  0.0000  0.0000
 1794OM     OM1 1794   6.657   2.246   0.908  0.0000  0.0000  0.0000
 1795OM     OM1 1795   5.591   1.094   0.528  0.0000  0.0000  0.0000
 1796OM     OM1 1796   5.579   1.122   0.266  0.0000  0.0000  0.0000
 1797OM     OM1 1797   5.514   1.320   0.417  0.0000  0.0000  0.0000
 1798OM     OM1 1798   5.764   1.247   0.398  0.0000  0.0000  0.0000
 1799OM     OM1 1799   2.979   1.251   8.950  0.0000  0.0000  0.0000
 1800OM     OM1 1800   2.948   1.503   9.045  0.0000  0.0000  0.0000
 1801OM     OM1 1801   3.077   1.452   8.817  0.0000  0.0000  0.0000
 1802OM     OM1 1802   3.175   1.387   9.043  0.0000  0.0000  0.0000
 1803OM     OM1 1803   5.803   9.418   0.461  0.0000  0.0000  0.0000
 1804OM     OM1 1804   5.918   0.038   0.523  0.0000  0.0000  0.0000
 1805OM     OM1 1805   5.774   9.516   0.706  0.0000  0.0000  0.0000
 1806OM     OM1 1806   6.005   9.428   0.632  0.0000  0.0000  0.0000
 1807OM     OM1 1807   4.698   3.224   1.206  0.0000  0.0000  0.0000
 1808OM     OM1 1808   4.480   3.351   1.154  0.0000  0.0000  0.0000
 1809OM     OM1 1809   7.275   0.921   0.164  0.0000  0.0000  0.0000
 1810OM     OM1 1810   7.537   0.809   0.197  0.0000  0.0000  0.0000
 1811OM     OM1 1811   7.313   0.683   0.250  0.0000  0.0000  0.0000
 1812OM     OM1 1812   5.298   1.848   8.947  0.0000  0.0000  0.0000
 1813OM     OM1 1813   5.454   1.855   9.163  0.0000  0.0000  0.0000
 1814OM     OM1 1814   5.194   1.906   9.181  0.0000  0.0000  0.0000
 1815OM     OM1 1815   9.569   6.548   8.860  0.0000  0.0000  0.0000
 1816OM     OM1 1816   0.100   6.519   8.649  0.0000  0.0000  0.0000
 1817OM     OM1 1817   0.007   6.309   8.781  0.0000  0.0000  0.0000
 1818OM     OM1 1818   9.437   6.459   8.657  0.0000  0.0000  0.0000
 1819OM     OM1 1819   4.124   1.198   0.346  0.0000  0.0000  0.0000
 1820OM     OM1 1820   4.030   1.425   0.269  0.0000  0.0000  0.0000
 1821OM     OM1 1821   4.216   1.309   0.123  0.0000  0.0000  0.0000
 1822OM     OM1 1822   3.862   2.337   9.158  0.0000  0.0000  0.0000
 1823OM     OM1 1823   3.901   2.144   9.341  0.0000  0.0000  0.0000
 1824OM     OM1 1824   3.665   2.264   9.305  0.0000  0.0000  0.0000
 1825OM     OM1 1825   6.028   1.016   8.983  0.0000  0.0000  0.0000
 1826OM     OM1 1826   5.973   1.091   8.745  0.0000  0.0000  0.0000
 1827OM     OM1 1827   6.197   1.173   8.838  0.0000  0.0000  0.0000
 1828OM     OM1 1828   6.160   0.917   8.779  0.0000  0.0000  0.0000
 1829OM     OM1 1829   8.776   2.667   1.297  0.0000  0.0000  0.0000
 1830OM     OM1 1830   8.846   2.925   1.319  0.0000  0.0000  0.0000
 1831OM     OM1 1831   8.622   2.861   1.209  0.0000  0.0000  0.0000
 1832OM     OM1 1832   5.779   8.243   9.314  0.0000  0.0000  0.0000
 1833OM     OM1 1833   5.794   8.414   9.515  0.0000  0.0000  0.0000
 1834OM     OM1 1834   5.999   8.366   9.361  0.0000  0.0000  0.0000
 1835OM     OM1 1835   5.787   8.490   9.257  0.0000  0.0000  0.0000
 1836OM     OM1 1836   9.401   9.599   8.980  0.0000  0.0000  0.0000
 1837OM     OM1 1837   9.336   9.378   9.104  0.0000  0.0000  0.0000
 1838OM     OM1 1838   9.186   9.600   9.112  0.0000  0.0000  0.0000
 1839OM     OM1 1839   7.465   3.586   0.569  0.0000  0.0000  0.0000
 1840OM     OM1 1840   7.517   3.637   0.317  0.0000  0.0000  0.0000
 1841OM     OM1 1841   7.555   3.815   0.496  0.0000  0.0000  0.0000
 1842OM     OM1 1842   7.715   3.593   0.491  0.0000  0.0000  0.0000
 1843OM     OM1 1843   6.653   4.171   0.625  0.0000  0.0000  0.0000
 1844OM     OM1 1844   6.809   4.385   0.636  0.0000  0.0000  0.0000
 1845OM     OM1 1845   6.595   4.398   0.499  0.0000  0.0000  0.0000
 1846OM     OM1 1846   6.577   4.371   0.763  0.0000  0.0000  0.0000
 1847OM     OM1 1847   8.196   6.066   0.334  0.0000  0.0000  0.0000
 1848OM     OM1 1848   8.169   6.311   0.401  0.0000  0.0000  0.0000
 1849OM     OM1 1849   8.102   6.241   0.156  0.0000  0.0000  0.0000
 1850OM     OM1 1850   8.360   6.235   0.240  0.0000  0.0000  0.0000
 1851OM     OM1 1851   5.361   7.138   9.469  0.0000  0.0000  0.0000
 1852OM     OM1 1852   5.265   7.224   0.086  0.0000  0.0000  0.0000
 1853OM     OM1 1853   5.315   6.974   0.067  0.0000  0.0000  0.0000
 1854OM     OM1 1854   5.108   7.072   9.553  0.0000  0.0000  0.0000
 1855OM     OM1 1855   5.495   5.218   8.716  0.0000  0.0000  0.0000
 1856OM     OM1 1856   5.296   5.060   8.759  0.0000  0.0000  0.0000
 1857OM     OM1 1857   5.255   5.317   8.754  0.0000  0.0000  0.0000
 1858OM     OM1 1858   6.345   2.300   1.387  0.0000  0.0000  0.0000
 1859OM     OM1 1859   0.553   7.503   0.795  0.0000  0.0000  0.0000
 1860OM     OM1 1860   0.682   7.637   0.978  0.0000  0.0000  0.0000
 1861OM     OM1 1861   0.729   7.387   0.955  0.0000  0.0000  0.0000
 1862OM     OM1 1862   0.804   7.532   0.754  0.0000  0.0000  0.0000
 1863OM     OM1 1863   5.829   0.722   8.368  0.0000  0.0000  0.0000
 1864OM     OM1 1864   5.780   0.941   8.264  0.0000  0.0000  0.0000
 1865OM     OM1 1865   6.032   0.865   8.293  0.0000  0.0000  0.0000
 1866OM     OM1 1866   3.021   7.720   1.122  0.0000  0.0000  0.0000
 1867OM     OM1 1867   3.227   7.601   1.212  0.0000  0.0000  0.0000
 1868OM     OM1 1868   6.896   1.998   9.283  0.0000  0.0000  0.0000
 1869OM     OM1 1869   6.681   2.117   9.378  0.0000  0.0000  0.0000
 1870OM     OM1 1870   6.882   2.256   9.285  0.0000  0.0000  0.0000
 1871OM     OM1 1871   6.897   2.128   9.512  0.0000  0.0000  0.0000
 1872OM     OM1 1872   3.876   7.923   0.454  0.0000  0.0000  0.0000
 1873OM     OM1 1873   3.915   7.671   0.514  0.0000  0.0000  0.0000
 1874OM     OM1 1874   3.917   7.856   0.706  0.0000  0.0000  0.0000
 1875OM     OM1 1875   3.699   7.797   0.590  0.0000  0.0000  0.0000
 1876OM     OM1 1876   2.596   5.993   1.125  0.0000  0.0000  0.0000
 1877OM     OM1 1877   2.702   5.847   1.308  0.0000  0.0000  0.0000
 1878OM     OM1 1878   2.851   5.978   1.124  0.0000  0.0000  0.0000
 1879OM     OM1 1879   8.137   3.545   0.749  0.0000  0.0000  0.0000
 1880OM     OM1 1880   8.110   3.787   0.667  0.0000  0.0000  0.0000
 1881OM     OM1 1881   8.187   3.729   0.918  0.0000  0.0000  0.0000
 1882OM     OM1 1882   8.351   3.710   0.721  0.0000  0.0000  0.0000
 1883OM     OM1 1883   5.398   5.340   9.439  0.0000  0.0000  0.0000
 1884OM     OM1 1884   5.253   5.438   9.221  0.0000  0.0000  0.0000
 1885OM     OM1 1885   5.509   5.429   9.228  0.0000  0.0000  0.0000
 1886OM     OM1 1886   1.924   4.265   9.382  0.0000  0.0000  0.0000
 1887OM     OM1 1887   1.898   4.510   9.314  0.0000  0.0000  0.0000
 1888OM     OM1 1888   2.091   4.442   9.485  0.0000  0.0000  0.0000
 1889OM     OM1 1889   5.484   7.551   1.267  0.0000  0.0000  0.0000
 1890OM     OM1 1890   5.268   7.578   1.114  0.0000  0.0000  0.0000
 1891OM     OM1 1891   5.425   7.777   1.149  0.0000  0.0000  0.0000
 1892OM     OM1 1892   1.039   0.342   0.258  0.0000  0.0000  0.0000
 1893OM     OM1 1893   1.271   0.300   0.353  0.0000  0.0000  0.0000
 1894OM     OM1 1894   0.912   0.573   0.316  0.0000  0.0000  0.0000
 1895OM     OM1 1895   1.065   0.373   0.509  0.0000  0.0000  0.0000
 1896OM     OM1 1896   8.156   8.201   8.258  0.0000  0.0000  0.0000
 1897OM     OM1 1897   8.286   8.200   8.479  0.0000  0.0000  0.0000
 1898OM     OM1 1898   8.329   4.725   9.411  0.0000  0.0000  0.0000
 1899OM     OM1 1899   8.256   4.966   9.342  0.0000  0.0000  0.0000
 1900OM     OM1 1900   8.297   4.787   9.155  0.0000  0.0000  0.0000
 1901OM     OM1 1901   8.498   4.875   9.278  0.0000  0.0000  0.0000
 1902OM     OM1 1902   7.910   1.630   0.547  0.0000  0.0000  0.0000
 1903OM     OM1 1903   7.522   1.412   0.649  0.0000  0.0000  0.0000
 1904OM     OM1 1904   7.840   1.325   0.745  0.0000  0.0000  0.0000
 1905OM     OM1 1905   7.675   1.625   0.648  0.0000  0.0000  0.0000
 1906OM     OM1 1906   6.250   8.484   0.109  0.0000  0.0000  0.0000
 1907OM     OM1 1907   6.051   8.488   0.269  0.0000  0.0000  0.0000
 1908OM     OM1 1908   6.273   8.620   0.327  0.0000  0.0000  0.0000
 1909OM     OM1 1909   6.275   8.370   0.353  0.0000  0.0000  0.0000
 1910OM     OM1 1910   8.150   0.299   0.428  0.0000  0.0000  0.0000
 1911OM     OM1 1911   8.351   0.238   0.276  0.0000  0.0000  0.0000
 1912OM     OM1 1912   8.438   0.296   0.050  0.0000  0.0000  0.0000
 1913OM     OM1 1913   8.104   0.216   0.188  0.0000  0.0000  0.0000
 1914OM     OM1 1914   5.836   7.040   0.072  0.0000  0.0000  0.0000
 1915OM     OM1 1915   5.898   7.232   0.232  0.0000  0.0000  0.0000
 1916OM     OM1 1916   5.725   7.023   0.296  0.0000  0.0000  0.0000
 1917OM     OM1 1917   5.664   7.233   0.145  0.0000  0.0000  0.0000
 1918OM     OM1 1918   7.687   2.744   0.971  0.0000  0.0000  0.0000
 1919OM     OM1 1919   7.495   2.581   0.912  0.0000  0.0000  0.0000
 1920OM     OM1 1920   1.153   4.035   1.178  0.0000  0.0000  0.0000
 1921OM     OM1 1921   0.929   4.037   1.307  0.0000  0.0000  0.0000
 1922OM     OM1 1922   1.003   3.828   1.167  0.0000  0.0000  0.0000
 1923OM     OM1 1923   0.920   4.048   1.049  0.0000  0.0000  0.0000
 1924OM     OM1 1924   0.947   8.010   8.746  0.0000  0.0000  0.0000
 1925OM     OM1 1925   1.013   7.865   8.548  0.0000  0.0000  0.0000
 1926OM     OM1 1926   1.251   7.967   8.484  0.0000  0.0000  0.0000
 1927OM     OM1 1927   1.498   7.994   8.526  0.0000  0.0000  0.0000
 1928OM     OM1 1928   4.437   9.162   0.927  0.0000  0.0000  0.0000
 1929OM     OM1 1929   4.260   8.915   1.185  0.0000  0.0000  0.0000
 1930OM     OM1 1930   4.247   8.892   0.600  0.0000  0.0000  0.0000
 1931OM     OM1 1931   4.229   9.149   1.069  0.0000  0.0000  0.0000
 1932OM     OM1 1932   7.234   7.133   0.008  0.0000  0.0000  0.0000
 1933OM     OM1 1933   7.462   7.226   0.118  0.0000  0.0000  0.0000
 1934OM     OM1 1934   7.313   7.387   9.587  0.0000  0.0000  0.0000
 1935OM     OM1 1935   7.225   7.305   0.206  0.0000  0.0000  0.0000
 1936OM     OM1 1936   1.450   7.574   9.334  0.0000  0.0000  0.0000
 1937OM     OM1 1937   1.450   7.615   9.083  0.0000  0.0000  0.0000
 1938OM     OM1 1938   1.540   7.387   9.197  0.0000  0.0000  0.0000
 1939OM     OM1 1939   3.113   8.233   8.191  0.0000  0.0000  0.0000
 1940OM     OM1 1940   2.642   9.500   8.940  0.0000  0.0000  0.0000
 1941OM     OM1 1941   2.407   9.563   9.011  0.0000  0.0000  0.0000
 1942OM     OM1 1942   2.548   9.431   9.185  0.0000  0.0000  0.0000
 1943OM     OM1 1943   2.319   2.088   1.114  0.0000  0.0000  0.0000
 1944OM     OM1 1944   2.481   2.067   1.322  0.0000  0.0000  0.0000
 1945OM     OM1 1945   2.494   1.891   1.140  0.0000  0.0000  0.0000
 1946OM     OM1 1946   4.231   8.861   8.762  0.0000  0.0000  0.0000
 1947OM     OM1 1947   4.564   8.763   8.927  0.0000  0.0000  0.0000
 1948OM     OM1 1948   4.226   8.657   8.592  0.0000  0.0000  0.0000
 1949OM     OM1 1949   0.862   3.676   8.437  0.0000  0.0000  0.0000
 1950OM     OM1 1950   1.005   3.797   8.604  0.0000  0.0000  0.0000
 1951OM     OM1 1951   0.846   3.946   8.467  0.0000  0.0000  0.0000
 1952OM     OM1 1952   4.346   1.811   0.234  0.0000  0.0000  0.0000
 1953OM     OM1 1953   4.295   1.733   9.593  0.0000  0.0000  0.0000
 1954OM     OM1 1954   4.113   1.861   0.137  0.0000  0.0000  0.0000
 1955OM     OM1 1955   4.165   1.622   0.179  0.0000  0.0000  0.0000
 1956OM     OM1 1956   5.982   8.856   8.655  0.0000  0.0000  0.0000
 1957OM     OM1 1957   5.801   8.674   8.662  0.0000  0.0000  0.0000
 1958OM     OM1 1958   5.759   8.876   8.499  0.0000  0.0000  0.0000
 1959OM     OM1 1959   5.745   8.918   8.749  0.0000  0.0000  0.0000
 1960OM     OM1 1960   7.940   0.266   8.416  0.0000  0.0000  0.0000
 1961OM     OM1 1961   7.753   0.354   8.574  0.0000  0.0000  0.0000
 1962OM     OM1 1962   7.743   0.108   8.452  0.0000  0.0000  0.0000
 1963OM     OM1 1963   7.888   0.147   8.651  0.0000  0.0000  0.0000
 1964OM     OM1 1964   1.343   1.328   9.153  0.0000  0.0000  0.0000
 1965OM     OM1 1965   1.501   1.249   9.337  0.0000  0.0000  0.0000
 1966OM     OM1 1966   1.459   1.499   9.319  0.0000  0.0000  0.0000
 1967OM     OM1 1967   1.601   1.395   9.133  0.0000  0.0000  0.0000
 1968OM     OM1 1968   0.537   3.924   1.067  0.0000  0.0000  0.0000
 1969OM     OM1 1969   0.331   3.936   1.246  0.0000  0.0000  0.0000
 1970OM     OM1 1970   0.508   3.744   1.246  0.0000  0.0000  0.0000
 1971OM     OM1 1971   0.429   7.147   1.161  0.0000  0.0000  0.0000
 1972OM     OM1 1972   0.180   7.067   1.172  0.0000  0.0000  0.0000
 1973OM     OM1 1973   0.253   7.243   0.989  0.0000  0.0000  0.0000
 1974OM     OM1 1974   0.191   7.130   0.770  0.0000  0.0000  0.0000
 1975OM     OM1 1975   6.763   4.379   9.109  0.0000  0.0000  0.0000
 1976OM     OM1 1976   6.690   4.749   9.155  0.0000  0.0000  0.0000
 1977OM     OM1 1977   6.883   4.598   9.053  0.0000  0.0000  0.0000
 1978OM     OM1 1978   6.922   4.732   9.272  0.0000  0.0000  0.0000
 1979OM     OM1 1979   8.706   1.917   1.023  0.0000  0.0000  0.0000
 1980OM     OM1 1980   8.943   1.890   1.143  0.0000  0.0000  0.0000
 1981OM     OM1 1981   8.931   1.882   0.884  0.0000  0.0000  0.0000
 1982OM     OM1 1982   8.884   2.106   0.999  0.0000  0.0000  0.0000
 1983OM     OM1 1983   6.823   7.359   1.040  0.0000  0.0000  0.0000
 1984OM     OM1 1984   6.790   7.203   1.248  0.0000  0.0000  0.0000
 1985OM     OM1 1985   6.583   7.312   1.111  0.0000  0.0000  0.0000
 1986OM     OM1 1986   6.737   7.450   1.282  0.0000  0.0000  0.0000
 1987OM     OM1 1987   5.586   0.994   8.445  0.0000  0.0000  0.0000
 1988OM     OM1 1988   5.541   0.815   8.639  0.0000  0.0000  0.0000
 1989OM     OM1 1989   5.723   1.148   8.692  0.0000  0.0000  0.0000
 1990OM     OM1 1990   5.476   1.060   8.669  0.0000  0.0000  0.0000
 1991OM     OM1 1991   8.810   8.465   1.119  0.0000  0.0000  0.0000
 1992OM     OM1 1992   8.615   8.637   1.096  0.0000  0.0000  0.0000
 1993OM     OM1 1993   8.851   8.711   1.206  0.0000  0.0000  0.0000
 1994OM     OM1 1994   8.843   8.662   0.954  0.0000  0.0000  0.0000
 1995OM     OM1 1995   6.440   6.982   9.235  0.0000  0.0000  0.0000
 1996OM     OM1 1996   6.579   7.114   9.394  0.0000  0.0000  0.0000
 1997OM     OM1 1997   6.693   6.905   9.270  0.0000  0.0000  0.0000
 1998OM     OM1 1998   6.650   7.121   9.140  0.0000  0.0000  0.0000
 1999OM     OM1 1999   6.444   3.060   9.081  0.0000  0.0000  0.0000
 2000OM     OM1 2000   6.287   2.909   8.936  0.0000  0.0000  0.0000
 2001OM     OM1 2001   6.523   2.832   9.009  0.0000  0.0000  0.0000
 2002OM     OM1 2002   6.506   3.024   8.829  0.0000  0.0000  0.0000
 2003OM     OM1 2003   3.320   0.063   9.243  0.0000  0.0000  0.0000
 2004OM     OM1 2004   3.532   0.098   9.399  0.0000  0.0000  0.0000
 2005OM     OM1 2005   3.527   0.154   9.140  0.0000  0.0000  0.0000
 2006OM     OM1 2006   4.158   7.709   0.512  0.0000  0.0000  0.0000
 2007OM     OM1 2007   4.047   7.622   0.286  0.0000  0.0000  0.0000
 2008OM     OM1 2008   4.094   7.463   0.488  0.0000  0.0000  0.0000
 2009OM     OM1 2009   0.255   7.989   8.308  0.0000  0.0000  0.0000
 2010OM     OM1 2010   2.017   8.627   0.878  0.0000  0.0000  0.0000
 2011OM     OM1 2011   1.938   8.706   0.633  0.0000  0.0000  0.0000
 2012OM     OM1 2012   1.910   8.856   0.840  0.0000  0.0000  0.0000
 2013OM     OM1 2013   2.142   8.823   0.747  0.0000  0.0000  0.0000
 2014OM     OM1 2014   1.235   3.689   8.403  0.0000  0.0000  0.0000
 2015OM     OM1 2015   1.472   3.749   8.492  0.0000  0.0000  0.0000
 2016OM     OM1 2016   1.350   3.541   8.595  0.0000  0.0000  0.0000
 2017OM     OM1 2017   1.255   3.765   8.651  0.0000  0.0000  0.0000
 2018OM     OM1 2018   1.960   1.738   1.184  0.0000  0.0000  0.0000
 2019OM     OM1 2019   2.188   1.680   1.297  0.0000  0.0000  0.0000
 2020OM     OM1 2020   7.921   7.429   8.506  0.0000  0.0000  0.0000
 2021OM     OM1 2021   7.952   7.583   8.298  0.0000  0.0000  0.0000
 2022OM     OM1 2022   8.144   7.410   8.371  0.0000  0.0000  0.0000
 2023OM     OM1 2023   6.258   0.279   8.632  0.0000  0.0000  0.0000
 2024OM     OM1 2024   5.999   0.269   8.659  0.0000  0.0000  0.0000
 2025OM     OM1 2025   6.122   0.093   8.504  0.0000  0.0000  0.0000
 2026OM     OM1 2026   6.107   0.332   8.422  0.0000  0.0000  0.0000
 2027OM     OM1 2027   8.542   1.423   1.353  0.0000  0.0000  0.0000
 2028OM     OM1 2028   8.416   1.388   1.129  0.0000  0.0000  0.0000
 2029OM     OM1 2029   5.639   7.517   8.541  0.0000  0.0000  0.0000
 2030OM     OM1 2030   5.877   7.433   8.606  0.0000  0.0000  0.0000
 2031OM     OM1 2031   5.829   7.507   8.366  0.0000  0.0000  0.0000
 2032OM     OM1 2032   5.825   7.687   8.569  0.0000  0.0000  0.0000
 2033OM     OM1 2033   1.636   4.497   8.761  0.0000  0.0000  0.0000
 2034OM     OM1 2034   1.841   4.483   8.591  0.0000  0.0000  0.0000
 2035OM     OM1 2035   1.685   4.684   8.581  0.0000  0.0000  0.0000
 2036OM     OM1 2036   1.597   4.432   8.522  0.0000  0.0000  0.0000
 2037OM     OM1 2037   1.268   0.704   0.166  0.0000  0.0000  0.0000
 2038OM     OM1 2038   1.391   0.778   0.377  0.0000  0.0000  0.0000
 2039OM     OM1 2039   1.400   0.521   0.306  0.0000  0.0000  0.0000
 2040OM     OM1 2040   1.530   0.697   0.167  0.0000  0.0000  0.0000
 2041OM     OM1 2041   4.717   4.047   8.302  0.0000  0.0000  0.0000
 2042OM     OM1 2042   4.835   3.820   8.246  0.0000  0.0000  0.0000
 2043OM     OM1 2043   9.310   2.676   8.316  0.0000  0.0000  0.0000
 2044OM     OM1 2044   9.499   2.725   8.487  0.0000  0.0000  0.0000
 2045OM     OM1 2045   9.567   2.610   8.267  0.0000  0.0000  0.0000
 2046OM     OM1 2046   1.652   6.351   8.260  0.0000  0.0000  0.0000
 2047OM     OM1 2047   1.466   6.185   8.290  0.0000  0.0000  0.0000
 2048OM     OM1 2048   1.437   6.412   8.404  0.0000  0.0000  0.0000
 2049OM     OM1 2049   6.681   5.175   8.762  0.0000  0.0000  0.0000
 2050OM     OM1 2050   6.575   5.132   8.996  0.0000  0.0000  0.0000
 2051OM     OM1 2051   6.832   5.092   8.965  0.0000  0.0000  0.0000
 2052OM     OM1 2052   6.744   5.331   8.971  0.0000  0.0000  0.0000
 2053OM     OM1 2053   9.086   7.388   9.546  0.0000  0.0000  0.0000
 2054OM     OM1 2054   8.976   7.560   0.097  0.0000  0.0000  0.0000
 2055OM     OM1 2055   0.015   0.184   0.590  0.0000  0.0000  0.0000
 2056OM     OM1 2056   0.167   0.161   0.390  0.0000  0.0000  0.0000
 2057OM     OM1 2057   0.270   0.271   0.597  0.0000  0.0000  0.0000
 2058OM     OM1 2058   0.229   0.027   0.617  0.0000  0.0000  0.0000
 2059OM     OM1 2059   0.142   9.594   9.271  0.0000  0.0000  0.0000
 2060OM     OM1 2060   0.164   9.393   9.087  0.0000  0.0000  0.0000
 2061OM     OM1 2061   0.099   9.347   9.342  0.0000  0.0000  0.0000
 2062OM     OM1 2062   0.526   2.326   0.866  0.0000  0.0000  0.0000
 2063OM     OM1 2063   0.308   2.276   0.992  0.0000  0.0000  0.0000
 2064OM     OM1 2064   0.411   2.526   0.999  0.0000  0.0000  0.0000
 2065OM     OM1 2065   0.297   2.440   0.788  0.0000  0.0000  0.0000
 2066OM     OM1 2066   6.613   7.624   1.431  0.0000  0.0000  0.0000
 2067OM     OM1 2067   5.632   1.681   9.096  0.0000  0.0000  0.0000
 2068OM     OM1 2068   5.713   1.910   9.189  0.0000  0.0000  0.0000
 2069OM     OM1 2069   5.599   1.740   9.352  0.0000  0.0000  0.0000
 2070OM     OM1 2070   9.326   7.309   9.514  0.0000  0.0000  0.0000
 2071OM     OM1 2071   9.216   7.408   9.308  0.0000  0.0000  0.0000
 2072OM     OM1 2072   1.060   3.710   0.338  0.0000  0.0000  0.0000
 2073OM     OM1 2073   1.245   3.545   0.404  0.0000  0.0000  0.0000
 2074OM     OM1 2074   1.058   3.347   9.572  0.0000  0.0000  0.0000
 2075OM     OM1 2075   4.197   2.980   9.091  0.0000  0.0000  0.0000
 2076OM     OM1 2076   4.379   2.857   9.226  0.0000  0.0000  0.0000
 2077OM     OM1 2077   4.303   2.775   8.986  0.0000  0.0000  0.0000
 2078OM     OM1 2078   4.460   2.973   9.007  0.0000  0.0000  0.0000
 2079OM     OM1 2079   1.826   8.225   0.683  0.0000  0.0000  0.0000
 2080OM     OM1 2080   1.895   8.401   0.879  0.0000  0.0000  0.0000
 2081OM     OM1 2081   2.049   8.371   0.672  0.0000  0.0000  0.0000
 2082OM     OM1 2082   8.510   2.095   1.032  0.0000  0.0000  0.0000
 2083OM     OM1 2083   8.471   1.859   0.923  0.0000  0.0000  0.0000
 2084OM     OM1 2084   4.663   5.627   8.743  0.0000  0.0000  0.0000
 2085OM     OM1 2085   4.826   5.585   8.543  0.0000  0.0000  0.0000
 2086OM     OM1 2086   4.776   5.397   8.704  0.0000  0.0000  0.0000
 2087OM     OM1 2087   4.593   5.461   8.540  0.0000  0.0000  0.0000
 2088OM     OM1 2088   2.524   1.672   8.770  0.0000  0.0000  0.0000
 2089OM     OM1 2089   2.493   1.608   9.013  0.0000  0.0000  0.0000
 2090OM     OM1 2090   2.323   1.523   8.838  0.0000  0.0000  0.0000
 2091OM     OM1 2091   2.333   1.783   8.911  0.0000  0.0000  0.0000
 2092OM     OM1 2092   3.358   7.342   8.447  0.0000  0.0000  0.0000
 2093OM     OM1 2093   3.424   7.170   8.635  0.0000  0.0000  0.0000
 2094OM     OM1 2094   3.187   7.177   8.535  0.0000  0.0000  0.0000
 2095OM     OM1 2095   3.375   7.070   8.396  0.0000  0.0000  0.0000
 2096OM     OM1 2096   9.021   8.796   8.435  0.0000  0.0000  0.0000
 2097OM     OM1 2097   9.225   8.644   8.373  0.0000  0.0000  0.0000
 2098OM     OM1 2098   7.681   4.712   8.450  0.0000  0.0000  0.0000
 2099OM     OM1 2099   7.868   4.601   8.292  0.0000  0.0000  0.0000
 2100OM     OM1 2100   7.511   4.894   8.518  0.0000  0.0000  0.0000
 2101OM     OM1 2101   4.969   6.865   9.490  0.0000  0.0000  0.0000
 2102OM     OM1 2102   4.876   7.017   0.072  0.0000  0.0000  0.0000
 2103OM     OM1 2103   4.885   7.113   9.439  0.0000  0.0000  0.0000
 2104OM     OM1 2104   1.028   4.263   0.603  0.0000  0.0000  0.0000
 2105OM     OM1 2105   0.882   4.144   0.805  0.0000  0.0000  0.0000
 2106OM     OM1 2106   0.852   4.396   0.752  0.0000  0.0000  0.0000
 2107OM     OM1 2107   6.114   0.436   1.220  0.0000  0.0000  0.0000
 2108OM     OM1 2108   5.940   0.602   1.139  0.0000  0.0000  0.0000
 2109OM     OM1 2109   3.367   3.606   8.483  0.0000  0.0000  0.0000
 2110OM     OM1 2110   3.154   3.748   8.493  0.0000  0.0000  0.0000
 2111OM     OM1 2111   3.235   3.615   8.709  0.0000  0.0000  0.0000
 2112OM     OM1 2112   3.131   3.490   8.511  0.0000  0.0000  0.0000
 2113OM     OM1 2113   4.273   6.206   8.654  0.0000  0.0000  0.0000
 2114OM     OM1 2114   4.351   5.950   8.624  0.0000  0.0000  0.0000
 2115OM     OM1 2115   4.244   6.032   8.845  0.0000  0.0000  0.0000
 2116OM     OM1 2116   4.484   6.122   8.768  0.0000  0.0000  0.0000
 2117OM     OM1 2117   6.170   7.962   9.578  0.0000  0.0000  0.0000
 2118OM     OM1 2118   6.048   7.749   9.560  0.0000  0.0000  0.0000
 2119OM     OM1 2119   5.827   7.913   9.562  0.0000  0.0000  0.0000
 2120OM     OM1 2120   5.864   7.722   0.126  0.0000  0.0000  0.0000
 2121OM     OM1 2121   8.060   1.412   9.457  0.0000  0.0000  0.0000
 2122OM     OM1 2122   7.885   1.232   9.352  0.0000  0.0000  0.0000
 2123OM     OM1 2123   8.132   1.189   9.331  0.0000  0.0000  0.0000
 2124OM     OM1 2124   8.045   1.391   9.203  0.0000  0.0000  0.0000
 2125OM     OM1 2125   7.880   8.470   0.762  0.0000  0.0000  0.0000
 2126OM     OM1 2126   7.968   8.318   0.566  0.0000  0.0000  0.0000
 2127OM     OM1 2127   6.953   7.933   0.151  0.0000  0.0000  0.0000
 2128OM     OM1 2128   6.745   7.922   0.002  0.0000  0.0000  0.0000
 2129OM     OM1 2129   6.728   7.838   0.251  0.0000  0.0000  0.0000
 2130OM     OM1 2130   6.870   7.705   0.055  0.0000  0.0000  0.0000
 2131OM     OM1 2131   2.809   9.509   8.749  0.0000  0.0000  0.0000
 2132OM     OM1 2132   2.554   9.476   8.698  0.0000  0.0000  0.0000
 2133OM     OM1 2133   5.048   6.205   8.514  0.0000  0.0000  0.0000
 2134OM     OM1 2134   5.054   6.304   8.755  0.0000  0.0000  0.0000
 2135OM     OM1 2135   5.277   6.295   8.619  0.0000  0.0000  0.0000
 2136OM     OM1 2136   5.104   6.465   8.549  0.0000  0.0000  0.0000
 2137OM     OM1 2137   1.818   2.364   8.582  0.0000  0.0000  0.0000
 2138OM     OM1 2138   1.984   2.184   8.617  0.0000  0.0000  0.0000
 2139OM     OM1 2139   2.054   2.364   8.445  0.0000  0.0000  0.0000
 2140OM     OM1 2140   3.557   8.436   0.728  0.0000  0.0000  0.0000
 2141OM     OM1 2141   3.798   8.399   0.648  0.0000  0.0000  0.0000
 2142OM     OM1 2142   3.690   8.643   0.652  0.0000  0.0000  0.0000
 2143OM     OM1 2143   3.635   8.469   0.467  0.0000  0.0000  0.0000
 2144OM     OM1 2144   1.195   9.364   8.758  0.0000  0.0000  0.0000
 2145OM     OM1 2145   1.309   9.453   8.981  0.0000  0.0000  0.0000
 2146OM     OM1 2146   1.186   9.216   8.972  0.0000  0.0000  0.0000
 2147OM     OM1 2147   1.053   9.436   8.963  0.0000  0.0000  0.0000
 2148OM     OM1 2148   1.715   6.481   1.416  0.0000  0.0000  0.0000
 2149OM     OM1 2149   3.839   5.167   0.972  0.0000  0.0000  0.0000
 2150OM     OM1 2150   3.682   4.976   1.069  0.0000  0.0000  0.0000
 2151OM     OM1 2151   3.606   5.140   0.880  0.0000  0.0000  0.0000
 2152OM     OM1 2152   8.135   5.715   0.119  0.0000  0.0000  0.0000
 2153OM     OM1 2153   8.137   5.761   9.466  0.0000  0.0000  0.0000
 2154OM     OM1 2154   8.306   5.889   9.603  0.0000  0.0000  0.0000
 2155OM     OM1 2155   8.325   5.621   9.570  0.0000  0.0000  0.0000
 2156OM     OM1 2156   2.802   5.951   0.454  0.0000  0.0000  0.0000
 2157OM     OM1 2157   2.632   6.153   0.436  0.0000  0.0000  0.0000
 2158OM     OM1 2158   2.736   6.081   0.669  0.0000  0.0000  0.0000
 2159OM     OM1 2159   7.697   8.248   1.064  0.0000  0.0000  0.0000
 2160OM     OM1 2160   7.901   8.383   1.159  0.0000  0.0000  0.0000
 2161OM     OM1 2161   4.774   8.644   8.449  0.0000  0.0000  0.0000
 2162OM     OM1 2162   4.825   8.881   8.367  0.0000  0.0000  0.0000
 2163OM     OM1 2163   5.126   8.522   8.351  0.0000  0.0000  0.0000
 2164OM     OM1 2164   4.942   8.671   8.250  0.0000  0.0000  0.0000
 2165OM     OM1 2165   3.345   8.326   8.245  0.0000  0.0000  0.0000
 2166OM     OM1 2166   3.394   8.589   8.313  0.0000  0.0000  0.0000
 2167OM     OM1 2167   9.238   2.738   9.057  0.0000  0.0000  0.0000
 2168OM     OM1 2168   9.189   2.780   8.796  0.0000  0.0000  0.0000
 2169OM     OM1 2169   9.266   2.551   8.888  0.0000  0.0000  0.0000
 2170OM     OM1 2170   9.027   2.632   8.946  0.0000  0.0000  0.0000
 2171OM     OM1 2171   6.464   5.037   9.550  0.0000  0.0000  0.0000
 2172OM     OM1 2172   6.409   5.261   9.448  0.0000  0.0000  0.0000
 2173OM     OM1 2173   6.508   5.249   0.089  0.0000  0.0000  0.0000
 2174OM     OM1 2174   6.259   5.197   0.043  0.0000  0.0000  0.0000
 2175OM     OM1 2175   5.760   4.472   1.024  0.0000  0.0000  0.0000
 2176OM     OM1 2176   5.363   4.700   1.248  0.0000  0.0000  0.0000
 2177OM     OM1 2177   5.831   4.624   1.222  0.0000  0.0000  0.0000
 2178OM     OM1 2178   5.582   4.625   1.139  0.0000  0.0000  0.0000
 2179OM     OM1 2179   8.728   7.935   9.560  0.0000  0.0000  0.0000
 2180OM     OM1 2180   8.640   8.101   0.117  0.0000  0.0000  0.0000
 2181OM     OM1 2181   5.026   6.635   9.352  0.0000  0.0000  0.0000
 2182OM     OM1 2182   5.171   6.844   9.330  0.0000  0.0000  0.0000
 2183OM     OM1 2183   4.919   6.833   9.239  0.0000  0.0000  0.0000
 2184OM     OM1 2184   4.346   7.472   0.920  0.0000  0.0000  0.0000
 2185OM     OM1 2185   4.269   7.459   0.683  0.0000  0.0000  0.0000
 2186OM     OM1 2186   4.473   7.623   0.735  0.0000  0.0000  0.0000
 2187OM     OM1 2187   4.503   7.363   0.742  0.0000  0.0000  0.0000
 2188OM     OM1 2188   7.694   5.935   0.126  0.0000  0.0000  0.0000
 2189OM     OM1 2189   7.479   6.054   0.032  0.0000  0.0000  0.0000
 2190OM     OM1 2190   7.648   5.940   9.471  0.0000  0.0000  0.0000
 2191OM     OM1 2191   7.512   5.790   0.014  0.0000  0.0000  0.0000
 2192OM     OM1 2192   5.594   3.069   8.567  0.0000  0.0000  0.0000
 2193OM     OM1 2193   5.614   3.186   8.802  0.0000  0.0000  0.0000
 2194OM     OM1 2194   5.331   2.938   8.581  0.0000  0.0000  0.0000
 2195OM     OM1 2195   5.498   2.938   8.768  0.0000  0.0000  0.0000
 2196OM     OM1 2196   8.214   5.609   0.547  0.0000  0.0000  0.0000
 2197OM     OM1 2197   8.453   5.565   0.447  0.0000  0.0000  0.0000
 2198OM     OM1 2198   8.387   5.460   0.679  0.0000  0.0000  0.0000
 2199OM     OM1 2199   8.282   5.372   0.462  0.0000  0.0000  0.0000
 2200OM     OM1 2200   8.310   0.988   8.308  0.0000  0.0000  0.0000
 2201OM     OM1 2201   8.524   1.123   8.311  0.0000  0.0000  0.0000
 2202OM     OM1 2202   7.962   6.206   9.538  0.0000  0.0000  0.0000
 2203OM     OM1 2203   7.867   6.135   9.295  0.0000  0.0000  0.0000
 2204OM     OM1 2204   8.003   5.976   9.432  0.0000  0.0000  0.0000
 2205OM     OM1 2205   8.123   6.192   9.334  0.0000  0.0000  0.0000
 2206OM     OM1 2206   5.512   0.635   8.829  0.0000  0.0000  0.0000
 2207OM     OM1 2207   5.636   0.845   8.892  0.0000  0.0000  0.0000
 2208OM     OM1 2208   5.752   0.679   8.737  0.0000  0.0000  0.0000
 2209OM     OM1 2209   1.541   8.970   8.597  0.0000  0.0000  0.0000
 2210OM     OM1 2210   1.576   9.136   8.797  0.0000  0.0000  0.0000
 2211OM     OM1 2211   1.340   9.067   8.717  0.0000  0.0000  0.0000
 2212OM     OM1 2212   8.906   5.561   0.661  0.0000  0.0000  0.0000
 2213OM     OM1 2213   8.939   5.445   0.421  0.0000  0.0000  0.0000
 2214OM     OM1 2214   9.094   5.645   0.504  0.0000  0.0000  0.0000
 2215OM     OM1 2215   9.098   5.398   0.610  0.0000  0.0000  0.0000
 2216OM     OM1 2216   8.094   2.000   8.420  0.0000  0.0000  0.0000
 2217OM     OM1 2217   7.883   2.035   8.261  0.0000  0.0000  0.0000
 2218OM     OM1 2218   3.549   2.456   0.584  0.0000  0.0000  0.0000
 2219OM     OM1 2219   3.489   2.614   0.786  0.0000  0.0000  0.0000
 2220OM     OM1 2220   3.741   2.570   0.706  0.0000  0.0000  0.0000
 2221OM     OM1 2221   3.581   2.729   0.582  0.0000  0.0000  0.0000
 2222OM     OM1 2222   4.510   0.889   0.113  0.0000  0.0000  0.0000
 2223OM     OM1 2223   4.338   0.951   9.528  0.0000  0.0000  0.0000
 2224OM     OM1 2224   4.273   0.787   0.109  0.0000  0.0000  0.0000
 2225OM     OM1 2225   4.442   0.708   9.532  0.0000  0.0000  0.0000
 2226OM     OM1 2226   6.670   8.730   0.245  0.0000  0.0000  0.0000
 2227OM     OM1 2227   6.842   8.525   0.194  0.0000  0.0000  0.0000
 2228OM     OM1 2228   6.921   8.728   0.336  0.0000  0.0000  0.0000
 2229OM     OM1 2229   6.860   8.764   0.083  0.0000  0.0000  0.0000
 2230OM     OM1 2230   5.899   0.464   8.802  0.0000  0.0000  0.0000
 2231OM     OM1 2231   6.018   0.700   8.754  0.0000  0.0000  0.0000
 2232OM     OM1 2232   5.906   0.567   8.567  0.0000  0.0000  0.0000
 2233OM     OM1 2233   8.764   4.493   8.356  0.0000  0.0000  0.0000
 2234OM     OM1 2234   9.016   4.446   8.300  0.0000  0.0000  0.0000
 2235OM     OM1 2235   0.268   0.114   0.119  0.0000  0.0000  0.0000
 2236OM     OM1 2236   0.289   9.475   0.196  0.0000  0.0000  0.0000
 2237OM     OM1 2237   0.452   0.023   0.322  0.0000  0.0000  0.0000
 2238OM     OM1 2238   0.489   0.001   0.063  0.0000  0.0000  0.0000
 2239OM     OM1 2239   6.538   7.219   8.432  0.0000  0.0000  0.0000
 2240OM     OM1 2240   6.619   7.450   8.324  0.0000  0.0000  0.0000
 2241OM     OM1 2241   6.651   7.406   8.572  0.0000  0.0000  0.0000
 2242OM     OM1 2242   7.290   4.319   0.703  0.0000  0.0000  0.0000
 2243OM     OM1 2243   7.495   4.299   0.851  0.0000  0.0000  0.0000
 2244OM     OM1 2244   7.459   4.525   0.701  0.0000  0.0000  0.0000
 2245OM     OM1 2245   7.537   4.306   0.598  0.0000  0.0000  0.0000
 2246OM     OM1 2246   6.335   5.305   8.390  0.0000  0.0000  0.0000
 2247OM     OM1 2247   6.247   5.280   8.640  0.0000  0.0000  0.0000
 2248OM     OM1 2248   6.495   5.224   8.582  0.0000  0.0000  0.0000
 2249OM     OM1 2249   6.395   5.480   8.562  0.0000  0.0000  0.0000
 2250OM     OM1 2250   8.825   3.414   0.007  0.0000  0.0000  0.0000
 2251OM     OM1 2251   8.603   3.305   9.525  0.0000  0.0000  0.0000
 2252OM     OM1 2252   8.631   3.565   9.496  0.0000  0.0000  0.0000
 2253OM     OM1 2253   8.327   6.576   1.071  0.0000  0.0000  0.0000
 2254OM     OM1 2254   8.308   6.584   0.815  0.0000  0.0000  0.0000
 2255OM     OM1 2255   8.398   6.365   0.936  0.0000  0.0000  0.0000
 2256OM     OM1 2256   8.151   6.420   0.963  0.0000  0.0000  0.0000
 2257OM     OM1 2257   7.192   7.363   9.090  0.0000  0.0000  0.0000
 2258OM     OM1 2258   7.419   7.231   9.027  0.0000  0.0000  0.0000
 2259OM     OM1 2259   7.285   7.361   8.844  0.0000  0.0000  0.0000
 2260OM     OM1 2260   7.415   7.485   9.037  0.0000  0.0000  0.0000
 2261OM     OM1 2261   1.896   5.218   1.009  0.0000  0.0000  0.0000
 2262OM     OM1 2262   1.968   5.338   0.791  0.0000  0.0000  0.0000
 2263OM     OM1 2263   1.732   5.237   0.795  0.0000  0.0000  0.0000
 2264OM     OM1 2264   1.938   5.078   0.794  0.0000  0.0000  0.0000
 2265OM     OM1 2265   2.011   9.124   0.470  0.0000  0.0000  0.0000
 2266OM     OM1 2266   2.092   9.166   0.723  0.0000  0.0000  0.0000
 2267OM     OM1 2267   2.258   9.089   0.536  0.0000  0.0000  0.0000
 2268OM     OM1 2268   2.168   9.328   0.526  0.0000  0.0000  0.0000
 2269OM     OM1 2269   1.596   1.600   0.145  0.0000  0.0000  0.0000
 2270OM     OM1 2270   1.551   1.351   0.196  0.0000  0.0000  0.0000
 2271OM     OM1 2271   1.557   1.235   0.428  0.0000  0.0000  0.0000
 2272OM     OM1 2272   1.689   1.137   0.207  0.0000  0.0000  0.0000
 2273OM     OM1 2273   9.505   7.187   0.032  0.0000  0.0000  0.0000
 2274OM     OM1 2274   9.560   7.417   9.515  0.0000  0.0000  0.0000
 2275OM     OM1 2275   9.434   7.419   0.131  0.0000  0.0000  0.0000
 2276OM     OM1 2276   0.763   3.718   9.281  0.0000  0.0000  0.0000
 2277OM     OM1 2277   0.718   3.908   9.109  0.0000  0.0000  0.0000
 2278OM     OM1 2278   0.628   3.670   9.060  0.0000  0.0000  0.0000
 2279OM     OM1 2279   0.889   3.725   9.051  0.0000  0.0000  0.0000
 2280OM     OM1 2280   1.406   7.185   8.762  0.0000  0.0000  0.0000
 2281OM     OM1 2281   1.556   7.354   8.874  0.0000  0.0000  0.0000
 2282OM     OM1 2282   1.462   7.152   9.015  0.0000  0.0000  0.0000
 2283OM     OM1 2283   1.302   7.358   8.921  0.0000  0.0000  0.0000
 2284OM     OM1 2284   1.298   0.767   1.009  0.0000  0.0000  0.0000
 2285OM     OM1 2285   1.315   0.527   1.097  0.0000  0.0000  0.0000
 2286OM     OM1 2286   1.535   0.615   0.994  0.0000  0.0000  0.0000
 2287OM     OM1 2287   1.341   0.576   0.839  0.0000  0.0000  0.0000
 2288OM     OM1 2288   5.848   6.238   9.044  0.0000  0.0000  0.0000
 2289OM     OM1 2289   5.753   6.299   8.802  0.0000  0.0000  0.0000
 2290OM     OM1 2290   5.761   6.471   9.004  0.0000  0.0000  0.0000
 2291OM     OM1 2291   0.766   2.741   9.027  0.0000  0.0000  0.0000
 2292OM     OM1 2292   0.925   2.928   8.982  0.0000  0.0000  0.0000
 2293OM     OM1 2293   0.911   2.828   9.226  0.0000  0.0000  0.0000
 2294OM     OM1 2294   0.717   2.977   9.131  0.0000  0.0000  0.0000
 2295OM     OM1 2295   4.270   9.136   8.438  0.0000  0.0000  0.0000
 2296OM     OM1 2296   5.069   1.603   1.197  0.0000  0.0000  0.0000
 2297OM     OM1 2297   5.022   1.347   1.284  0.0000  0.0000  0.0000
 2298OM     OM1 2298   4.842   1.532   1.288  0.0000  0.0000  0.0000
 2299OM     OM1 2299   2.252   8.584   8.328  0.0000  0.0000  0.0000
 2300OM     OM1 2300   3.808   6.605   0.064  0.0000  0.0000  0.0000
 2301OM     OM1 2301   3.786   6.858   0.144  0.0000  0.0000  0.0000
 2302OM     OM1 2302   4.023   6.740   0.122  0.0000  0.0000  0.0000
 2303OM     OM1 2303   3.859   6.678   0.312  0.0000  0.0000  0.0000
 2304OM     OM1 2304   0.336   3.989   8.598  0.0000  0.0000  0.0000
 2305OM     OM1 2305   7.875   5.594   0.844  0.0000  0.0000  0.0000
 2306OM     OM1 2306   7.958   5.830   0.859  0.0000  0.0000  0.0000
 2307OM     OM1 2307   7.749   5.776   0.707  0.0000  0.0000  0.0000
 2308OM     OM1 2308   7.984   5.703   0.626  0.0000  0.0000  0.0000
 2309OM     OM1 2309   0.202   7.539   0.438  0.0000  0.0000  0.0000
 2310OM     OM1 2310   0.221   7.271   0.415  0.0000  0.0000  0.0000
 2311OM     OM1 2311   0.022   7.410   0.307  0.0000  0.0000  0.0000
 2312OM     OM1 2312   0.043   7.387   0.568  0.0000  0.0000  0.0000
 2313OM     OM1 2313   0.146   5.167   1.091  0.0000  0.0000  0.0000
 2314OM     OM1 2314   0.304   5.293   0.933  0.0000  0.0000  0.0000
 2315OM     OM1 2315   0.141   5.117   0.831  0.0000  0.0000  0.0000
 2316OM     OM1 2316   0.354   5.046   0.979  0.0000  0.0000  0.0000
 2317OM     OM1 2317   7.001   5.929   0.050  0.0000  0.0000  0.0000
 2318OM     OM1 2318   6.805   5.984   9.482  0.0000  0.0000  0.0000
 2319OM     OM1 2319   6.972   5.795   9.433  0.0000  0.0000  0.0000
 2320OM     OM1 2320   6.793   5.770   0.018  0.0000  0.0000  0.0000
 2321OM     OM1 2321   2.673   0.467   0.110  0.0000  0.0000  0.0000
 2322OM     OM1 2322   2.585   0.488   0.358  0.0000  0.0000  0.0000
 2323OM     OM1 2323   2.701   0.274   0.290  0.0000  0.0000  0.0000
 2324OM     OM1 2324   3.588   8.330   1.426  0.0000  0.0000  0.0000
 2325OM     OM1 2325   3.702   8.463   1.241  0.0000  0.0000  0.0000
 2326OM     OM1 2326   2.840   8.895   0.865  0.0000  0.0000  0.0000
 2327OM     OM1 2327   2.672   8.975   1.058  0.0000  0.0000  0.0000
 2328OM     OM1 2328   2.859   8.809   1.116  0.0000  0.0000  0.0000
 2329OM     OM1 2329   2.925   9.051   1.047  0.0000  0.0000  0.0000
 2330OM     OM1 2330   0.219   7.358   8.459  0.0000  0.0000  0.0000
 2331OM     OM1 2331   0.318   7.154   8.571  0.0000  0.0000  0.0000
 2332OM     OM1 2332   0.420   7.470   8.343  0.0000  0.0000  0.0000
 2333OM     OM1 2333   2.557   7.031   0.279  0.0000  0.0000  0.0000
 2334OM     OM1 2334   2.522   7.282   0.248  0.0000  0.0000  0.0000
 2335OM     OM1 2335   2.364   7.146   0.409  0.0000  0.0000  0.0000
 2336OM     OM1 2336   2.611   7.194   0.481  0.0000  0.0000  0.0000
 2337OM     OM1 2337   8.532   1.961   0.496  0.0000  0.0000  0.0000
 2338OM     OM1 2338   8.970   1.752   0.373  0.0000  0.0000  0.0000
 2339OM     OM1 2339   8.603   1.832   0.705  0.0000  0.0000  0.0000
 2340OM     OM1 2340   8.779   1.831   0.514  0.0000  0.0000  0.0000
 2341OM     OM1 2341   8.927   4.758   8.997  0.0000  0.0000  0.0000
 2342OM     OM1 2342   8.828   4.554   8.595  0.0000  0.0000  0.0000
 2343OM     OM1 2343   8.973   4.726   8.742  0.0000  0.0000  0.0000
 2344OM     OM1 2344   1.255   4.479   9.354  0.0000  0.0000  0.0000
 2345OM     OM1 2345   1.126   4.502   9.583  0.0000  0.0000  0.0000
 2346OM     OM1 2346   1.111   4.699   9.426  0.0000  0.0000  0.0000
 2347OM     OM1 2347   1.337   4.655   9.525  0.0000  0.0000  0.0000
 2348OM     OM1 2348   4.940   6.030   8.656  0.0000  0.0000  0.0000
 2349OM     OM1 2349   5.103   5.959   8.454  0.0000  0.0000  0.0000
 2350OM     OM1 2350   4.229   9.048   0.816  0.0000  0.0000  0.0000
 2351OM     OM1 2351   4.009   9.002   0.671  0.0000  0.0000  0.0000
 2352OM     OM1 2352   4.208   9.298   0.862  0.0000  0.0000  0.0000
 2353OM     OM1 2353   4.209   9.143   0.579  0.0000  0.0000  0.0000
 2354OM     OM1 2354   6.927   3.623   0.729  0.0000  0.0000  0.0000
 2355OM     OM1 2355   7.110   3.769   0.631  0.0000  0.0000  0.0000
 2356OM     OM1 2356   6.880   3.746   0.498  0.0000  0.0000  0.0000
 2357OM     OM1 2357   7.054   3.545   0.516  0.0000  0.0000  0.0000
 2358OM     OM1 2358   9.593   3.278   9.281  0.0000  0.0000  0.0000
 2359OM     OM1 2359   0.136   3.486   9.185  0.0000  0.0000  0.0000
 2360OM     OM1 2360   9.521   3.410   9.070  0.0000  0.0000  0.0000
 2361OM     OM1 2361   9.505   3.530   9.295  0.0000  0.0000  0.0000
 2362OM     OM1 2362   0.548   5.386   0.937  0.0000  0.0000  0.0000
 2363OM     OM1 2363   0.774   5.251   0.959  0.0000  0.0000  0.0000
 2364OM     OM1 2364   0.722   5.418   0.752  0.0000  0.0000  0.0000
 2365OM     OM1 2365   0.776   5.504   0.994  0.0000  0.0000  0.0000
 2366OM     OM1 2366   0.240   5.557   0.585  0.0000  0.0000  0.0000
 2367OM     OM1 2367   0.097   5.560   0.814  0.0000  0.0000  0.0000
 2368OM     OM1 2368   0.255   5.755   0.750  0.0000  0.0000  0.0000
 2369OM     OM1 2369   0.352   5.520   0.819  0.0000  0.0000  0.0000
 2370OM     OM1 2370   1.233   0.834   9.543  0.0000  0.0000  0.0000
 2371OM     OM1 2371   1.371   1.054   9.462  0.0000  0.0000  0.0000
 2372OM     OM1 2372   1.113   1.049   9.445  0.0000  0.0000  0.0000
 2373OM     OM1 2373   1.238   1.044   0.076  0.0000  0.0000  0.0000
 2374OM     OM1 2374   4.219   0.485   0.415  0.0000  0.0000  0.0000
 2375OM     OM1 2375   4.358   0.440   0.201  0.0000  0.0000  0.0000
 2376OM     OM1 2376   4.121   0.324   0.218  0.0000  0.0000  0.0000
 2377OM     OM1 2377   4.138   0.585   0.200  0.0000  0.0000  0.0000
 2378OM     OM1 2378   4.382   5.794   0.019  0.0000  0.0000  0.0000
 2379OM     OM1 2379   4.292   5.945   9.416  0.0000  0.0000  0.0000
 2380OM     OM1 2380   4.417   6.049   0.005  0.0000  0.0000  0.0000
 2381OM     OM1 2381   4.547   5.888   9.446  0.0000  0.0000  0.0000
 2382OM     OM1 2382   0.564   8.232   1.055  0.0000  0.0000  0.0000
 2383OM     OM1 2383   0.303   8.234   1.051  0.0000  0.0000  0.0000
 2384OM     OM1 2384   0.437   8.066   0.904  0.0000  0.0000  0.0000
 2385OM     OM1 2385   0.440   8.316   0.840  0.0000  0.0000  0.0000
 2386OM     OM1 2386   1.226   5.976   8.923  0.0000  0.0000  0.0000
 2387OM     OM1 2387   1.061   6.165   9.018  0.0000  0.0000  0.0000
 2388OM     OM1 2388   1.133   6.157   8.765  0.0000  0.0000  0.0000
 2389OM     OM1 2389   0.975   5.972   8.863  0.0000  0.0000  0.0000
 2390OM     OM1 2390   0.802   0.780   0.212  0.0000  0.0000  0.0000
 2391OM     OM1 2391   0.842   0.976   0.055  0.0000  0.0000  0.0000
 2392OM     OM1 2392   0.802   0.726   9.564  0.0000  0.0000  0.0000
 2393OM     OM1 2393   1.026   0.793   0.085  0.0000  0.0000  0.0000
 2394OM     OM1 2394   4.574   5.875   0.162  0.0000  0.0000  0.0000
 2395OM     OM1 2395   4.529   5.615   0.145  0.0000  0.0000  0.0000
 2396OM     OM1 2396   4.375   5.777   0.285  0.0000  0.0000  0.0000
 2397OM     OM1 2397   4.554   5.358   0.217  0.0000  0.0000  0.0000
 2398OM     OM1 2398   1.096   8.792   0.503  0.0000  0.0000  0.0000
 2399OM     OM1 2399   0.932   8.937   0.379  0.0000  0.0000  0.0000
 2400OM     OM1 2400   1.168   9.035   0.414  0.0000  0.0000  0.0000
 2401OM     OM1 2401   1.072   8.564   0.389  0.0000  0.0000  0.0000
 2402OM     OM1 2402   4.055   7.675   9.359  0.0000  0.0000  0.0000
 2403OM     OM1 2403   4.009   7.649   0.017  0.0000  0.0000  0.0000
 2404OM     OM1 2404   3.974   7.874   9.499  0.0000  0.0000  0.0000
 2405OM     OM1 2405   3.812   7.675   9.444  0.0000  0.0000  0.0000
 2406OM     OM1 2406   2.978   1.274   0.813  0.0000  0.0000  0.0000
 2407OM     OM1 2407   3.053   1.518   0.784  0.0000  0.0000  0.0000
 2408OM     OM1 2408   2.811   1.461   0.825  0.0000  0.0000  0.0000
 2409OM     OM1 2409   2.996   1.417   1.025  0.0000  0.0000  0.0000
 2410OM     OM1 2410   4.996   7.306   9.065  0.0000  0.0000  0.0000
 2411OM     OM1 2411   4.967   7.332   9.326  0.0000  0.0000  0.0000
 2412OM     OM1 2412   5.184   7.224   9.218  0.0000  0.0000  0.0000
 2413OM     OM1 2413   6.529   3.014   0.108  0.0000  0.0000  0.0000
 2414OM     OM1 2414   6.766   3.093   0.147  0.0000  0.0000  0.0000
 2415OM     OM1 2415   6.711   2.825   0.146  0.0000  0.0000  0.0000
 2416OM     OM1 2416   6.705   2.964   9.531  0.0000  0.0000  0.0000
 2417OM     OM1 2417   3.093   6.976   0.938  0.0000  0.0000  0.0000
 2418OM     OM1 2418   3.009   6.816   1.136  0.0000  0.0000  0.0000
 2419OM     OM1 2419   3.187   7.003   1.180  0.0000  0.0000  0.0000
 2420OM     OM1 2420   2.941   7.063   1.147  0.0000  0.0000  0.0000
 2421OM     OM1 2421   4.346   3.997   1.112  0.0000  0.0000  0.0000
 2422OM     OM1 2422   4.100   4.019   1.042  0.0000  0.0000  0.0000
 2423OM     OM1 2423   4.268   3.914   0.870  0.0000  0.0000  0.0000
 2424OM     OM1 2424   4.290   4.169   0.927  0.0000  0.0000  0.0000
 2425OM     OM1 2425   0.594   0.439   9.003  0.0000  0.0000  0.0000
 2426OM     OM1 2426   0.851   0.428   8.959  0.0000  0.0000  0.0000
 2427OM     OM1 2427   0.684   0.257   8.855  0.0000  0.0000  0.0000
 2428OM     OM1 2428   0.686   0.500   8.762  0.0000  0.0000  0.0000
 2429OM     OM1 2429   8.244   3.766   8.271  0.0000  0.0000  0.0000
 2430OM     OM1 2430   8.428   3.583   8.280  0.0000  0.0000  0.0000
 2431OM     OM1 2431   8.808   7.014   8.240  0.0000  0.0000  0.0000
 2432OM     OM1 2432   9.140   7.353   8.301  0.0000  0.0000  0.0000
 2433OM     OM1 2433   9.044   7.131   8.221  0.0000  0.0000  0.0000
 2434OM     OM1 2434   2.564   5.895   0.051  0.0000  0.0000  0.0000
 2435OM     OM1 2435   2.501   6.101   0.216  0.0000  0.0000  0.0000
 2436OM     OM1 2436   2.599   6.145   9.588  0.0000  0.0000  0.0000
 2437OM     OM1 2437   2.364   6.050   9.597  0.0000  0.0000  0.0000
 2438OM     OM1 2438   4.093   3.115   9.496  0.0000  0.0000  0.0000
 2439OM     OM1 2439   4.118   3.025   0.137  0.0000  0.0000  0.0000
 2440OM     OM1 2440   3.891   2.990   0.028  0.0000  0.0000  0.0000
 2441OM     OM1 2441   4.117   2.864   9.557  0.0000  0.0000  0.0000
 2442OM     OM1 2442   2.329   2.731   1.116  0.0000  0.0000  0.0000
 2443OM     OM1 2443   2.178   2.925   1.212  0.0000  0.0000  0.0000
 2444OM     OM1 2444   2.158   2.827   0.957  0.0000  0.0000  0.0000
 2445OM     OM1 2445   2.067   2.699   1.161  0.0000  0.0000  0.0000
 2446OM     OM1 2446   2.586   5.462   0.888  0.0000  0.0000  0.0000
 2447OM     OM1 2447   2.624   5.667   0.723  0.0000  0.0000  0.0000
 2448OM     OM1 2448   2.422   5.511   0.690  0.0000  0.0000  0.0000
 2449OM     OM1 2449   2.429   5.673   0.894  0.0000  0.0000  0.0000
 2450OM     OM1 2450   1.720   3.170   1.119  0.0000  0.0000  0.0000
 2451OM     OM1 2451   1.506   3.280   1.225  0.0000  0.0000  0.0000
 2452OM     OM1 2452   1.726   3.429   1.187  0.0000  0.0000  0.0000
 2453OM     OM1 2453   8.218   0.197   1.064  0.0000  0.0000  0.0000
 2454OM     OM1 2454   8.312   0.401   0.916  0.0000  0.0000  0.0000
 2455OM     OM1 2455   8.454   0.309   1.112  0.0000  0.0000  0.0000
 2456OM     OM1 2456   0.630   0.892   8.289  0.0000  0.0000  0.0000
 2457OM     OM1 2457   0.672   0.636   8.277  0.0000  0.0000  0.0000
 2458OM     OM1 2458   4.035   4.514   8.915  0.0000  0.0000  0.0000
 2459OM     OM1 2459   4.170   4.728   9.000  0.0000  0.0000  0.0000
 2460OM     OM1 2460   4.239   4.598   8.783  0.0000  0.0000  0.0000
 2461OM     OM1 2461   4.274   4.487   9.016  0.0000  0.0000  0.0000
 2462OM     OM1 2462   3.850   3.655   1.300  0.0000  0.0000  0.0000
 2463OM     OM1 2463   3.662   3.479   1.307  0.0000  0.0000  0.0000
 2464OM     OM1 2464   0.175   6.868   0.726  0.0000  0.0000  0.0000
 2465OM     OM1 2465   0.158   6.683   0.913  0.0000  0.0000  0.0000
 2466OM     OM1 2466   0.012   6.661   0.708  0.0000  0.0000  0.0000
 2467OM     OM1 2467   9.576   6.865   0.880  0.0000  0.0000  0.0000
 2468OM     OM1 2468   6.723   5.784   8.704  0.0000  0.0000  0.0000
 2469OM     OM1 2469   6.731   5.858   8.466  0.0000  0.0000  0.0000
 2470OM     OM1 2470   6.777   5.600   8.538  0.0000  0.0000  0.0000
 2471OM     OM1 2471   6.540   5.693   8.518  0.0000  0.0000  0.0000
 2472OM     OM1 2472   4.437   2.349   8.766  0.0000  0.0000  0.0000
 2473OM     OM1 2473   4.253   2.458   8.611  0.0000  0.0000  0.0000
 2474OM     OM1 2474   4.393   2.600   8.793  0.0000  0.0000  0.0000
 2475OM     OM1 2475   4.494   2.513   8.568  0.0000  0.0000  0.0000
 2476OM     OM1 2476   9.458   0.529   0.355  0.0000  0.0000  0.0000
 2477OM     OM1 2477   9.224   0.481   0.444  0.0000  0.0000  0.0000
 2478OM     OM1 2478   9.252   0.594   0.205  0.0000  0.0000  0.0000
 2479OM     OM1 2479   9.339   0.574   0.653  0.0000  0.0000  0.0000
 2480OM     OM1 2480   7.333   1.062   9.173  0.0000  0.0000  0.0000
 2481OM     OM1 2481   7.279   1.317   9.256  0.0000  0.0000  0.0000
 2482OM     OM1 2482   7.413   1.168   9.399  0.0000  0.0000  0.0000
 2483OM     OM1 2483   5.175   2.770   1.149  0.0000  0.0000  0.0000
 2484OM     OM1 2484   5.061   3.000   1.155  0.0000  0.0000  0.0000
 2485OM     OM1 2485   4.922   2.789   1.085  0.0000  0.0000  0.0000
 2486OM     OM1 2486   0.062   8.752   9.338  0.0000  0.0000  0.0000
 2487OM     OM1 2487   0.172   8.958   9.222  0.0000  0.0000  0.0000
 2488OM     OM1 2488   0.014   8.818   9.080  0.0000  0.0000  0.0000
 2489OM     OM1 2489   9.506   8.948   9.267  0.0000  0.0000  0.0000
 2490OM     OM1 2490   3.297   3.396   0.853  0.0000  0.0000  0.0000
 2491OM     OM1 2491   3.469   2.961   0.635  0.0000  0.0000  0.0000
 2492OM     OM1 2492   3.401   3.199   0.708  0.0000  0.0000  0.0000
 2493OM     OM1 2493   0.910   5.799   8.408  0.0000  0.0000  0.0000
 2494OM     OM1 2494   1.037   5.831   8.188  0.0000  0.0000  0.0000
 2495OM     OM1 2495   1.014   6.036   8.352  0.0000  0.0000  0.0000
 2496OM     OM1 2496   6.341   2.765   8.611  0.0000  0.0000  0.0000
 2497OM     OM1 2497   6.483   2.966   8.530  0.0000  0.0000  0.0000
 2498OM     OM1 2498   6.247   2.905   8.403  0.0000  0.0000  0.0000
 2499OM     OM1 2499   6.471   2.766   8.385  0.0000  0.0000  0.0000
 2500OM     OM1 2500   6.031   8.430   1.377  0.0000  0.0000  0.0000
 2501OM     OM1 2501   5.825   8.489   1.232  0.0000  0.0000  0.0000
 2502OM     OM1 2502   5.755   0.570   9.596  0.0000  0.0000  0.0000
 2503OM     OM1 2503   5.879   0.621   0.212  0.0000  0.0000  0.0000
 2504OM     OM1 2504   5.959   0.420   0.051  0.0000  0.0000  0.0000
 2505OM     OM1 2505   6.602   8.572   1.054  0.0000  0.0000  0.0000
 2506OM     OM1 2506   6.369   8.671   1.151  0.0000  0.0000  0.0000
 2507OM     OM1 2507   6.666   8.324   1.042  0.0000  0.0000  0.0000
 2508OM     OM1 2508   6.298   6.596   9.223  0.0000  0.0000  0.0000
 2509OM     OM1 2509   6.303   6.331   9.173  0.0000  0.0000  0.0000
 2510OM     OM1 2510   6.338   6.436   9.417  0.0000  0.0000  0.0000
 2511OM     OM1 2511   6.105   6.445   9.298  0.0000  0.0000  0.0000
 2512OM     OM1 2512   9.417   8.282   0.799  0.0000  0.0000  0.0000
 2513OM     OM1 2513   9.332   8.511   0.881  0.0000  0.0000  0.0000
 2514OM     OM1 2514   9.358   8.487   0.625  0.0000  0.0000  0.0000
 2515OM     OM1 2515   9.574   8.488   0.766  0.0000  0.0000  0.0000
 2516OM     OM1 2516   1.377   1.825   8.584  0.0000  0.0000  0.0000
 2517OM     OM1 2517   1.211   1.828   8.377  0.0000  0.0000  0.0000
 2518OM     OM1 2518   1.442   1.932   8.354  0.0000  0.0000  0.0000
 2519OM     OM1 2519   1.261   2.053   8.498  0.0000  0.0000  0.0000
 2520OM     OM1 2520   8.623   3.189   8.938  0.0000  0.0000  0.0000
 2521OM     OM1 2521   8.497   3.212   9.167  0.0000  0.0000  0.0000
 2522OM     OM1 2522   8.632   3.414   9.069  0.0000  0.0000  0.0000
 2523OM     OM1 2523   8.757   3.221   9.168  0.0000  0.0000  0.0000
 2524OM     OM1 2524   8.944   1.449   0.669  0.0000  0.0000  0.0000
 2525OM     OM1 2525   8.955   1.366   0.403  0.0000  0.0000  0.0000
 2526OM     OM1 2526   9.055   1.233   0.615  0.0000  0.0000  0.0000
 2527OM     OM1 2527   9.164   1.453   0.530  0.0000  0.0000  0.0000
 2528OM     OM1 2528   0.501   8.409   0.364  0.0000  0.0000  0.0000
 2529OM     OM1 2529   0.308   8.576   0.350  0.0000  0.0000  0.0000
 2530OM     OM1 2530   0.397   8.468   0.135  0.0000  0.0000  0.0000
 2531OM     OM1 2531   0.247   8.331   0.301  0.0000  0.0000  0.0000
 2532OM     OM1 2532   3.426   8.477   0.324  0.0000  0.0000  0.0000
 2533OM     OM1 2533   3.191   8.429   0.436  0.0000  0.0000  0.0000
 2534OM     OM1 2534   3.247   8.660   0.318  0.0000  0.0000  0.0000
 2535OM     OM1 2535   3.220   8.439   0.175  0.0000  0.0000  0.0000
 2536OM     OM1 2536   6.909   5.965   8.762  0.0000  0.0000  0.0000
 2537OM     OM1 2537   6.973   5.720   8.751  0.0000  0.0000  0.0000
 2538OM     OM1 2538   6.821   5.796   8.946  0.0000  0.0000  0.0000
 2539OM     OM1 2539   2.869   8.563   1.048  0.0000  0.0000  0.0000
 2540OM     OM1 2540   2.812   8.607   1.289  0.0000  0.0000  0.0000
 2541OM     OM1 2541   3.058   8.670   1.200  0.0000  0.0000  0.0000
 2542OM     OM1 2542   7.217   0.889   0.693  0.0000  0.0000  0.0000
 2543OM     OM1 2543   7.013   0.864   0.845  0.0000  0.0000  0.0000
 2544OM     OM1 2544   7.259   0.779   0.926  0.0000  0.0000  0.0000
 2545OM     OM1 2545   6.571   2.568   9.036  0.0000  0.0000  0.0000
 2546OM     OM1 2546   6.724   2.389   9.132  0.0000  0.0000  0.0000
 2547OM     OM1 2547   6.558   2.329   8.941  0.0000  0.0000  0.0000
 2548OM     OM1 2548   6.459   2.359   9.171  0.0000  0.0000  0.0000
 2549OM     OM1 2549   2.028   3.307   0.459  0.0000  0.0000  0.0000
 2550OM     OM1 2550   1.856   3.417   0.601  0.0000  0.0000  0.0000
 2551OM     OM1 2551   2.113   3.465   0.647  0.0000  0.0000  0.0000
 2552OM     OM1 2552   1.995   3.242   0.724  0.0000  0.0000  0.0000
 2553OM     OM1 2553   2.282   7.096   0.874  0.0000  0.0000  0.0000
 2554OM     OM1 2554   2.480   7.188   1.043  0.0000  0.0000  0.0000
 2555OM     OM1 2555   2.237   7.253   1.077  0.0000  0.0000  0.0000
 2556OM     OM1 2556   2.362   7.344   0.871  0.0000  0.0000  0.0000
 2557OM     OM1 2557   2.101   6.077   8.281  0.0000  0.0000  0.0000
 2558OM     OM1 2558   2.285   5.766   8.470  0.0000  0.0000  0.0000
 2559OM     OM1 2559   2.503   5.840   8.343  0.0000  0.0000  0.0000
 2560OM     OM1 2560   2.263   5.874   8.236  0.0000  0.0000  0.0000
 2561OM     OM1 2561   1.182   1.231   8.976  0.0000  0.0000  0.0000
 2562OM     OM1 2562   1.320   1.077   9.130  0.0000  0.0000  0.0000
 2563OM     OM1 2563   1.120   1.207   9.237  0.0000  0.0000  0.0000
 2564OM     OM1 2564   8.540   0.642   9.302  0.0000  0.0000  0.0000
 2565OM     OM1 2565   8.675   0.506   9.488  0.0000  0.0000  0.0000
 2566OM     OM1 2566   8.417   0.492   9.486  0.0000  0.0000  0.0000
 2567OM     OM1 2567   3.425   8.993   1.000  0.0000  0.0000  0.0000
 2568OM     OM1 2568   3.482   8.953   1.252  0.0000  0.0000  0.0000
 2569OM     OM1 2569   3.564   9.172   1.128  0.0000  0.0000  0.0000
 2570OM     OM1 2570   3.669   8.939   1.072  0.0000  0.0000  0.0000
 2571OM     OM1 2571   1.106   9.266   0.321  0.0000  0.0000  0.0000
 2572OM     OM1 2572   1.224   9.087   0.168  0.0000  0.0000  0.0000
 2573OM     OM1 2573   1.174   8.871   0.019  0.0000  0.0000  0.0000
 2574OM     OM1 2574   4.540   4.800   0.030  0.0000  0.0000  0.0000
 2575OM     OM1 2575   4.746   4.674   0.120  0.0000  0.0000  0.0000
 2576OM     OM1 2576   4.680   4.652   9.468  0.0000  0.0000  0.0000
 2577OM     OM1 2577   4.541   4.538   0.049  0.0000  0.0000  0.0000
 2578OM     OM1 2578   8.155   4.542   9.445  0.0000  0.0000  0.0000
 2579OM     OM1 2579   8.411   4.494   9.488  0.0000  0.0000  0.0000
 2580OM     OM1 2580   8.288   4.645   0.052  0.0000  0.0000  0.0000
 2581OM     OM1 2581   9.289   2.309   8.471  0.0000  0.0000  0.0000
 2582OM     OM1 2582   9.551   2.338   8.428  0.0000  0.0000  0.0000
 2583OM     OM1 2583   7.972   3.179   0.954  0.0000  0.0000  0.0000
 2584OM     OM1 2584   7.808   3.562   1.239  0.0000  0.0000  0.0000
 2585OM     OM1 2585   7.901   3.414   1.051  0.0000  0.0000  0.0000
 2586OM     OM1 2586   7.985   3.668   1.070  0.0000  0.0000  0.0000
 2587OM     OM1 2587   1.725   2.693   8.275  0.0000  0.0000  0.0000
 2588OM     OM1 2588   1.914   2.632   8.448  0.0000  0.0000  0.0000
 2589OM     OM1 2589   4.825   4.073   1.203  0.0000  0.0000  0.0000
 2590OM     OM1 2590   4.632   4.239   1.122  0.0000  0.0000  0.0000
 2591OM     OM1 2591   4.570   4.027   1.251  0.0000  0.0000  0.0000
 2592OM     OM1 2592   1.761   0.405   8.787  0.0000  0.0000  0.0000
 2593OM     OM1 2593   1.773   0.143   8.734  0.0000  0.0000  0.0000
 2594OM     OM1 2594   1.546   0.245   8.791  0.0000  0.0000  0.0000
 2595OM     OM1 2595   4.899   9.048   8.566  0.0000  0.0000  0.0000
 2596OM     OM1 2596   5.026   9.222   8.716  0.0000  0.0000  0.0000
 2597OM     OM1 2597   5.020   8.973   8.783  0.0000  0.0000  0.0000
 2598OM     OM1 2598   5.233   4.749   0.126  0.0000  0.0000  0.0000
 2599OM     OM1 2599   5.058   4.933   0.078  0.0000  0.0000  0.0000
 2600OM     OM1 2600   4.982   4.726   0.209  0.0000  0.0000  0.0000
 2601OM     OM1 2601   5.034   4.699   9.560  0.0000  0.0000  0.0000
 2602OM     OM1 2602   5.269   5.771   8.363  0.0000  0.0000  0.0000
 2603OM     OM1 2603   5.072   5.615   8.426  0.0000  0.0000  0.0000
 2604OM     OM1 2604   7.073   1.566   8.322  0.0000  0.0000  0.0000
 2605OM     OM1 2605   6.852   1.655   8.210  0.0000  0.0000  0.0000
 2606OM     OM1 2606   3.088   7.838   0.878  0.0000  0.0000  0.0000
 2607OM     OM1 2607   3.002   7.601   0.889  0.0000  0.0000  0.0000
 2608OM     OM1 2608   3.302   7.820   0.744  0.0000  0.0000  0.0000
 2609OM     OM1 2609   3.109   7.966   0.637  0.0000  0.0000  0.0000
 2610OM     OM1 2610   7.397   5.794   0.467  0.0000  0.0000  0.0000
 2611OM     OM1 2611   7.202   5.669   0.380  0.0000  0.0000  0.0000
 2612OM     OM1 2612   7.406   5.686   0.219  0.0000  0.0000  0.0000
 2613OM     OM1 2613   0.156   1.217   9.467  0.0000  0.0000  0.0000
 2614OM     OM1 2614   0.394   1.107   9.440  0.0000  0.0000  0.0000
 2615OM     OM1 2615   0.186   0.976   9.558  0.0000  0.0000  0.0000
 2616OM     OM1 2616   9.366   9.217   0.866  0.0000  0.0000  0.0000
 2617OM     OM1 2617   9.285   9.414   1.007  0.0000  0.0000  0.0000
 2618OM     OM1 2618   9.536   9.404   0.905  0.0000  0.0000  0.0000
 2619OM     OM1 2619   8.544   7.391   0.911  0.0000  0.0000  0.0000
 2620OM     OM1 2620   8.459   7.444   1.154  0.0000  0.0000  0.0000
 2621OM     OM1 2621   8.470   7.628   0.973  0.0000  0.0000  0.0000
 2622OM     OM1 2622   8.694   7.538   1.075  0.0000  0.0000  0.0000
 2623OM     OM1 2623   6.161   6.643   8.328  0.0000  0.0000  0.0000
 2624OM     OM1 2624   6.030   6.464   8.204  0.0000  0.0000  0.0000
 2625OM     OM1 2625   0.393   9.274   0.308  0.0000  0.0000  0.0000
 2626OM     OM1 2626   0.765   9.022   0.210  0.0000  0.0000  0.0000
 2627OM     OM1 2627   0.612   9.221   0.173  0.0000  0.0000  0.0000
 2628OM     OM1 2628   0.806   9.171   0.000  0.0000  0.0000  0.0000
 2629OM     OM1 2629   6.118   2.656   8.579  0.0000  0.0000  0.0000
 2630OM     OM1 2630   6.295   2.515   8.710  0.0000  0.0000  0.0000
 2631OM     OM1 2631   6.183   2.710   8.822  0.0000  0.0000  0.0000
 2632OM     OM1 2632   4.802   1.424   0.911  0.0000  0.0000  0.0000
 2633OM     OM1 2633   4.871   1.251   1.103  0.0000  0.0000  0.0000
 2634OM     OM1 2634   4.627   1.327   1.085  0.0000  0.0000  0.0000
 2635OM     OM1 2635   4.731   1.181   0.889  0.0000  0.0000  0.0000
 2636OM     OM1 2636   7.068   1.206   0.600  0.0000  0.0000  0.0000
 2637OM     OM1 2637   6.813   1.249   0.544  0.0000  0.0000  0.0000
 2638OM     OM1 2638   6.884   1.077   0.735  0.0000  0.0000  0.0000
 2639OM     OM1 2639   6.914   1.342   0.761  0.0000  0.0000  0.0000
 2640OM     OM1 2640   3.310   0.469   0.878  0.0000  0.0000  0.0000
 2641OM     OM1 2641   3.062   0.560   0.950  0.0000  0.0000  0.0000
 2642OM     OM1 2642   3.166   0.633   0.732  0.0000  0.0000  0.0000
 2643OM     OM1 2643   3.271   0.714   0.961  0.0000  0.0000  0.0000
 2644OM     OM1 2644   0.108   5.133   0.062  0.0000  0.0000  0.0000
 2645OM     OM1 2645   0.056   5.375   0.002  0.0000  0.0000  0.0000
 2646OM     OM1 2646   0.286   5.261   9.529  0.0000  0.0000  0.0000
 2647OM     OM1 2647   3.981   5.084   8.736  0.0000  0.0000  0.0000
 2648OM     OM1 2648   3.895   5.305   8.636  0.0000  0.0000  0.0000
 2649OM     OM1 2649   3.868   5.480   8.824  0.0000  0.0000  0.0000
 2650OM     OM1 2650   4.151   5.263   8.646  0.0000  0.0000  0.0000
 2651OM     OM1 2651   5.665   3.317   8.131  0.0000  0.0000  0.0000
 2652OM     OM1 2652   5.438   3.197   8.173  0.0000  0.0000  0.0000
 2653OM     OM1 2653   5.651   3.147   8.321  0.0000  0.0000  0.0000
 2654OM     OM1 2654   4.350   7.839   0.291  0.0000  0.0000  0.0000
 2655OM     OM1 2655   4.504   7.644   0.215  0.0000  0.0000  0.0000
 2656OM     OM1 2656   4.248   7.672   0.127  0.0000  0.0000  0.0000
 2657OM     OM1 2657   4.447   7.831   0.050  0.0000  0.0000  0.0000
 2658OM     OM1 2658   4.971   8.322   0.180  0.0000  0.0000  0.0000
 2659OM     OM1 2659   5.014   8.555   0.044  0.0000  0.0000  0.0000
 2660OM     OM1 2660   7.011   9.153   0.256  0.0000  0.0000  0.0000
 2661OM     OM1 2661   6.986   8.988   0.061  0.0000  0.0000  0.0000
 2662OM     OM1 2662   7.081   9.226   0.008  0.0000  0.0000  0.0000
 2663OM     OM1 2663   6.831   9.186   0.057  0.0000  0.0000  0.0000
 2664OM     OM1 2664   7.169   8.333   9.194  0.0000  0.0000  0.0000
 2665OM     OM1 2665   7.186   8.486   9.402  0.0000  0.0000  0.0000
 2666OM     OM1 2666   0.244   4.590   8.496  0.0000  0.0000  0.0000
 2667OM     OM1 2667   0.171   4.339   8.456  0.0000  0.0000  0.0000
 2668OM     OM1 2668   6.385   6.741   9.029  0.0000  0.0000  0.0000
 2669OM     OM1 2669   6.645   6.746   9.083  0.0000  0.0000  0.0000
 2670OM     OM1 2670   6.529   6.527   9.032  0.0000  0.0000  0.0000
 2671OM     OM1 2671   6.589   6.703   8.842  0.0000  0.0000  0.0000
 2672OM     OM1 2672   0.372   1.432   0.578  0.0000  0.0000  0.0000
 2673OM     OM1 2673   0.595   1.528   0.688  0.0000  0.0000  0.0000
 2674OM     OM1 2674   0.596   1.297   0.573  0.0000  0.0000  0.0000
 2675OM     OM1 2675   0.561   1.524   0.430  0.0000  0.0000  0.0000
 2676OM     OM1 2676   2.694   3.351   9.088  0.0000  0.0000  0.0000
 2677OM     OM1 2677   2.443   3.361   9.167  0.0000  0.0000  0.0000
 2678OM     OM1 2678   2.561   3.127   9.123  0.0000  0.0000  0.0000
 2679OM     OM1 2679   2.633   3.263   9.329  0.0000  0.0000  0.0000
 2680OM     OM1 2680   7.910   0.971   9.310  0.0000  0.0000  0.0000
 2681OM     OM1 2681   7.939   0.759   9.452  0.0000  0.0000  0.0000
 2682OM     OM1 2682   7.896   0.735   9.192  0.0000  0.0000  0.0000
 2683OM     OM1 2683   7.784   0.496   9.147  0.0000  0.0000  0.0000
 2684OM     OM1 2684   5.127   5.663   1.155  0.0000  0.0000  0.0000
 2685OM     OM1 2685   4.907   5.592   1.011  0.0000  0.0000  0.0000
 2686OM     OM1 2686   5.033   5.837   1.008  0.0000  0.0000  0.0000
 2687OM     OM1 2687   5.129   5.625   0.892  0.0000  0.0000  0.0000
 2688OM     OM1 2688   5.881   3.420   8.577  0.0000  0.0000  0.0000
 2689OM     OM1 2689   5.630   3.453   8.588  0.0000  0.0000  0.0000
 2690OM     OM1 2690   5.762   3.412   8.350  0.0000  0.0000  0.0000
 2691OM     OM1 2691   5.771   3.634   8.462  0.0000  0.0000  0.0000
 2692OM     OM1 2692   4.449   5.179   0.686  0.0000  0.0000  0.0000
 2693OM     OM1 2693   4.530   4.942   0.748  0.0000  0.0000  0.0000
 2694OM     OM1 2694   4.316   5.041   0.864  0.0000  0.0000  0.0000
 2695OM     OM1 2695   4.305   4.965   0.619  0.0000  0.0000  0.0000
 2696OM     OM1 2696   0.826   2.632   1.024  0.0000  0.0000  0.0000
 2697OM     OM1 2697   0.576   2.689   1.116  0.0000  0.0000  0.0000
 2698OM     OM1 2698   0.685   2.463   1.145  0.0000  0.0000  0.0000
 2699OM     OM1 2699   8.120   2.984   1.054  0.0000  0.0000  0.0000
 2700OM     OM1 2700   8.174   3.236   1.097  0.0000  0.0000  0.0000
 2701OM     OM1 2701   8.205   3.139   0.853  0.0000  0.0000  0.0000
 2702OM     OM1 2702   0.260   5.789   0.121  0.0000  0.0000  0.0000
 2703OM     OM1 2703   0.415   5.590   0.131  0.0000  0.0000  0.0000
 2704OM     OM1 2704   0.245   5.628   0.329  0.0000  0.0000  0.0000
 2705OM     OM1 2705   0.452   5.773   0.315  0.0000  0.0000  0.0000
 2706OM     OM1 2706   0.596   0.711   8.635  0.0000  0.0000  0.0000
 2707OM     OM1 2707   0.447   0.493   8.668  0.0000  0.0000  0.0000
 2708OM     OM1 2708   0.642   0.504   8.495  0.0000  0.0000  0.0000
 2709OM     OM1 2709   7.998   8.468   9.592  0.0000  0.0000  0.0000
 2710OM     OM1 2710   8.087   8.525   9.336  0.0000  0.0000  0.0000
 2711OM     OM1 2711   7.866   8.607   9.411  0.0000  0.0000  0.0000
 2712OM     OM1 2712   7.896   8.348   9.397  0.0000  0.0000  0.0000
 2713OM     OM1 2713   8.549   4.156   8.648  0.0000  0.0000  0.0000
 2714OM     OM1 2714   8.477   3.906   8.572  0.0000  0.0000  0.0000
 2715OM     OM1 2715   8.691   4.025   8.486  0.0000  0.0000  0.0000
 2716OM     OM1 2716   8.440   4.119   8.422  0.0000  0.0000  0.0000
 2717OM     OM1 2717   6.826   5.138   9.327  0.0000  0.0000  0.0000
 2718OM     OM1 2718   6.613   5.300   9.294  0.0000  0.0000  0.0000
 2719OM     OM1 2719   6.849   5.362   9.206  0.0000  0.0000  0.0000
 2720OM     OM1 2720   6.796   5.347   9.471  0.0000  0.0000  0.0000
 2721OM     OM1 2721   8.767   2.100   8.988  0.0000  0.0000  0.0000
 2722OM     OM1 2722   8.534   2.223   9.002  0.0000  0.0000  0.0000
 2723OM     OM1 2723   8.537   1.963   8.977  0.0000  0.0000  0.0000
 2724OM     OM1 2724   8.621   2.117   8.776  0.0000  0.0000  0.0000
 2725OM     OM1 2725   9.104   5.444   0.133  0.0000  0.0000  0.0000
 2726OM     OM1 2726   9.281   5.404   0.318  0.0000  0.0000  0.0000
 2727OM     OM1 2727   9.062   5.253   0.304  0.0000  0.0000  0.0000
 2728OM     OM1 2728   9.262   5.236   0.130  0.0000  0.0000  0.0000
 2729OM     OM1 2729   7.476   3.361   8.366  0.0000  0.0000  0.0000
 2730OM     OM1 2730   7.415   3.506   8.167  0.0000  0.0000  0.0000
 2731OM     OM1 2731   7.660   3.504   8.246  0.0000  0.0000  0.0000
 2732OM     OM1 2732   9.252   1.592   1.179  0.0000  0.0000  0.0000
 2733OM     OM1 2733   9.516   1.578   1.144  0.0000  0.0000  0.0000
 2734OM     OM1 2734   9.350   1.484   0.962  0.0000  0.0000  0.0000
 2735OM     OM1 2735   2.643   7.723   0.690  0.0000  0.0000  0.0000
 2736OM     OM1 2736   2.776   7.815   0.472  0.0000  0.0000  0.0000
 2737OM     OM1 2737   2.712   7.566   0.505  0.0000  0.0000  0.0000
 2738OM     OM1 2738   3.270   0.016   8.692  0.0000  0.0000  0.0000
 2739OM     OM1 2739   3.166   0.241   8.768  0.0000  0.0000  0.0000
 2740OM     OM1 2740   3.024   0.036   8.792  0.0000  0.0000  0.0000
 2741OM     OM1 2741   3.078   0.116   8.548  0.0000  0.0000  0.0000
 2742OM     OM1 2742   0.999   1.658   8.810  0.0000  0.0000  0.0000
 2743OM     OM1 2743   1.163   1.723   8.987  0.0000  0.0000  0.0000
 2744OM     OM1 2744   1.258   1.659   8.745  0.0000  0.0000  0.0000
 2745OM     OM1 2745   1.162   1.472   8.887  0.0000  0.0000  0.0000
 2746OM     OM1 2746   6.893   5.100   1.085  0.0000  0.0000  0.0000
 2747OM     OM1 2747   7.152   5.122   1.070  0.0000  0.0000  0.0000
 2748OM     OM1 2748   7.017   5.340   1.106  0.0000  0.0000  0.0000
 2749OM     OM1 2749   6.388   0.935   9.488  0.0000  0.0000  0.0000
 2750OM     OM1 2750   6.134   0.994   9.422  0.0000  0.0000  0.0000
 2751OM     OM1 2751   6.293   0.884   9.256  0.0000  0.0000  0.0000
 2752OM     OM1 2752   6.218   0.740   9.454  0.0000  0.0000  0.0000
 2753OM     OM1 2753   8.319   7.036   8.667  0.0000  0.0000  0.0000
 2754OM     OM1 2754   8.117   6.819   8.519  0.0000  0.0000  0.0000
 2755OM     OM1 2755   8.369   6.813   8.794  0.0000  0.0000  0.0000
 2756OM     OM1 2756   8.369   6.816   8.540  0.0000  0.0000  0.0000
 2757OM     OM1 2757   9.226   7.916   9.506  0.0000  0.0000  0.0000
 2758OM     OM1 2758   9.176   7.730   0.073  0.0000  0.0000  0.0000
 2759OM     OM1 2759   9.416   7.824   0.085  0.0000  0.0000  0.0000
 2760OM     OM1 2760   9.221   7.975   0.152  0.0000  0.0000  0.0000
 2761OM     OM1 2761   4.083   1.051   0.572  0.0000  0.0000  0.0000
 2762OM     OM1 2762   3.948   1.265   0.524  0.0000  0.0000  0.0000
 2763OM     OM1 2763   4.218   1.276   0.568  0.0000  0.0000  0.0000
 2764OM     OM1 2764   4.476   5.035   8.886  0.0000  0.0000  0.0000
 2765OM     OM1 2765   4.734   5.053   8.819  0.0000  0.0000  0.0000
 2766OM     OM1 2766   4.611   4.828   8.785  0.0000  0.0000  0.0000
 2767OM     OM1 2767   4.655   4.917   9.025  0.0000  0.0000  0.0000
 2768OM     OM1 2768   0.741   2.173   0.854  0.0000  0.0000  0.0000
 2769OM     OM1 2769   0.873   1.991   1.013  0.0000  0.0000  0.0000
 2770OM     OM1 2770   0.616   2.004   0.997  0.0000  0.0000  0.0000
 2771OM     OM1 2771   0.556   3.723   0.905  0.0000  0.0000  0.0000
 2772OM     OM1 2772   0.537   3.329   0.938  0.0000  0.0000  0.0000
 2773OM     OM1 2773   0.376   3.523   0.953  0.0000  0.0000  0.0000
 2774OM     OM1 2774   0.485   3.549   0.722  0.0000  0.0000  0.0000
 2775OM     OM1 2775   3.895   3.259   8.402  0.0000  0.0000  0.0000
 2776OM     OM1 2776   4.119   3.133   8.400  0.0000  0.0000  0.0000
 2777OM     OM1 2777   1.801   6.107   9.246  0.0000  0.0000  0.0000
 2778OM     OM1 2778   1.688   6.046   9.018  0.0000  0.0000  0.0000
 2779OM     OM1 2779   1.756   5.852   9.188  0.0000  0.0000  0.0000
 2780OM     OM1 2780   9.510   3.602   1.091  0.0000  0.0000  0.0000
 2781OM     OM1 2781   0.051   3.662   0.881  0.0000  0.0000  0.0000
 2782OM     OM1 2782   9.461   3.492   0.856  0.0000  0.0000  0.0000
 2783OM     OM1 2783   9.405   3.742   0.883  0.0000  0.0000  0.0000
 2784OM     OM1 2784   9.039   4.329   0.529  0.0000  0.0000  0.0000
 2785OM     OM1 2785   8.822   4.411   0.666  0.0000  0.0000  0.0000
 2786OM     OM1 2786   8.851   4.166   0.569  0.0000  0.0000  0.0000
 2787OM     OM1 2787   8.820   4.374   0.407  0.0000  0.0000  0.0000
 2788OM     OM1 2788   6.954   6.876   0.731  0.0000  0.0000  0.0000
 2789OM     OM1 2789   6.936   6.887   0.474  0.0000  0.0000  0.0000
 2790OM     OM1 2790   6.945   6.660   0.598  0.0000  0.0000  0.0000
 2791OM     OM1 2791   1.628   4.024   0.404  0.0000  0.0000  0.0000
 2792OM     OM1 2792   1.452   3.897   0.255  0.0000  0.0000  0.0000
 2793OM     OM1 2793   1.464   4.084   0.594  0.0000  0.0000  0.0000
 2794OM     OM1 2794   3.576   2.191   9.530  0.0000  0.0000  0.0000
 2795OM     OM1 2795   3.615   2.347   0.129  0.0000  0.0000  0.0000
 2796OM     OM1 2796   3.486   2.135   0.167  0.0000  0.0000  0.0000
 2797OM     OM1 2797   3.520   2.579   0.095  0.0000  0.0000  0.0000
 2798OM     OM1 2798   6.872   6.625   0.274  0.0000  0.0000  0.0000
 2799OM     OM1 2799   7.046   6.509   0.413  0.0000  0.0000  0.0000
 2800OM     OM1 2800   2.770   7.336   8.821  0.0000  0.0000  0.0000
 2801OM     OM1 2801   2.569   7.234   8.949  0.0000  0.0000  0.0000
 2802OM     OM1 2802   2.549   7.418   8.725  0.0000  0.0000  0.0000
 2803OM     OM1 2803   0.123   9.412   0.565  0.0000  0.0000  0.0000
 2804OM     OM1 2804   0.373   9.415   0.655  0.0000  0.0000  0.0000
 2805OM     OM1 2805   0.182   9.457   0.815  0.0000  0.0000  0.0000
 2806OM     OM1 2806   3.676   4.936   0.200  0.0000  0.0000  0.0000
 2807OM     OM1 2807   3.526   5.148   0.207  0.0000  0.0000  0.0000
 2808OM     OM1 2808   3.692   5.132   0.023  0.0000  0.0000  0.0000
 2809OM     OM1 2809   3.494   4.958   0.014  0.0000  0.0000  0.0000
 2810OM     OM1 2810   5.179   3.371   8.782  0.0000  0.0000  0.0000
 2811OM     OM1 2811   5.135   3.627   8.797  0.0000  0.0000  0.0000
 2812OM     OM1 2812   4.935   3.462   8.777  0.0000  0.0000  0.0000
 2813OM     OM1 2813   5.068   3.484   9.003  0.0000  0.0000  0.0000
 2814OM     OM1 2814   8.307   7.714   8.738  0.0000  0.0000  0.0000
 2815OM     OM1 2815   8.372   7.666   9.038  0.0000  0.0000  0.0000
 2816OM     OM1 2816   8.467   7.558   8.606  0.0000  0.0000  0.0000
 2817OM     OM1 2817   8.628   7.682   9.036  0.0000  0.0000  0.0000
 2818OM     OM1 2818   7.649   5.705   9.353  0.0000  0.0000  0.0000
 2819OM     OM1 2819   7.768   5.545   9.529  0.0000  0.0000  0.0000
 2820OM     OM1 2820   7.895   5.728   9.396  0.0000  0.0000  0.0000
 2821OM     OM1 2821   7.808   5.511   9.272  0.0000  0.0000  0.0000
 2822OM     OM1 2822   5.842   2.172   8.559  0.0000  0.0000  0.0000
 2823OM     OM1 2823   6.003   1.988   8.673  0.0000  0.0000  0.0000
 2824OM     OM1 2824   5.835   2.135   8.809  0.0000  0.0000  0.0000
 2825OM     OM1 2825   2.693   1.559   0.324  0.0000  0.0000  0.0000
 2826OM     OM1 2826   2.527   1.753   0.266  0.0000  0.0000  0.0000
 2827OM     OM1 2827   2.468   1.507   0.197  0.0000  0.0000  0.0000
 2828OM     OM1 2828   2.656   1.642   0.073  0.0000  0.0000  0.0000
 2829OM     OM1 2829   5.955   9.271   0.311  0.0000  0.0000  0.0000
 2830OM     OM1 2830   5.901   9.510   0.241  0.0000  0.0000  0.0000
 2831OM     OM1 2831   5.711   9.327   0.226  0.0000  0.0000  0.0000
 2832OM     OM1 2832   9.100   8.616   0.956  0.0000  0.0000  0.0000
 2833OM     OM1 2833   8.999   8.834   0.836  0.0000  0.0000  0.0000
 2834OM     OM1 2834   4.538   0.145   9.426  0.0000  0.0000  0.0000
 2835OM     OM1 2835   4.770   0.016   9.499  0.0000  0.0000  0.0000
 2836OM     OM1 2836   4.733   0.278   9.520  0.0000  0.0000  0.0000
 2837OM     OM1 2837   6.544   6.261   1.167  0.0000  0.0000  0.0000
 2838OM     OM1 2838   6.650   6.445   1.018  0.0000  0.0000  0.0000
 2839OM     OM1 2839   6.746   6.377   1.254  0.0000  0.0000  0.0000
 2840OM     OM1 2840   8.261   0.523   0.496  0.0000  0.0000  0.0000
 2841OM     OM1 2841   8.526   0.502   0.470  0.0000  0.0000  0.0000
 2842OM     OM1 2842   8.423   0.723   0.555  0.0000  0.0000  0.0000
 2843OM     OM1 2843   8.418   0.511   0.705  0.0000  0.0000  0.0000
 2844OM     OM1 2844   4.572   7.443   0.371  0.0000  0.0000  0.0000
 2845OM     OM1 2845   4.493   7.190   0.338  0.0000  0.0000  0.0000
 2846OM     OM1 2846   4.333   7.357   0.463  0.0000  0.0000  0.0000
 2847OM     OM1 2847   4.381   7.391   0.218  0.0000  0.0000  0.0000
 2848OM     OM1 2848   1.526   4.062   9.559  0.0000  0.0000  0.0000
 2849OM     OM1 2849   1.587   4.251   9.398  0.0000  0.0000  0.0000
 2850OM     OM1 2850   1.773   4.109   9.508  0.0000  0.0000  0.0000
 2851OM     OM1 2851   1.441   2.650   8.794  0.0000  0.0000  0.0000
 2852OM     OM1 2852   1.525   2.719   8.565  0.0000  0.0000  0.0000
 2853OM     OM1 2853   1.655   2.533   8.700  0.0000  0.0000  0.0000
 2854OM     OM1 2854   0.295   1.980   0.713  0.0000  0.0000  0.0000
 2855OM     OM1 2855   0.143   2.128   0.553  0.0000  0.0000  0.0000
 2856OM     OM1 2856   0.219   1.891   0.492  0.0000  0.0000  0.0000
 2857OM     OM1 2857   8.259   2.152   1.070  0.0000  0.0000  0.0000
 2858OM     OM1 2858   6.469   2.866   0.628  0.0000  0.0000  0.0000
 2859OM     OM1 2859   6.243   2.731   0.665  0.0000  0.0000  0.0000
 2860OM     OM1 2860   6.387   2.797   0.869  0.0000  0.0000  0.0000
 2861OM     OM1 2861   6.483   2.730   0.420  0.0000  0.0000  0.0000
 2862OM     OM1 2862   9.255   6.828   8.822  0.0000  0.0000  0.0000
 2863OM     OM1 2863   9.240   6.633   8.668  0.0000  0.0000  0.0000
 2864OM     OM1 2864   1.614   3.420   0.690  0.0000  0.0000  0.0000
 2865OM     OM1 2865   1.637   3.362   0.447  0.0000  0.0000  0.0000
 2866OM     OM1 2866   1.650   3.147   0.299  0.0000  0.0000  0.0000
 2867OM     OM1 2867   4.598   2.154   8.844  0.0000  0.0000  0.0000
 2868OM     OM1 2868   4.835   2.220   8.749  0.0000  0.0000  0.0000
 2869OM     OM1 2869   4.733   1.998   8.688  0.0000  0.0000  0.0000
 2870OM     OM1 2870   4.813   2.041   8.945  0.0000  0.0000  0.0000
 2871OM     OM1 2871   7.311   4.800   0.295  0.0000  0.0000  0.0000
 2872OM     OM1 2872   7.424   4.668   0.482  0.0000  0.0000  0.0000
 2873OM     OM1 2873   7.351   4.538   0.263  0.0000  0.0000  0.0000
 2874OM     OM1 2874   1.983   4.139   1.020  0.0000  0.0000  0.0000
 2875OM     OM1 2875   1.726   4.197   1.016  0.0000  0.0000  0.0000
 2876OM     OM1 2876   1.800   3.948   1.073  0.0000  0.0000  0.0000
 2877OM     OM1 2877   1.703   0.809   0.317  0.0000  0.0000  0.0000
 2878OM     OM1 2878   1.645   0.918   0.082  0.0000  0.0000  0.0000
 2879OM     OM1 2879   1.793   0.706   0.097  0.0000  0.0000  0.0000
 2880OM     OM1 2880   1.789   0.324   0.635  0.0000  0.0000  0.0000
 2881OM     OM1 2881   1.983   0.408   0.492  0.0000  0.0000  0.0000
 2882OM     OM1 2882   1.867   0.191   0.409  0.0000  0.0000  0.0000
 2883OM     OM1 2883   2.011   0.198   0.635  0.0000  0.0000  0.0000
 2884OM     OM1 2884   2.652   5.651   8.263  0.0000  0.0000  0.0000
 2885OM     OM1 2885   2.738   5.802   8.452  0.0000  0.0000  0.0000
 2886OM     OM1 2886   1.225   7.603   8.968  0.0000  0.0000  0.0000
 2887OM     OM1 2887   1.270   7.789   9.148  0.0000  0.0000  0.0000
 2888OM     OM1 2888   1.379   7.812   8.923  0.0000  0.0000  0.0000
 2889OM     OM1 2889   9.048   1.571   8.361  0.0000  0.0000  0.0000
 2890OM     OM1 2890   9.291   1.629   8.420  0.0000  0.0000  0.0000
 2891OM     OM1 2891   9.095   1.788   8.501  0.0000  0.0000  0.0000
 2892OM     OM1 2892   3.707   7.253   0.965  0.0000  0.0000  0.0000
 2893OM     OM1 2893   3.718   7.078   1.149  0.0000  0.0000  0.0000
 2894OM     OM1 2894   3.697   6.773   0.961  0.0000  0.0000  0.0000
 2895OM     OM1 2895   3.765   7.009   0.897  0.0000  0.0000  0.0000
 2896OM     OM1 2896   6.590   4.970   8.631  0.0000  0.0000  0.0000
 2897OM     OM1 2897   6.646   4.722   8.736  0.0000  0.0000  0.0000
 2898OM     OM1 2898   6.493   4.746   8.534  0.0000  0.0000  0.0000
 2899OM     OM1 2899   6.748   4.794   8.513  0.0000  0.0000  0.0000
 2900OM     OM1 2900   7.717   0.955   0.091  0.0000  0.0000  0.0000
 2901OM     OM1 2901   7.769   0.713   0.059  0.0000  0.0000  0.0000
 2902OM     OM1 2902   7.767   0.806   0.304  0.0000  0.0000  0.0000
 2903OM     OM1 2903   9.225   4.100   0.113  0.0000  0.0000  0.0000
 2904OM     OM1 2904   8.968   4.059   0.118  0.0000  0.0000  0.0000
 2905OM     OM1 2905   9.079   4.231   0.288  0.0000  0.0000  0.0000
 2906OM     OM1 2906   0.548   7.440   8.561  0.0000  0.0000  0.0000
 2907OM     OM1 2907   0.819   7.502   8.877  0.0000  0.0000  0.0000
 2908OM     OM1 2908   0.573   7.544   8.803  0.0000  0.0000  0.0000
 2909OM     OM1 2909   4.297   8.783   9.402  0.0000  0.0000  0.0000
 2910OM     OM1 2910   4.160   8.581   9.482  0.0000  0.0000  0.0000
 2911OM     OM1 2911   4.041   8.804   9.451  0.0000  0.0000  0.0000
 2912OM     OM1 2912   0.404   2.081   1.130  0.0000  0.0000  0.0000
 2913OM     OM1 2913   0.632   2.197   1.172  0.0000  0.0000  0.0000
 2914OM     OM1 2914   0.589   1.945   1.252  0.0000  0.0000  0.0000
 2915OM     OM1 2915   6.633   8.414   9.541  0.0000  0.0000  0.0000
 2916OM     OM1 2916   6.757   8.286   0.126  0.0000  0.0000  0.0000
 2917OM     OM1 2917   6.651   8.153   9.531  0.0000  0.0000  0.0000
 2918OM     OM1 2918   4.371   0.115   9.224  0.0000  0.0000  0.0000
 2919OM     OM1 2919   4.390   9.548   9.415  0.0000  0.0000  0.0000
 2920OM     OM1 2920   4.274   0.184   9.453  0.0000  0.0000  0.0000
 2921OM     OM1 2921   6.233   8.581   1.356  0.0000  0.0000  0.0000
 2922OM     OM1 2922   6.137   8.769   1.205  0.0000  0.0000  0.0000
 2923OM     OM1 2923   4.931   8.349   8.864  0.0000  0.0000  0.0000
 2924OM     OM1 2924   4.984   8.095   8.824  0.0000  0.0000  0.0000
 2925OM     OM1 2925   4.741   8.179   8.867  0.0000  0.0000  0.0000
 2926OM     OM1 2926   4.919   8.168   9.060  0.0000  0.0000  0.0000
 2927OM     OM1 2927   1.763   6.175   8.642  0.0000  0.0000  0.0000
 2928OM     OM1 2928   1.942   6.066   8.493  0.0000  0.0000  0.0000
 2929OM     OM1 2929   1.774   5.914   8.628  0.0000  0.0000  0.0000
 2930OM     OM1 2930   1.973   6.037   8.744  0.0000  0.0000  0.0000
 2931OM     OM1 2931   3.113   0.210   9.256  0.0000  0.0000  0.0000
 2932OM     OM1 2932   3.099   9.582   9.138  0.0000  0.0000  0.0000
 2933OM     OM1 2933   3.213   0.180   9.021  0.0000  0.0000  0.0000
 2934OM     OM1 2934   4.562   8.577   9.532  0.0000  0.0000  0.0000
 2935OM     OM1 2935   4.802   8.670   9.545  0.0000  0.0000  0.0000
 2936OM     OM1 2936   4.601   8.840   9.538  0.0000  0.0000  0.0000
 2937OM     OM1 2937   8.617   7.440   0.132  0.0000  0.0000  0.0000
 2938OM     OM1 2938   8.382   7.385   0.216  0.0000  0.0000  0.0000
 2939OM     OM1 2939   8.557   7.526   0.367  0.0000  0.0000  0.0000
 2940OM     OM1 2940   4.861   6.834   0.817  0.0000  0.0000  0.0000
 2941OM     OM1 2941   4.650   6.876   0.695  0.0000  0.0000  0.0000
 2942OM     OM1 2942   4.707   6.627   0.774  0.0000  0.0000  0.0000
 2943OM     OM1 2943   4.842   7.023   0.576  0.0000  0.0000  0.0000
 2944OM     OM1 2944   8.721   3.208   8.463  0.0000  0.0000  0.0000
 2945OM     OM1 2945   8.468   3.189   8.403  0.0000  0.0000  0.0000
 2946OM     OM1 2946   8.579   3.424   8.415  0.0000  0.0000  0.0000
 2947OM     OM1 2947   7.648   6.963   0.513  0.0000  0.0000  0.0000
 2948OM     OM1 2948   7.851   6.865   0.392  0.0000  0.0000  0.0000
 2949OM     OM1 2949   7.709   6.712   0.563  0.0000  0.0000  0.0000
 2950OM     OM1 2950   7.859   6.890   0.657  0.0000  0.0000  0.0000
 2951OM     OM1 2951   3.448   5.127   8.760  0.0000  0.0000  0.0000
 2952OM     OM1 2952   3.594   5.140   8.526  0.0000  0.0000  0.0000
 2953OM     OM1 2953   3.346   5.074   8.533  0.0000  0.0000  0.0000
 2954OM     OM1 2954   3.511   4.911   8.651  0.0000  0.0000  0.0000
 2955OM     OM1 2955   1.748   1.769   0.029  0.0000  0.0000  0.0000
 2956OM     OM1 2956   1.688   1.775   0.298  0.0000  0.0000  0.0000
 2957OM     OM1 2957   1.854   1.605   0.206  0.0000  0.0000  0.0000
 2958OM     OM1 2958   2.863   5.959   9.231  0.0000  0.0000  0.0000
 2959OM     OM1 2959   2.654   5.917   9.080  0.0000  0.0000  0.0000
 2960OM     OM1 2960   2.750   5.726   9.226  0.0000  0.0000  0.0000
 2961OM     OM1 2961   2.888   5.791   9.022  0.0000  0.0000  0.0000
 2962OM     OM1 2962   2.225   8.915   0.975  0.0000  0.0000  0.0000
 2963OM     OM1 2963   2.186   9.009   1.234  0.0000  0.0000  0.0000
 2964OM     OM1 2964   2.415   9.023   1.103  0.0000  0.0000  0.0000
 2965OM     OM1 2965   2.323   8.796   1.179  0.0000  0.0000  0.0000
 2966OM     OM1 2966   7.827   6.569   9.015  0.0000  0.0000  0.0000
 2967OM     OM1 2967   7.637   6.768   8.999  0.0000  0.0000  0.0000
 2968OM     OM1 2968   7.670   6.607   9.206  0.0000  0.0000  0.0000
 2969OM     OM1 2969   7.567   6.519   8.986  0.0000  0.0000  0.0000
 2970OM     OM1 2970   5.045   9.478   0.884  0.0000  0.0000  0.0000
 2971OM     OM1 2971   5.173   9.241   0.844  0.0000  0.0000  0.0000
 2972OM     OM1 2972   5.178   8.978   0.848  0.0000  0.0000  0.0000
 2973OM     OM1 2973   5.301   9.460   0.903  0.0000  0.0000  0.0000
 2974OM     OM1 2974   7.299   3.282   0.169  0.0000  0.0000  0.0000
 2975OM     OM1 2975   7.297   3.533   0.251  0.0000  0.0000  0.0000
 2976OM     OM1 2976   7.122   3.360   0.345  0.0000  0.0000  0.0000
 2977OM     OM1 2977   7.108   3.447   0.101  0.0000  0.0000  0.0000
 2978OM     OM1 2978   2.500   8.963   0.009  0.0000  0.0000  0.0000
 2979OM     OM1 2979   2.350   9.125   0.161  0.0000  0.0000  0.0000
 2980OM     OM1 2980   2.246   8.945   0.008  0.0000  0.0000  0.0000
 2981OM     OM1 2981   2.388   8.878   0.232  0.0000  0.0000  0.0000
 2982OM     OM1 2982   6.745   4.843   0.131  0.0000  0.0000  0.0000
 2983OM     OM1 2983   6.713   4.589   0.058  0.0000  0.0000  0.0000
 2984OM     OM1 2984   6.556   4.787   9.576  0.0000  0.0000  0.0000
 2985OM     OM1 2985   6.811   4.767   9.502  0.0000  0.0000  0.0000
 2986OM     OM1 2986   3.918   3.702   8.292  0.0000  0.0000  0.0000
 2987OM     OM1 2987   4.024   3.569   8.490  0.0000  0.0000  0.0000
 2988OM     OM1 2988   4.149   3.764   8.374  0.0000  0.0000  0.0000
 2989OM     OM1 2989   7.120   1.402   8.515  0.0000  0.0000  0.0000
 2990OM     OM1 2990   7.274   1.415   8.301  0.0000  0.0000  0.0000
 2991OM     OM1 2991   7.089   1.785   8.206  0.0000  0.0000  0.0000
 2992OM     OM1 2992   2.389   2.306   8.825  0.0000  0.0000  0.0000
 2993OM     OM1 2993   2.494   2.352   8.592  0.0000  0.0000  0.0000
 2994OM     OM1 2994   2.394   2.106   8.658  0.0000  0.0000  0.0000
 2995OM     OM1 2995   2.248   2.326   8.607  0.0000  0.0000  0.0000
 2996OM     OM1 2996   2.989   2.391   1.142  0.0000  0.0000  0.0000
 2997OM     OM1 2997   2.734   2.366   1.178  0.0000  0.0000  0.0000
 2998OM     OM1 2998   4.098   2.545   8.862  0.0000  0.0000  0.0000
 2999OM     OM1 2999   4.058   2.573   9.109  0.0000  0.0000  0.0000
 3000OM     OM1 3000   4.303   2.526   9.019  0.0000  0.0000  0.0000
 3001OM     OM1 3001   4.141   2.329   9.012  0.0000  0.0000  0.0000
 3002OM     OM1 3002   9.428   8.730   8.931  0.0000  0.0000  0.0000
 3003OM     OM1 3003   9.507   8.971   8.888  0.0000  0.0000  0.0000
 3004OM     OM1 3004   3.899   3.320   0.939  0.0000  0.0000  0.0000
 3005OM     OM1 3005   3.859   3.049   0.888  0.0000  0.0000  0.0000
 3006OM     OM1 3006   4.096   3.161   0.891  0.0000  0.0000  0.0000
 3007OM     OM1 3007   5.646   3.940   0.584  0.0000  0.0000  0.0000
 3008OM     OM1 3008   6.074   3.786   0.515  0.0000  0.0000  0.0000
 3009OM     OM1 3009   5.640   3.683   0.532  0.0000  0.0000  0.0000
 3010OM     OM1 3010   5.829   3.828   0.428  0.0000  0.0000  0.0000
 3011OM     OM1 3011   1.667   2.363   1.173  0.0000  0.0000  0.0000
 3012OM     OM1 3012   1.453   2.328   1.026  0.0000  0.0000  0.0000
 3013OM     OM1 3013   1.454   2.266   1.289  0.0000  0.0000  0.0000
 3014OM     OM1 3014   1.460   2.514   1.200  0.0000  0.0000  0.0000
 3015OM     OM1 3015   6.127   0.493   9.485  0.0000  0.0000  0.0000
 3016OM     OM1 3016   5.911   0.357   9.408  0.0000  0.0000  0.0000
 3017OM     OM1 3017   6.112   0.236   9.539  0.0000  0.0000  0.0000
 3018OM     OM1 3018   2.685   0.933   8.739  0.0000  0.0000  0.0000
 3019OM     OM1 3019   2.545   0.743   8.839  0.0000  0.0000  0.0000
 3020OM     OM1 3020   2.786   0.698   8.715  0.0000  0.0000  0.0000
 3021OM     OM1 3021   2.572   0.748   8.577  0.0000  0.0000  0.0000
 3022OM     OM1 3022   5.996   8.061   0.162  0.0000  0.0000  0.0000
 3023OM     OM1 3023   6.237   8.161   0.121  0.0000  0.0000  0.0000
 3024OM     OM1 3024   6.052   8.189   9.545  0.0000  0.0000  0.0000
 3025OM     OM1 3025   5.575   6.368   0.341  0.0000  0.0000  0.0000
 3026OM     OM1 3026   5.398   6.462   0.497  0.0000  0.0000  0.0000
 3027OM     OM1 3027   5.633   6.569   0.488  0.0000  0.0000  0.0000
 3028OM     OM1 3028   5.597   6.324   0.597  0.0000  0.0000  0.0000
 3029OM     OM1 3029   7.039   3.877   8.668  0.0000  0.0000  0.0000
 3030OM     OM1 3030   6.928   3.969   8.897  0.0000  0.0000  0.0000
 3031OM     OM1 3031   6.989   4.121   8.682  0.0000  0.0000  0.0000
 3032OM     OM1 3032   7.168   4.031   8.851  0.0000  0.0000  0.0000
 3033OM     OM1 3033   6.154   6.267   1.174  0.0000  0.0000  0.0000
 3034OM     OM1 3034   5.944   6.231   1.333  0.0000  0.0000  0.0000
 3035OM     OM1 3035   6.081   6.444   1.343  0.0000  0.0000  0.0000
 3036OM     OM1 3036   5.118   8.853   8.991  0.0000  0.0000  0.0000
 3037OM     OM1 3037   5.175   8.756   8.763  0.0000  0.0000  0.0000
 3038OM     OM1 3038   5.275   8.996   8.833  0.0000  0.0000  0.0000
 3039OM     OM1 3039   0.063   3.937   1.255  0.0000  0.0000  0.0000
 3040OM     OM1 3040   0.125   4.145   1.129  0.0000  0.0000  0.0000
 3041OM     OM1 3041   9.529   4.160   1.300  0.0000  0.0000  0.0000
 3042OM     OM1 3042   8.670   1.251   1.210  0.0000  0.0000  0.0000
 3043OM     OM1 3043   1.194   2.398   9.121  0.0000  0.0000  0.0000
 3044OM     OM1 3044   1.203   2.222   8.929  0.0000  0.0000  0.0000
 3045OM     OM1 3045   1.020   2.405   8.926  0.0000  0.0000  0.0000
 3046OM     OM1 3046   1.311   2.333   9.342  0.0000  0.0000  0.0000
 3047OM     OM1 3047   2.332   3.811   1.242  0.0000  0.0000  0.0000
 3048OM     OM1 3048   2.366   4.057   1.284  0.0000  0.0000  0.0000
 3049OM     OM1 3049   3.489   5.383   0.318  0.0000  0.0000  0.0000
 3050OM     OM1 3050   3.233   5.356   0.333  0.0000  0.0000  0.0000
 3051OM     OM1 3051   3.328   5.595   0.289  0.0000  0.0000  0.0000
 3052OM     OM1 3052   3.371   5.471   0.525  0.0000  0.0000  0.0000
 3053OM     OM1 3053   2.237   3.793   0.040  0.0000  0.0000  0.0000
 3054OM     OM1 3054   2.314   3.653   0.250  0.0000  0.0000  0.0000
 3055OM     OM1 3055   2.066   3.692   0.198  0.0000  0.0000  0.0000
 3056OM     OM1 3056   4.430   7.373   8.649  0.0000  0.0000  0.0000
 3057OM     OM1 3057   4.362   7.639   8.848  0.0000  0.0000  0.0000
 3058OM     OM1 3058   7.393   5.450   0.884  0.0000  0.0000  0.0000
 3059OM     OM1 3059   7.501   5.351   1.097  0.0000  0.0000  0.0000
 3060OM     OM1 3060   7.527   5.237   0.867  0.0000  0.0000  0.0000
 3061OM     OM1 3061   9.021   6.962   0.008  0.0000  0.0000  0.0000
 3062OM     OM1 3062   8.766   6.975   0.080  0.0000  0.0000  0.0000
 3063OM     OM1 3063   9.164   9.323   8.749  0.0000  0.0000  0.0000
 3064OM     OM1 3064   8.956   9.474   8.757  0.0000  0.0000  0.0000
 3065OM     OM1 3065   9.206   9.567   8.810  0.0000  0.0000  0.0000
 3066OM     OM1 3066   9.131   9.523   8.568  0.0000  0.0000  0.0000
 3067OM     OM1 3067   3.970   9.393   9.388  0.0000  0.0000  0.0000
 3068OM     OM1 3068   4.158   9.446   9.205  0.0000  0.0000  0.0000
 3069OM     OM1 3069   4.093   0.017   9.397  0.0000  0.0000  0.0000
 3070OM     OM1 3070   8.990   6.205   8.656  0.0000  0.0000  0.0000
 3071OM     OM1 3071   9.140   6.223   8.444  0.0000  0.0000  0.0000
 3072OM     OM1 3072   8.962   6.413   8.496  0.0000  0.0000  0.0000
 3073OM     OM1 3073   9.177   6.381   8.647  0.0000  0.0000  0.0000
 3074OM     OM1 3074   5.456   7.391   0.140  0.0000  0.0000  0.0000
 3075OM     OM1 3075   5.663   7.466   0.016  0.0000  0.0000  0.0000
 3076OM     OM1 3076   5.655   7.452   0.288  0.0000  0.0000  0.0000
 3077OM     OM1 3077   0.778   1.561   0.299  0.0000  0.0000  0.0000
 3078OM     OM1 3078   0.639   1.770   0.365  0.0000  0.0000  0.0000
 3079OM     OM1 3079   0.550   1.607   0.177  0.0000  0.0000  0.0000
 3080OM     OM1 3080   9.454   0.218   0.781  0.0000  0.0000  0.0000
 3081OM     OM1 3081   9.393   0.328   0.559  0.0000  0.0000  0.0000
 3082OM     OM1 3082   4.129   6.965   0.163  0.0000  0.0000  0.0000
 3083OM     OM1 3083   4.211   6.773   0.304  0.0000  0.0000  0.0000
 3084OM     OM1 3084   9.482   9.220   8.786  0.0000  0.0000  0.0000
 3085OM     OM1 3085   0.274   9.262   8.872  0.0000  0.0000  0.0000
 3086OM     OM1 3086   0.056   9.395   8.848  0.0000  0.0000  0.0000
 3087OM     OM1 3087   6.214   8.844   8.787  0.0000  0.0000  0.0000
 3088OM     OM1 3088   6.056   9.048   8.805  0.0000  0.0000  0.0000
 3089OM     OM1 3089   6.179   9.002   8.576  0.0000  0.0000  0.0000
 3090OM     OM1 3090   1.838   7.817   0.353  0.0000  0.0000  0.0000
 3091OM     OM1 3091   2.038   7.928   0.474  0.0000  0.0000  0.0000
 3092OM     OM1 3092   1.803   8.036   0.500  0.0000  0.0000  0.0000
 3093OM     OM1 3093   1.914   8.053   0.271  0.0000  0.0000  0.0000
 3094OM     OM1 3094   2.850   0.877   0.239  0.0000  0.0000  0.0000
 3095OM     OM1 3095   3.108   0.836   0.202  0.0000  0.0000  0.0000
 3096OM     OM1 3096   2.964   0.889   9.605  0.0000  0.0000  0.0000
 3097OM     OM1 3097   5.138   3.888   0.554  0.0000  0.0000  0.0000
 3098OM     OM1 3098   5.314   4.037   0.659  0.0000  0.0000  0.0000
 3099OM     OM1 3099   5.121   3.959   0.806  0.0000  0.0000  0.0000
 3100OM     OM1 3100   1.480   1.687   8.298  0.0000  0.0000  0.0000
 3101OM     OM1 3101   1.431   1.425   8.316  0.0000  0.0000  0.0000
 3102OM     OM1 3102   1.592   1.144   9.568  0.0000  0.0000  0.0000
 3103OM     OM1 3103   1.842   1.071   0.006  0.0000  0.0000  0.0000
 3104OM     OM1 3104   1.918   9.489   8.373  0.0000  0.0000  0.0000
 3105OM     OM1 3105   1.813   0.124   8.331  0.0000  0.0000  0.0000
 3106OM     OM1 3106   2.045   0.071   8.238  0.0000  0.0000  0.0000
 3107OM     OM1 3107   4.780   8.467   1.053  0.0000  0.0000  0.0000
 3108OM     OM1 3108   4.968   8.276   1.056  0.0000  0.0000  0.0000
 3109OM     OM1 3109   4.792   8.295   1.372  0.0000  0.0000  0.0000
 3110OM     OM1 3110   5.808   2.645   0.826  0.0000  0.0000  0.0000
 3111OM     OM1 3111   6.022   2.571   0.689  0.0000  0.0000  0.0000
 3112OM     OM1 3112   5.917   2.396   0.845  0.0000  0.0000  0.0000
 3113OM     OM1 3113   6.482   3.777   0.152  0.0000  0.0000  0.0000
 3114OM     OM1 3114   6.639   3.572   0.150  0.0000  0.0000  0.0000
 3115OM     OM1 3115   6.693   3.774   0.313  0.0000  0.0000  0.0000
 3116OM     OM1 3116   6.486   3.620   0.356  0.0000  0.0000  0.0000
 3117OM     OM1 3117   5.012   8.814   9.596  0.0000  0.0000  0.0000
 3118OM     OM1 3118   5.009   8.634   9.397  0.0000  0.0000  0.0000
 3119OM     OM1 3119   3.823   9.325   8.265  0.0000  0.0000  0.0000
 3120OM     OM1 3120   3.801   9.108   8.405  0.0000  0.0000  0.0000
 3121OM     OM1 3121   4.032   9.213   8.358  0.0000  0.0000  0.0000
 3122OM     OM1 3122   0.413   8.118   9.472  0.0000  0.0000  0.0000
 3123OM     OM1 3123   0.642   8.122   9.353  0.0000  0.0000  0.0000
 3124OM     OM1 3124   0.624   8.078   0.009  0.0000  0.0000  0.0000
 3125OM     OM1 3125   0.537   7.890   9.448  0.0000  0.0000  0.0000
 3126OM     OM1 3126   8.769   7.053   0.778  0.0000  0.0000  0.0000
 3127OM     OM1 3127   8.630   6.885   0.940  0.0000  0.0000  0.0000
 3128OM     OM1 3128   8.546   7.129   0.878  0.0000  0.0000  0.0000
 3129OM     OM1 3129   8.554   6.940   0.696  0.0000  0.0000  0.0000
 3130OM     OM1 3130   6.533   8.379   0.427  0.0000  0.0000  0.0000
 3131OM     OM1 3131   6.370   8.242   0.566  0.0000  0.0000  0.0000
 3132OM     OM1 3132   6.416   8.171   0.315  0.0000  0.0000  0.0000
 3133OM     OM1 3133   3.424   0.984   8.422  0.0000  0.0000  0.0000
 3134OM     OM1 3134   3.323   1.019   8.656  0.0000  0.0000  0.0000
 3135OM     OM1 3135   3.513   0.835   8.620  0.0000  0.0000  0.0000
 3136OM     OM1 3136   3.423   1.124   8.869  0.0000  0.0000  0.0000
 3137OM     OM1 3137   2.675   7.804   8.925  0.0000  0.0000  0.0000
 3138OM     OM1 3138   2.532   7.759   9.147  0.0000  0.0000  0.0000
 3139OM     OM1 3139   2.773   7.841   9.165  0.0000  0.0000  0.0000
 3140OM     OM1 3140   9.241   3.072   9.115  0.0000  0.0000  0.0000
 3141OM     OM1 3141   9.344   2.884   9.244  0.0000  0.0000  0.0000
 3142OM     OM1 3142   9.379   3.131   9.332  0.0000  0.0000  0.0000
 3143OM     OM1 3143   9.136   3.012   9.352  0.0000  0.0000  0.0000
 3144OM     OM1 3144   0.500   3.118   9.090  0.0000  0.0000  0.0000
 3145OM     OM1 3145   0.538   2.986   9.315  0.0000  0.0000  0.0000
 3146OM     OM1 3146   0.681   3.203   9.253  0.0000  0.0000  0.0000
 3147OM     OM1 3147   0.062   3.898   8.235  0.0000  0.0000  0.0000
 3148OM     OM1 3148   9.037   5.726   8.397  0.0000  0.0000  0.0000
 3149OM     OM1 3149   9.238   5.591   8.483  0.0000  0.0000  0.0000
 3150OM     OM1 3150   2.030   1.614   0.401  0.0000  0.0000  0.0000
 3151OM     OM1 3151   1.892   1.517   0.593  0.0000  0.0000  0.0000
 3152OM     OM1 3152   1.990   1.757   0.639  0.0000  0.0000  0.0000
 3153OM     OM1 3153   2.147   1.572   0.635  0.0000  0.0000  0.0000
 3154OM     OM1 3154   4.177   5.868   0.411  0.0000  0.0000  0.0000
 3155OM     OM1 3155   4.429   5.958   0.471  0.0000  0.0000  0.0000
 3156OM     OM1 3156   4.329   6.026   0.249  0.0000  0.0000  0.0000
 3157OM     OM1 3157   0.882   1.965   0.047  0.0000  0.0000  0.0000
 3158OM     OM1 3158   0.651   2.081   9.599  0.0000  0.0000  0.0000
 3159OM     OM1 3159   0.758   1.919   9.418  0.0000  0.0000  0.0000
 3160OM     OM1 3160   0.866   2.147   9.469  0.0000  0.0000  0.0000
 3161OM     OM1 3161   4.666   8.096   1.275  0.0000  0.0000  0.0000
 3162OM     OM1 3162   4.041   8.058   0.069  0.0000  0.0000  0.0000
 3163OM     OM1 3163   3.785   8.012   9.601  0.0000  0.0000  0.0000
 3164OM     OM1 3164   3.958   8.133   9.446  0.0000  0.0000  0.0000
 3165OM     OM1 3165   8.347   4.224   9.094  0.0000  0.0000  0.0000
 3166OM     OM1 3166   8.516   4.106   9.252  0.0000  0.0000  0.0000
 3167OM     OM1 3167   8.389   3.975   9.054  0.0000  0.0000  0.0000
 3168OM     OM1 3168   8.577   4.165   9.005  0.0000  0.0000  0.0000
 3169OM     OM1 3169   6.608   8.156   8.885  0.0000  0.0000  0.0000
 3170OM     OM1 3170   6.669   8.354   8.728  0.0000  0.0000  0.0000
 3171OM     OM1 3171   6.579   8.129   8.622  0.0000  0.0000  0.0000
 3172OM     OM1 3172   6.421   8.283   8.757  0.0000  0.0000  0.0000
 3173OM     OM1 3173   9.189   6.629   8.984  0.0000  0.0000  0.0000
 3174OM     OM1 3174   9.192   6.594   9.237  0.0000  0.0000  0.0000
 3175OM     OM1 3175   9.316   6.422   9.091  0.0000  0.0000  0.0000
 3176OM     OM1 3176   9.055   6.427   9.085  0.0000  0.0000  0.0000
 3177OM     OM1 3177   5.716   4.678   9.022  0.0000  0.0000  0.0000
 3178OM     OM1 3178   5.567   4.486   8.920  0.0000  0.0000  0.0000
 3179OM     OM1 3179   5.581   4.728   8.807  0.0000  0.0000  0.0000
 3180OM     OM1 3180   5.780   4.574   8.796  0.0000  0.0000  0.0000
 3181OM     OM1 3181   1.751   8.293   9.184  0.0000  0.0000  0.0000
 3182OM     OM1 3182   1.608   8.499   9.121  0.0000  0.0000  0.0000
 3183OM     OM1 3183   1.732   8.367   8.936  0.0000  0.0000  0.0000
 3184OM     OM1 3184   3.785   6.674   1.293  0.0000  0.0000  0.0000
 3185OM     OM1 3185   2.111   5.498   9.005  0.0000  0.0000  0.0000
 3186OM     OM1 3186   2.366   5.436   9.000  0.0000  0.0000  0.0000
 3187OM     OM1 3187   2.212   5.365   9.210  0.0000  0.0000  0.0000
 3188OM     OM1 3188   6.132   8.849   8.377  0.0000  0.0000  0.0000
 3189OM     OM1 3189   6.302   8.670   8.301  0.0000  0.0000  0.0000
 3190OM     OM1 3190   0.775   8.978   0.863  0.0000  0.0000  0.0000
 3191OM     OM1 3191   0.658   9.140   1.024  0.0000  0.0000  0.0000
 3192OM     OM1 3192   0.740   8.892   1.097  0.0000  0.0000  0.0000
 3193OM     OM1 3193   0.908   9.094   1.060  0.0000  0.0000  0.0000
 3194OM     OM1 3194   6.640   6.907   0.911  0.0000  0.0000  0.0000
 3195OM     OM1 3195   6.774   6.990   1.114  0.0000  0.0000  0.0000
 3196OM     OM1 3196   6.593   7.088   0.724  0.0000  0.0000  0.0000
 3197OM     OM1 3197   6.893   6.827   0.970  0.0000  0.0000  0.0000
 3198OM     OM1 3198   3.208   2.032   9.415  0.0000  0.0000  0.0000
 3199OM     OM1 3199   3.404   1.946   9.268  0.0000  0.0000  0.0000
 3200OM     OM1 3200   3.232   2.111   9.162  0.0000  0.0000  0.0000
 3201OM     OM1 3201   3.402   2.193   9.339  0.0000  0.0000  0.0000
 3202OM     OM1 3202   3.043   7.484   9.324  0.0000  0.0000  0.0000
 3203OM     OM1 3203   2.898   7.697   9.346  0.0000  0.0000  0.0000
 3204OM     OM1 3204   2.848   7.501   9.512  0.0000  0.0000  0.0000
 3205OM     OM1 3205   3.063   7.641   9.536  0.0000  0.0000  0.0000
 3206OM     OM1 3206   8.395   7.363   8.442  0.0000  0.0000  0.0000
 3207OM     OM1 3207   8.248   7.172   8.324  0.0000  0.0000  0.0000
 3208OM     OM1 3208   8.198   7.243   8.564  0.0000  0.0000  0.0000
 3209OM     OM1 3209   5.591   2.792   9.045  0.0000  0.0000  0.0000
 3210OM     OM1 3210   5.480   3.029   9.063  0.0000  0.0000  0.0000
 3211OM     OM1 3211   5.500   2.895   9.273  0.0000  0.0000  0.0000
 3212OM     OM1 3212   5.323   2.819   9.101  0.0000  0.0000  0.0000
 3213OM     OM1 3213   1.654   0.411   0.855  0.0000  0.0000  0.0000
 3214OM     OM1 3214   1.509   0.319   0.442  0.0000  0.0000  0.0000
 3215OM     OM1 3215   1.567   0.228   0.693  0.0000  0.0000  0.0000
 3216OM     OM1 3216   0.221   0.178   8.871  0.0000  0.0000  0.0000
 3217OM     OM1 3217   0.225   0.426   8.792  0.0000  0.0000  0.0000
 3218OM     OM1 3218   0.346   0.356   9.011  0.0000  0.0000  0.0000
 3219OM     OM1 3219   0.282   0.315   8.284  0.0000  0.0000  0.0000
 3220OM     OM1 3220   0.101   0.193   8.434  0.0000  0.0000  0.0000
 3221OM     OM1 3221   0.073   0.443   8.357  0.0000  0.0000  0.0000
 3222OM     OM1 3222   0.252   0.389   8.533  0.0000  0.0000  0.0000
 3223OM     OM1 3223   4.275   0.789   8.185  0.0000  0.0000  0.0000
 3224OM     OM1 3224   4.488   0.708   8.315  0.0000  0.0000  0.0000
 3225OM     OM1 3225   1.122   3.606   9.044  0.0000  0.0000  0.0000
 3226OM     OM1 3226   1.143   3.359   9.130  0.0000  0.0000  0.0000
 3227OM     OM1 3227   1.112   3.548   9.294  0.0000  0.0000  0.0000
 3228OM     OM1 3228   1.343   3.521   9.182  0.0000  0.0000  0.0000
 3229OM     OM1 3229   8.447   3.302   0.998  0.0000  0.0000  0.0000
 3230OM     OM1 3230   8.378   3.289   0.744  0.0000  0.0000  0.0000
 3231OM     OM1 3231   8.623   3.315   0.814  0.0000  0.0000  0.0000
 3232OM     OM1 3232   8.463   3.518   0.838  0.0000  0.0000  0.0000
 3233OM     OM1 3233   2.180   5.020   9.095  0.0000  0.0000  0.0000
 3234OM     OM1 3234   2.085   4.761   8.762  0.0000  0.0000  0.0000
 3235OM     OM1 3235   1.920   4.707   8.940  0.0000  0.0000  0.0000
 3236OM     OM1 3236   3.551   8.909   9.472  0.0000  0.0000  0.0000
 3237OM     OM1 3237   3.550   9.114   9.310  0.0000  0.0000  0.0000
 3238OM     OM1 3238   3.325   8.987   9.348  0.0000  0.0000  0.0000
 3239OM     OM1 3239   3.420   9.123   9.543  0.0000  0.0000  0.0000
 3240OM     OM1 3240   9.015   5.066   0.648  0.0000  0.0000  0.0000
 3241OM     OM1 3241   8.829   4.950   0.510  0.0000  0.0000  0.0000
 3242OM     OM1 3242   8.751   5.109   0.704  0.0000  0.0000  0.0000
 3243OM     OM1 3243   1.917   8.303   0.191  0.0000  0.0000  0.0000
 3244OM     OM1 3244   1.698   8.173   0.166  0.0000  0.0000  0.0000
 3245OM     OM1 3245   1.887   8.110   0.013  0.0000  0.0000  0.0000
 3246OM     OM1 3246   6.230   8.392   8.610  0.0000  0.0000  0.0000
 3247OM     OM1 3247   6.219   8.594   8.764  0.0000  0.0000  0.0000
 3248OM     OM1 3248   6.158   8.624   8.507  0.0000  0.0000  0.0000
 3249OM     OM1 3249   5.996   8.503   8.661  0.0000  0.0000  0.0000
 3250OM     OM1 3250   4.978   8.093   0.770  0.0000  0.0000  0.0000
 3251OM     OM1 3251   4.897   8.293   0.630  0.0000  0.0000  0.0000
 3252OM     OM1 3252   4.957   8.073   0.516  0.0000  0.0000  0.0000
 3253OM     OM1 3253   1.570   5.503   1.154  0.0000  0.0000  0.0000
 3254OM     OM1 3254   1.350   5.457   1.002  0.0000  0.0000  0.0000
 3255OM     OM1 3255   1.572   5.346   0.961  0.0000  0.0000  0.0000
 3256OM     OM1 3256   2.343   6.246   9.426  0.0000  0.0000  0.0000
 3257OM     OM1 3257   2.392   6.498   9.374  0.0000  0.0000  0.0000
 3258OM     OM1 3258   2.412   6.310   9.185  0.0000  0.0000  0.0000
 3259OM     OM1 3259   2.585   6.312   9.389  0.0000  0.0000  0.0000
 3260OM     OM1 3260   8.021   2.950   0.625  0.0000  0.0000  0.0000
 3261OM     OM1 3261   8.082   3.080   0.402  0.0000  0.0000  0.0000
 3262OM     OM1 3262   8.249   3.087   0.602  0.0000  0.0000  0.0000
 3263OM     OM1 3263   8.203   2.863   0.470  0.0000  0.0000  0.0000
 3264OM     OM1 3264   0.227   0.631   8.640  0.0000  0.0000  0.0000
 3265OM     OM1 3265   9.507   3.281   9.518  0.0000  0.0000  0.0000
 3266OM     OM1 3266   9.534   3.507   0.058  0.0000  0.0000  0.0000
 3267OM     OM1 3267   9.305   3.426   9.552  0.0000  0.0000  0.0000
 3268OM     OM1 3268   9.406   3.314   0.155  0.0000  0.0000  0.0000
 3269OM     OM1 3269   2.865   8.983   0.151  0.0000  0.0000  0.0000
 3270OM     OM1 3270   3.071   9.148   0.194  0.0000  0.0000  0.0000
 3271OM     OM1 3271   2.828   9.230   0.242  0.0000  0.0000  0.0000
 3272OM     OM1 3272   2.933   9.051   0.390  0.0000  0.0000  0.0000
 3273OM     OM1 3273   3.465   1.814   9.053  0.0000  0.0000  0.0000
 3274OM     OM1 3274   3.357   1.571   9.088  0.0000  0.0000  0.0000
 3275OM     OM1 3275   3.403   1.664   8.849  0.0000  0.0000  0.0000
 3276OM     OM1 3276   3.600   1.596   9.007  0.0000  0.0000  0.0000
 3277OM     OM1 3277   2.396   7.265   0.016  0.0000  0.0000  0.0000
 3278OM     OM1 3278   2.622   7.393   0.030  0.0000  0.0000  0.0000
 3279OM     OM1 3279   1.730   3.272   9.079  0.0000  0.0000  0.0000
 3280OM     OM1 3280   1.619   3.071   9.205  0.0000  0.0000  0.0000
 3281OM     OM1 3281   1.504   3.315   9.192  0.0000  0.0000  0.0000
 3282OM     OM1 3282   6.470   1.947   8.501  0.0000  0.0000  0.0000
 3283OM     OM1 3283   6.237   1.905   8.602  0.0000  0.0000  0.0000
 3284OM     OM1 3284   4.553   4.482   1.131  0.0000  0.0000  0.0000
 3285OM     OM1 3285   4.453   4.674   1.274  0.0000  0.0000  0.0000
 3286OM     OM1 3286   4.829   3.686   0.062  0.0000  0.0000  0.0000
 3287OM     OM1 3287   4.842   3.704   9.405  0.0000  0.0000  0.0000
 3288OM     OM1 3288   3.233   5.921   9.232  0.0000  0.0000  0.0000
 3289OM     OM1 3289   3.414   6.083   9.331  0.0000  0.0000  0.0000
 3290OM     OM1 3290   3.443   5.981   9.084  0.0000  0.0000  0.0000
 3291OM     OM1 3291   3.717   6.771   9.258  0.0000  0.0000  0.0000
 3292OM     OM1 3292   3.758   6.728   8.937  0.0000  0.0000  0.0000
 3293OM     OM1 3293   3.761   6.954   9.086  0.0000  0.0000  0.0000
 3294OM     OM1 3294   3.975   6.833   9.016  0.0000  0.0000  0.0000
 3295OM     OM1 3295   8.224   3.782   8.956  0.0000  0.0000  0.0000
 3296OM     OM1 3296   8.167   4.034   8.929  0.0000  0.0000  0.0000
 3297OM     OM1 3297   8.158   3.929   9.163  0.0000  0.0000  0.0000
 3298OM     OM1 3298   4.946   2.144   0.803  0.0000  0.0000  0.0000
 3299OM     OM1 3299   4.947   1.832   1.111  0.0000  0.0000  0.0000
 3300OM     OM1 3300   4.894   2.091   1.054  0.0000  0.0000  0.0000
 3301OM     OM1 3301   4.722   1.941   1.192  0.0000  0.0000  0.0000
 3302OM     OM1 3302   2.001   5.005   8.320  0.0000  0.0000  0.0000
 3303OM     OM1 3303   1.920   4.764   8.266  0.0000  0.0000  0.0000
 3304OM     OM1 3304   1.814   4.887   8.469  0.0000  0.0000  0.0000
 3305OM     OM1 3305   7.516   3.057   9.162  0.0000  0.0000  0.0000
 3306OM     OM1 3306   7.477   3.290   9.282  0.0000  0.0000  0.0000
 3307OM     OM1 3307   7.531   3.080   9.421  0.0000  0.0000  0.0000
 3308OM     OM1 3308   7.302   3.098   9.309  0.0000  0.0000  0.0000
 3309OM     OM1 3309   8.126   0.826   9.263  0.0000  0.0000  0.0000
 3310OM     OM1 3310   8.224   1.025   9.137  0.0000  0.0000  0.0000
 3311OM     OM1 3311   8.207   0.799   9.010  0.0000  0.0000  0.0000
 3312OM     OM1 3312   8.391   0.829   9.199  0.0000  0.0000  0.0000
 3313OM     OM1 3313   8.536   1.374   0.899  0.0000  0.0000  0.0000
 3314OM     OM1 3314   8.621   1.434   0.658  0.0000  0.0000  0.0000
 3315OM     OM1 3315   8.769   1.503   0.856  0.0000  0.0000  0.0000
 3316OM     OM1 3316   8.531   1.620   0.826  0.0000  0.0000  0.0000
 3317OM     OM1 3317   3.902   8.905   0.462  0.0000  0.0000  0.0000
 3318OM     OM1 3318   4.001   8.659   0.458  0.0000  0.0000  0.0000
 3319OM     OM1 3319   3.842   8.739   0.268  0.0000  0.0000  0.0000
 3320OM     OM1 3320   2.046   1.974   0.758  0.0000  0.0000  0.0000
 3321OM     OM1 3321   1.801   1.870   0.766  0.0000  0.0000  0.0000
 3322OM     OM1 3322   1.978   1.762   0.912  0.0000  0.0000  0.0000
 3323OM     OM1 3323   8.710   7.250   9.112  0.0000  0.0000  0.0000
 3324OM     OM1 3324   8.897   7.362   8.968  0.0000  0.0000  0.0000
 3325OM     OM1 3325   0.740   9.595   9.568  0.0000  0.0000  0.0000
 3326OM     OM1 3326   0.886   0.100   9.368  0.0000  0.0000  0.0000
 3327OM     OM1 3327   0.999   0.021   9.584  0.0000  0.0000  0.0000
 3328OM     OM1 3328   0.971   0.013   9.141  0.0000  0.0000  0.0000
 3329OM     OM1 3329   1.817   4.421   1.093  0.0000  0.0000  0.0000
 3330OM     OM1 3330   2.023   4.497   0.926  0.0000  0.0000  0.0000
 3331OM     OM1 3331   1.874   4.667   1.058  0.0000  0.0000  0.0000
 3332OM     OM1 3332   2.043   4.503   1.184  0.0000  0.0000  0.0000
 3333OM     OM1 3333   4.317   8.380   1.233  0.0000  0.0000  0.0000
 3334OM     OM1 3334   4.071   8.356   1.173  0.0000  0.0000  0.0000
 3335OM     OM1 3335   4.220   8.151   1.133  0.0000  0.0000  0.0000
 3336OM     OM1 3336   9.179   1.915   1.253  0.0000  0.0000  0.0000
 3337OM     OM1 3337   9.042   1.696   1.293  0.0000  0.0000  0.0000
 3338OM     OM1 3338   2.826   5.656   1.421  0.0000  0.0000  0.0000
 3339OM     OM1 3339   2.942   5.502   1.261  0.0000  0.0000  0.0000
 3340OM     OM1 3340   1.935   6.463   8.815  0.0000  0.0000  0.0000
 3341OM     OM1 3341   1.807   6.476   9.046  0.0000  0.0000  0.0000
 3342OM     OM1 3342   1.702   6.586   8.833  0.0000  0.0000  0.0000
 3343OM     OM1 3343   1.711   6.331   8.841  0.0000  0.0000  0.0000
 3344OM     OM1 3344   3.507   2.801   1.148  0.0000  0.0000  0.0000
 3345OM     OM1 3345   3.677   2.605   1.193  0.0000  0.0000  0.0000
 3346OM     OM1 3346   3.478   2.564   1.039  0.0000  0.0000  0.0000
 3347OM     OM1 3347   3.435   2.596   1.291  0.0000  0.0000  0.0000
 3348OM     OM1 3348   6.853   8.240   0.818  0.0000  0.0000  0.0000
 3349OM     OM1 3349   6.703   8.264   0.598  0.0000  0.0000  0.0000
 3350OM     OM1 3350   6.759   8.027   0.726  0.0000  0.0000  0.0000
 3351OM     OM1 3351   4.824   1.085   8.552  0.0000  0.0000  0.0000
 3352OM     OM1 3352   5.013   1.259   8.554  0.0000  0.0000  0.0000
 3353OM     OM1 3353   5.083   1.019   8.475  0.0000  0.0000  0.0000
 3354OM     OM1 3354   4.512   9.330   9.506  0.0000  0.0000  0.0000
 3355OM     OM1 3355   4.266   9.381   9.558  0.0000  0.0000  0.0000
 3356OM     OM1 3356   4.343   9.315   9.306  0.0000  0.0000  0.0000
 3357OM     OM1 3357   5.550   9.505   0.857  0.0000  0.0000  0.0000
 3358OM     OM1 3358   5.590   9.180   1.211  0.0000  0.0000  0.0000
 3359OM     OM1 3359   5.486   9.324   1.026  0.0000  0.0000  0.0000
 3360OM     OM1 3360   5.647   9.122   0.960  0.0000  0.0000  0.0000
 3361OM     OM1 3361   5.361   9.236   8.911  0.0000  0.0000  0.0000
 3362OM     OM1 3362   5.404   9.148   8.667  0.0000  0.0000  0.0000
 3363OM     OM1 3363   5.534   9.045   8.859  0.0000  0.0000  0.0000
 3364OM     OM1 3364   2.190   4.649   8.553  0.0000  0.0000  0.0000
 3365OM     OM1 3365   2.152   4.655   8.286  0.0000  0.0000  0.0000
 3366OM     OM1 3366   2.060   4.337   8.626  0.0000  0.0000  0.0000
 3367OM     OM1 3367   2.158   4.429   8.412  0.0000  0.0000  0.0000
 3368OM     OM1 3368   5.340   1.386   0.926  0.0000  0.0000  0.0000
 3369OM     OM1 3369   5.454   1.481   0.713  0.0000  0.0000  0.0000
 3370OM     OM1 3370   5.255   1.605   0.806  0.0000  0.0000  0.0000
 3371OM     OM1 3371   0.119   6.876   8.269  0.0000  0.0000  0.0000
 3372OM     OM1 3372   9.411   8.892   1.199  0.0000  0.0000  0.0000
 3373OM     OM1 3373   9.409   8.966   0.946  0.0000  0.0000  0.0000
 3374OM     OM1 3374   9.316   8.728   1.025  0.0000  0.0000  0.0000
 3375OM     OM1 3375   9.190   8.952   1.087  0.0000  0.0000  0.0000
 3376OM     OM1 3376   3.965   1.811   1.194  0.0000  0.0000  0.0000
 3377OM     OM1 3377   4.057   1.994   1.014  0.0000  0.0000  0.0000
 3378OM     OM1 3378   4.216   1.876   1.175  0.0000  0.0000  0.0000
 3379OM     OM1 3379   8.676   3.653   1.318  0.0000  0.0000  0.0000
 3380OM     OM1 3380   8.902   3.659   1.426  0.0000  0.0000  0.0000
 3381OM     OM1 3381   3.685   9.303   0.412  0.0000  0.0000  0.0000
 3382OM     OM1 3382   3.676   9.566   0.452  0.0000  0.0000  0.0000
 3383OM     OM1 3383   3.688   9.465   0.205  0.0000  0.0000  0.0000
 3384OM     OM1 3384   3.891   9.482   0.363  0.0000  0.0000  0.0000
 3385OM     OM1 3385   2.155   1.752   8.446  0.0000  0.0000  0.0000
 3386OM     OM1 3386   2.374   1.850   8.543  0.0000  0.0000  0.0000
 3387OM     OM1 3387   2.372   1.611   8.423  0.0000  0.0000  0.0000
 3388OM     OM1 3388   2.507   1.162   9.030  0.0000  0.0000  0.0000
 3389OM     OM1 3389   2.474   1.314   8.821  0.0000  0.0000  0.0000
 3390OM     OM1 3390   2.692   1.170   8.858  0.0000  0.0000  0.0000
 3391OM     OM1 3391   2.633   1.391   9.007  0.0000  0.0000  0.0000
 3392OM     OM1 3392   8.704   5.727   9.596  0.0000  0.0000  0.0000
 3393OM     OM1 3393   8.827   5.689   9.376  0.0000  0.0000  0.0000
 3394OM     OM1 3394   8.940   5.605   9.602  0.0000  0.0000  0.0000
 3395OM     OM1 3395   8.729   5.484   9.499  0.0000  0.0000  0.0000
 3396OM     OM1 3396   0.713   6.622   8.703  0.0000  0.0000  0.0000
 3397OM     OM1 3397   0.924   6.761   8.739  0.0000  0.0000  0.0000
 3398OM     OM1 3398   0.681   6.871   8.768  0.0000  0.0000  0.0000
 3399OM     OM1 3399   8.153   5.571   8.826  0.0000  0.0000  0.0000
 3400OM     OM1 3400   7.906   5.644   8.788  0.0000  0.0000  0.0000
 3401OM     OM1 3401   8.117   5.794   8.701  0.0000  0.0000  0.0000
 3402OM     OM1 3402   2.097   2.312   9.545  0.0000  0.0000  0.0000
 3403OM     OM1 3403   2.262   2.519   9.539  0.0000  0.0000  0.0000
 3404OM     OM1 3404   2.173   2.414   0.163  0.0000  0.0000  0.0000
 3405OM     OM1 3405   2.012   2.548   9.604  0.0000  0.0000  0.0000
 3406OM     OM1 3406   1.794   0.578   1.002  0.0000  0.0000  0.0000
 3407OM     OM1 3407   6.030   7.507   0.894  0.0000  0.0000  0.0000
 3408OM     OM1 3408   6.015   7.731   1.032  0.0000  0.0000  0.0000
 3409OM     OM1 3409   6.095   7.970   1.112  0.0000  0.0000  0.0000
 3410OM     OM1 3410   5.655   5.289   0.503  0.0000  0.0000  0.0000
 3411OM     OM1 3411   5.430   5.298   0.638  0.0000  0.0000  0.0000
 3412OM     OM1 3412   5.658   5.336   0.759  0.0000  0.0000  0.0000
 3413OM     OM1 3413   5.591   5.096   0.672  0.0000  0.0000  0.0000
 3414OM     OM1 3414   1.023   7.434   0.632  0.0000  0.0000  0.0000
 3415OM     OM1 3415   0.777   7.388   0.542  0.0000  0.0000  0.0000
 3416OM     OM1 3416   1.287   7.386   0.612  0.0000  0.0000  0.0000
 3417OM     OM1 3417   0.154   1.491   8.386  0.0000  0.0000  0.0000
 3418OM     OM1 3418   0.364   1.495   8.242  0.0000  0.0000  0.0000
 3419OM     OM1 3419   0.289   1.270   8.351  0.0000  0.0000  0.0000
 3420OM     OM1 3420   7.898   1.904   9.099  0.0000  0.0000  0.0000
 3421OM     OM1 3421   7.798   2.028   8.884  0.0000  0.0000  0.0000
 3422OM     OM1 3422   8.055   1.964   8.900  0.0000  0.0000  0.0000
 3423OM     OM1 3423   7.872   1.780   8.870  0.0000  0.0000  0.0000
 3424OM     OM1 3424   5.323   3.610   1.205  0.0000  0.0000  0.0000
 3425OM     OM1 3425   5.189   3.424   1.333  0.0000  0.0000  0.0000
 3426OM     OM1 3426   7.177   8.702   0.392  0.0000  0.0000  0.0000
 3427OM     OM1 3427   7.215   8.768   0.145  0.0000  0.0000  0.0000
 3428OM     OM1 3428   7.358   8.580   0.250  0.0000  0.0000  0.0000
 3429OM     OM1 3429   7.402   8.832   0.310  0.0000  0.0000  0.0000
 3430OM     OM1 3430   1.048   2.687   8.363  0.0000  0.0000  0.0000
 3431OM     OM1 3431   0.825   2.543   8.375  0.0000  0.0000  0.0000
 3432OM     OM1 3432   6.491   8.255   0.090  0.0000  0.0000  0.0000
 3433OM     OM1 3433   6.428   7.995   0.133  0.0000  0.0000  0.0000
 3434OM     OM1 3434   0.930   5.435   1.192  0.0000  0.0000  0.0000
 3435OM     OM1 3435   7.317   7.753   0.258  0.0000  0.0000  0.0000
 3436OM     OM1 3436   7.195   7.891   0.074  0.0000  0.0000  0.0000
 3437OM     OM1 3437   7.310   7.653   0.022  0.0000  0.0000  0.0000
 3438OM     OM1 3438   7.455   7.866   0.064  0.0000  0.0000  0.0000
 3439OM     OM1 3439   8.694   5.590   9.170  0.0000  0.0000  0.0000
 3440OM     OM1 3440   8.566   5.358   9.132  0.0000  0.0000  0.0000
 3441OM     OM1 3441   8.581   5.524   8.935  0.0000  0.0000  0.0000
 3442OM     OM1 3442   8.432   5.575   9.138  0.0000  0.0000  0.0000
 3443OM     OM1 3443   9.253   8.496   1.136  0.0000  0.0000  0.0000
 3444OM     OM1 3444   7.368   0.285   0.388  0.0000  0.0000  0.0000
 3445OM     OM1 3445   7.334   0.353   0.639  0.0000  0.0000  0.0000
 3446OM     OM1 3446   7.568   0.382   0.534  0.0000  0.0000  0.0000
 3447OM     OM1 3447   7.363   0.536   0.459  0.0000  0.0000  0.0000
 3448OM     OM1 3448   1.688   0.060   1.047  0.0000  0.0000  0.0000
 3449OM     OM1 3449   1.953   0.037   0.991  0.0000  0.0000  0.0000
 3450OM     OM1 3450   1.780   0.182   0.849  0.0000  0.0000  0.0000
 3451OM     OM1 3451   1.775   9.526   0.842  0.0000  0.0000  0.0000
 3452OM     OM1 3452   6.764   6.894   8.794  0.0000  0.0000  0.0000
 3453OM     OM1 3453   6.691   6.736   8.600  0.0000  0.0000  0.0000
 3454OM     OM1 3454   4.742   1.319   0.508  0.0000  0.0000  0.0000
 3455OM     OM1 3455   4.930   1.153   0.412  0.0000  0.0000  0.0000
 3456OM     OM1 3456   4.786   1.099   0.639  0.0000  0.0000  0.0000
 3457OM     OM1 3457   9.175   8.823   0.323  0.0000  0.0000  0.0000
 3458OM     OM1 3458   9.546   8.573   0.158  0.0000  0.0000  0.0000
 3459OM     OM1 3459   9.300   8.734   0.528  0.0000  0.0000  0.0000
 3460OM     OM1 3460   3.045   8.973   8.553  0.0000  0.0000  0.0000
 3461OM     OM1 3461   2.927   9.190   8.568  0.0000  0.0000  0.0000
 3462OM     OM1 3462   3.164   9.183   8.669  0.0000  0.0000  0.0000
 3463OM     OM1 3463   3.155   9.173   8.418  0.0000  0.0000  0.0000
 3464OM     OM1 3464   3.692   0.630   0.828  0.0000  0.0000  0.0000
 3465OM     OM1 3465   3.659   0.427   0.660  0.0000  0.0000  0.0000
 3466OM     OM1 3466   3.853   0.616   0.626  0.0000  0.0000  0.0000
 3467OM     OM1 3467   3.609   0.661   0.574  0.0000  0.0000  0.0000
 3468OM     OM1 3468   4.320   4.451   8.581  0.0000  0.0000  0.0000
 3469OM     OM1 3469   4.483   4.622   8.688  0.0000  0.0000  0.0000
 3470OM     OM1 3470   4.283   4.711   8.549  0.0000  0.0000  0.0000
 3471OM     OM1 3471   5.439   0.647   0.224  0.0000  0.0000  0.0000
 3472OM     OM1 3472   5.487   0.898   0.171  0.0000  0.0000  0.0000
 3473OM     OM1 3473   5.556   0.731   9.605  0.0000  0.0000  0.0000
 3474OM     OM1 3474   5.295   0.759   0.037  0.0000  0.0000  0.0000
 3475OM     OM1 3475   0.992   5.637   1.033  0.0000  0.0000  0.0000
 3476OM     OM1 3476   0.789   5.670   1.189  0.0000  0.0000  0.0000
 3477OM     OM1 3477   4.621   2.904   8.502  0.0000  0.0000  0.0000
 3478OM     OM1 3478   4.824   2.831   8.351  0.0000  0.0000  0.0000
 3479OM     OM1 3479   4.718   3.059   8.307  0.0000  0.0000  0.0000
 3480OM     OM1 3480   4.520   6.988   8.983  0.0000  0.0000  0.0000
 3481OM     OM1 3481   4.426   6.861   9.193  0.0000  0.0000  0.0000
 3482OM     OM1 3482   4.589   7.057   9.224  0.0000  0.0000  0.0000
 3483OM     OM1 3483   4.681   6.832   9.117  0.0000  0.0000  0.0000
 3484OM     OM1 3484   3.507   9.505   8.725  0.0000  0.0000  0.0000
 3485OM     OM1 3485   3.471   0.164   8.684  0.0000  0.0000  0.0000
 3486OM     OM1 3486   2.650   4.884   8.480  0.0000  0.0000  0.0000
 3487OM     OM1 3487   2.449   5.035   8.525  0.0000  0.0000  0.0000
 3488OM     OM1 3488   2.672   5.156   8.475  0.0000  0.0000  0.0000
 3489OM     OM1 3489   2.782   3.833   8.552  0.0000  0.0000  0.0000
 3490OM     OM1 3490   2.689   3.655   8.378  0.0000  0.0000  0.0000
 3491OM     OM1 3491   2.531   3.799   8.514  0.0000  0.0000  0.0000
 3492OM     OM1 3492   0.433   3.240   1.361  0.0000  0.0000  0.0000
 3493OM     OM1 3493   0.535   3.479   1.280  0.0000  0.0000  0.0000
 3494OM     OM1 3494   2.929   4.274   1.205  0.0000  0.0000  0.0000
 3495OM     OM1 3495   3.672   6.381   0.660  0.0000  0.0000  0.0000
 3496OM     OM1 3496   3.663   6.132   0.670  0.0000  0.0000  0.0000
 3497OM     OM1 3497   3.493   6.258   0.823  0.0000  0.0000  0.0000
 3498OM     OM1 3498   3.466   6.255   0.561  0.0000  0.0000  0.0000
 3499OM     OM1 3499   7.591   1.873   1.079  0.0000  0.0000  0.0000
 3500OM     OM1 3500   7.578   1.620   1.158  0.0000  0.0000  0.0000
 3501OM     OM1 3501   7.506   1.677   0.927  0.0000  0.0000  0.0000
 3502OM     OM1 3502   7.767   1.708   0.998  0.0000  0.0000  0.0000
 3503OM     OM1 3503   8.274   7.996   1.028  0.0000  0.0000  0.0000
 3504OM     OM1 3504   8.155   7.789   1.145  0.0000  0.0000  0.0000
 3505OM     OM1 3505   8.257   7.773   0.906  0.0000  0.0000  0.0000
 3506OM     OM1 3506   5.438   2.234   9.591  0.0000  0.0000  0.0000
 3507OM     OM1 3507   5.263   2.052   0.044  0.0000  0.0000  0.0000
 3508OM     OM1 3508   5.196   2.277   9.525  0.0000  0.0000  0.0000
 3509OM     OM1 3509   5.262   2.261   0.186  0.0000  0.0000  0.0000
 3510OM     OM1 3510   7.796   2.884   0.508  0.0000  0.0000  0.0000
 3511OM     OM1 3511   7.568   2.768   0.551  0.0000  0.0000  0.0000
 3512OM     OM1 3512   7.623   2.851   0.305  0.0000  0.0000  0.0000
 3513OM     OM1 3513   7.574   3.021   0.490  0.0000  0.0000  0.0000
 3514OM     OM1 3514   1.372   0.391   0.646  0.0000  0.0000  0.0000
 3515OM     OM1 3515   1.365   0.142   0.555  0.0000  0.0000  0.0000
 3516OM     OM1 3516   7.641   2.825   9.169  0.0000  0.0000  0.0000
 3517OM     OM1 3517   7.744   2.855   9.412  0.0000  0.0000  0.0000
 3518OM     OM1 3518   0.182   8.615   8.400  0.0000  0.0000  0.0000
 3519OM     OM1 3519   0.108   8.864   8.382  0.0000  0.0000  0.0000
 3520OM     OM1 3520   9.553   8.692   8.495  0.0000  0.0000  0.0000
 3521OM     OM1 3521   2.453   7.978   8.552  0.0000  0.0000  0.0000
 3522OM     OM1 3522   2.303   7.782   8.616  0.0000  0.0000  0.0000
 3523OM     OM1 3523   2.558   7.781   8.692  0.0000  0.0000  0.0000
 3524OM     OM1 3524   2.499   7.737   8.446  0.0000  0.0000  0.0000
 3525OM     OM1 3525   4.580   2.679   1.244  0.0000  0.0000  0.0000
 3526OM     OM1 3526   4.741   2.522   1.104  0.0000  0.0000  0.0000
 3527OM     OM1 3527   4.565   2.420   1.260  0.0000  0.0000  0.0000
 3528OM     OM1 3528   8.112   1.336   8.957  0.0000  0.0000  0.0000
 3529OM     OM1 3529   8.344   1.290   8.872  0.0000  0.0000  0.0000
 3530OM     OM1 3530   8.141   1.141   8.784  0.0000  0.0000  0.0000
 3531OM     OM1 3531   7.891   0.536   8.704  0.0000  0.0000  0.0000
 3532OM     OM1 3532   8.076   0.406   8.819  0.0000  0.0000  0.0000
 3533OM     OM1 3533   8.114   0.655   8.804  0.0000  0.0000  0.0000
 3534OM     OM1 3534   7.927   0.591   8.957  0.0000  0.0000  0.0000
 3535OM     OM1 3535   3.237   0.546   8.507  0.0000  0.0000  0.0000
 3536OM     OM1 3536   3.419   0.352   8.519  0.0000  0.0000  0.0000
 3537OM     OM1 3537   3.262   0.378   8.309  0.0000  0.0000  0.0000
 3538OM     OM1 3538   2.252   0.993   0.905  0.0000  0.0000  0.0000
 3539OM     OM1 3539   2.355   0.824   1.082  0.0000  0.0000  0.0000
 3540OM     OM1 3540   2.195   1.016   1.162  0.0000  0.0000  0.0000
 3541OM     OM1 3541   2.426   1.081   1.078  0.0000  0.0000  0.0000
 3542OM     OM1 3542   7.970   0.131   1.115  0.0000  0.0000  0.0000
 3543OM     OM1 3543   7.719   0.113   1.173  0.0000  0.0000  0.0000
 3544OM     OM1 3544   7.814   0.335   1.058  0.0000  0.0000  0.0000
 3545OM     OM1 3545   7.774   0.118   0.925  0.0000  0.0000  0.0000
 3546OM     OM1 3546   6.874   3.780   9.535  0.0000  0.0000  0.0000
 3547OM     OM1 3547   6.692   3.967   9.555  0.0000  0.0000  0.0000
 3548OM     OM1 3548   6.925   3.995   0.079  0.0000  0.0000  0.0000
 3549OM     OM1 3549   8.583   9.127   1.267  0.0000  0.0000  0.0000
 3550OM     OM1 3550   8.475   9.154   1.048  0.0000  0.0000  0.0000
 3551OM     OM1 3551   8.615   9.350   1.112  0.0000  0.0000  0.0000
 3552OM     OM1 3552   8.755   9.150   1.058  0.0000  0.0000  0.0000
 3553OM     OM1 3553   2.010   4.147   9.596  0.0000  0.0000  0.0000
 3554OM     OM1 3554   1.998   4.016   9.376  0.0000  0.0000  0.0000
 3555OM     OM1 3555   0.770   5.998   0.284  0.0000  0.0000  0.0000
 3556OM     OM1 3556   0.961   5.807   0.308  0.0000  0.0000  0.0000
 3557OM     OM1 3557   0.964   5.988   0.117  0.0000  0.0000  0.0000
 3558OM     OM1 3558   0.787   5.795   0.121  0.0000  0.0000  0.0000
 3559OM     OM1 3559   3.914   2.765   1.333  0.0000  0.0000  0.0000
 3560OM     OM1 3560   3.929   3.021   1.318  0.0000  0.0000  0.0000
 3561OM     OM1 3561   3.697   2.917   1.282  0.0000  0.0000  0.0000
 3562OM     OM1 3562   4.230   4.324   9.506  0.0000  0.0000  0.0000
 3563OM     OM1 3563   4.184   3.976   0.014  0.0000  0.0000  0.0000
 3564OM     OM1 3564   4.207   4.196   0.130  0.0000  0.0000  0.0000
 3565OM     OM1 3565   4.440   4.303   0.068  0.0000  0.0000  0.0000
 3566OM     OM1 3566   6.175   7.541   8.459  0.0000  0.0000  0.0000
 3567OM     OM1 3567   6.042   7.743   8.352  0.0000  0.0000  0.0000
 3568OM     OM1 3568   6.048   7.507   8.237  0.0000  0.0000  0.0000
 3569OM     OM1 3569   7.528   6.498   8.259  0.0000  0.0000  0.0000
 3570OM     OM1 3570   7.634   6.747   8.258  0.0000  0.0000  0.0000
 3571OM     OM1 3571   6.176   9.498   8.781  0.0000  0.0000  0.0000
 3572OM     OM1 3572   5.951   9.413   8.659  0.0000  0.0000  0.0000
 3573OM     OM1 3573   5.950   9.524   8.901  0.0000  0.0000  0.0000
 3574OM     OM1 3574   6.041   9.293   8.873  0.0000  0.0000  0.0000
 3575OM     OM1 3575   4.983   0.938   0.290  0.0000  0.0000  0.0000
 3576OM     OM1 3576   5.127   1.145   0.231  0.0000  0.0000  0.0000
 3577OM     OM1 3577   4.434   7.156   8.796  0.0000  0.0000  0.0000
 3578OM     OM1 3578   4.771   7.403   9.003  0.0000  0.0000  0.0000
 3579OM     OM1 3579   4.563   7.289   9.120  0.0000  0.0000  0.0000
 3580OM     OM1 3580   9.191   8.805   9.007  0.0000  0.0000  0.0000
 3581OM     OM1 3581   9.222   8.587   8.866  0.0000  0.0000  0.0000
 3582OM     OM1 3582   9.309   8.583   9.109  0.0000  0.0000  0.0000
 3583OM     OM1 3583   7.144   8.099   0.228  0.0000  0.0000  0.0000
 3584OM     OM1 3584   6.710   5.769   0.412  0.0000  0.0000  0.0000
 3585OM     OM1 3585   6.786   5.753   0.659  0.0000  0.0000  0.0000
 3586OM     OM1 3586   6.961   5.745   0.464  0.0000  0.0000  0.0000
 3587OM     OM1 3587   5.683   1.072   1.029  0.0000  0.0000  0.0000
 3588OM     OM1 3588   5.920   1.063   1.111  0.0000  0.0000  0.0000
 3589OM     OM1 3589   5.946   0.821   1.001  0.0000  0.0000  0.0000
 3590OM     OM1 3590   6.096   1.011   0.913  0.0000  0.0000  0.0000
 3591OM     OM1 3591   4.277   4.356   0.746  0.0000  0.0000  0.0000
 3592OM     OM1 3592   4.091   4.518   0.815  0.0000  0.0000  0.0000
 3593OM     OM1 3593   4.024   4.299   0.690  0.0000  0.0000  0.0000
 3594OM     OM1 3594   4.140   4.496   0.560  0.0000  0.0000  0.0000
 3595OM     OM1 3595   2.484   5.449   1.124  0.0000  0.0000  0.0000
 3596OM     OM1 3596   2.742   5.424   1.093  0.0000  0.0000  0.0000
 3597OM     OM1 3597   2.577   5.227   1.028  0.0000  0.0000  0.0000
 3598OM     OM1 3598   8.707   2.280   9.419  0.0000  0.0000  0.0000
 3599OM     OM1 3599   8.952   2.282   9.550  0.0000  0.0000  0.0000
 3600OM     OM1 3600   8.743   2.163   0.042  0.0000  0.0000  0.0000
 3601OM     OM1 3601   8.743   9.577   8.277  0.0000  0.0000  0.0000
 3602OM     OM1 3602   6.061   3.420   1.207  0.0000  0.0000  0.0000
 3603OM     OM1 3603   5.935   3.186   1.253  0.0000  0.0000  0.0000
 3604OM     OM1 3604   6.182   3.197   1.235  0.0000  0.0000  0.0000
 3605OM     OM1 3605   8.800   8.594   0.088  0.0000  0.0000  0.0000
 3606OM     OM1 3606   8.562   8.556   0.197  0.0000  0.0000  0.0000
 3607OM     OM1 3607   8.659   8.362   0.067  0.0000  0.0000  0.0000
 3608OM     OM1 3608   8.596   8.571   9.544  0.0000  0.0000  0.0000
 3609OM     OM1 3609   7.204   6.775   9.244  0.0000  0.0000  0.0000
 3610OM     OM1 3610   7.034   6.684   9.421  0.0000  0.0000  0.0000
 3611OM     OM1 3611   7.155   6.922   9.454  0.0000  0.0000  0.0000
 3612OM     OM1 3612   7.289   6.701   9.479  0.0000  0.0000  0.0000
 3613OM     OM1 3613   3.795   7.345   0.056  0.0000  0.0000  0.0000
 3614OM     OM1 3614   3.649   7.545   9.592  0.0000  0.0000  0.0000
 3615OM     OM1 3615   3.633   7.448   0.234  0.0000  0.0000  0.0000
 3616OM     OM1 3616   3.538   7.317   0.030  0.0000  0.0000  0.0000
 3617OM     OM1 3617   8.641   3.241   0.316  0.0000  0.0000  0.0000
 3618OM     OM1 3618   8.164   3.225   0.198  0.0000  0.0000  0.0000
 3619OM     OM1 3619   8.373   3.237   0.023  0.0000  0.0000  0.0000
 3620OM     OM1 3620   7.672   4.451   8.657  0.0000  0.0000  0.0000
 3621OM     OM1 3621   7.546   4.525   8.884  0.0000  0.0000  0.0000
 3622OM     OM1 3622   7.576   4.277   8.818  0.0000  0.0000  0.0000
 3623OM     OM1 3623   3.726   4.475   1.076  0.0000  0.0000  0.0000
 3624OM     OM1 3624   3.468   4.525   1.030  0.0000  0.0000  0.0000
 3625OM     OM1 3625   3.228   4.492   1.135  0.0000  0.0000  0.0000
 3626OM     OM1 3626   3.654   4.714   1.045  0.0000  0.0000  0.0000
 3627OM     OM1 3627   2.893   8.233   8.319  0.0000  0.0000  0.0000
 3628OM     OM1 3628   2.690   8.597   8.411  0.0000  0.0000  0.0000
 3629OM     OM1 3629   5.328   3.403   0.077  0.0000  0.0000  0.0000
 3630OM     OM1 3630   5.337   3.150   0.107  0.0000  0.0000  0.0000
 3631OM     OM1 3631   5.463   3.597   9.583  0.0000  0.0000  0.0000
 3632OM     OM1 3632   0.230   5.480   8.525  0.0000  0.0000  0.0000
 3633OM     OM1 3633   0.189   5.259   8.412  0.0000  0.0000  0.0000
 3634OM     OM1 3634   0.249   5.260   8.676  0.0000  0.0000  0.0000
 3635OM     OM1 3635   0.024   5.398   8.276  0.0000  0.0000  0.0000
 3636OM     OM1 3636   0.315   0.356   0.301  0.0000  0.0000  0.0000
 3637OM     OM1 3637   0.461   0.534   0.432  0.0000  0.0000  0.0000
 3638OM     OM1 3638   9.325   4.412   0.741  0.0000  0.0000  0.0000
 3639OM     OM1 3639   9.580   4.408   0.796  0.0000  0.0000  0.0000
 3640OM     OM1 3640   9.437   4.206   0.856  0.0000  0.0000  0.0000
 3641OM     OM1 3641   9.481   4.251   0.604  0.0000  0.0000  0.0000
 3642OM     OM1 3642   0.367   1.396   1.195  0.0000  0.0000  0.0000
 3643OM     OM1 3643   0.576   1.232   1.191  0.0000  0.0000  0.0000
 3644OM     OM1 3644   7.654   3.360   1.305  0.0000  0.0000  0.0000
 3645OM     OM1 3645   7.636   3.604   1.422  0.0000  0.0000  0.0000
 3646OM     OM1 3646   4.928   4.236   0.012  0.0000  0.0000  0.0000
 3647OM     OM1 3647   4.842   4.158   0.240  0.0000  0.0000  0.0000
 3648OM     OM1 3648   4.703   4.339   0.103  0.0000  0.0000  0.0000
 3649OM     OM1 3649   2.746   6.360   9.582  0.0000  0.0000  0.0000
 3650OM     OM1 3650   2.794   6.148   9.421  0.0000  0.0000  0.0000
 3651OM     OM1 3651   4.651   7.011   0.222  0.0000  0.0000  0.0000
 3652OM     OM1 3652   4.607   7.007   0.475  0.0000  0.0000  0.0000
 3653OM     OM1 3653   4.415   6.933   0.322  0.0000  0.0000  0.0000
 3654OM     OM1 3654   6.001   7.365   9.108  0.0000  0.0000  0.0000
 3655OM     OM1 3655   5.828   7.693   9.453  0.0000  0.0000  0.0000
 3656OM     OM1 3656   5.935   7.592   9.004  0.0000  0.0000  0.0000
 3657OM     OM1 3657   5.869   7.538   9.244  0.0000  0.0000  0.0000
 3658OM     OM1 3658   7.127   4.451   9.420  0.0000  0.0000  0.0000
 3659OM     OM1 3659   7.165   4.373   9.172  0.0000  0.0000  0.0000
 3660OM     OM1 3660   7.309   4.273   9.352  0.0000  0.0000  0.0000
 3661OM     OM1 3661   7.324   3.971   9.058  0.0000  0.0000  0.0000
 3662OM     OM1 3662   7.426   4.071   8.835  0.0000  0.0000  0.0000
 3663OM     OM1 3663   7.286   4.223   8.996  0.0000  0.0000  0.0000
 3664OM     OM1 3664   3.515   7.306   9.220  0.0000  0.0000  0.0000
 3665OM     OM1 3665   3.376   7.267   9.434  0.0000  0.0000  0.0000
 3666OM     OM1 3666   3.253   7.358   9.222  0.0000  0.0000  0.0000
 3667OM     OM1 3667   3.350   7.106   9.231  0.0000  0.0000  0.0000
 3668OM     OM1 3668   9.306   1.015   1.020  0.0000  0.0000  0.0000
 3669OM     OM1 3669   9.346   1.235   0.896  0.0000  0.0000  0.0000
 3670OM     OM1 3670   9.132   1.107   0.838  0.0000  0.0000  0.0000
 3671OM     OM1 3671   9.152   1.233   1.063  0.0000  0.0000  0.0000
 3672OM     OM1 3672   2.693   4.324   0.482  0.0000  0.0000  0.0000
 3673OM     OM1 3673   2.596   4.128   0.337  0.0000  0.0000  0.0000
 3674OM     OM1 3674   2.694   4.078   0.575  0.0000  0.0000  0.0000
 3675OM     OM1 3675   2.845   4.155   0.363  0.0000  0.0000  0.0000
 3676OM     OM1 3676   7.559   9.266   1.342  0.0000  0.0000  0.0000
 3677OM     OM1 3677   7.583   9.003   1.304  0.0000  0.0000  0.0000
 3678OM     OM1 3678   8.179   1.808   8.569  0.0000  0.0000  0.0000
 3679OM     OM1 3679   8.347   1.983   8.493  0.0000  0.0000  0.0000
 3680OM     OM1 3680   8.171   2.044   8.678  0.0000  0.0000  0.0000
 3681OM     OM1 3681   3.411   1.369   8.940  0.0000  0.0000  0.0000
 3682OM     OM1 3682   3.368   1.325   9.194  0.0000  0.0000  0.0000
 3683OM     OM1 3683   8.911   0.934   9.127  0.0000  0.0000  0.0000
 3684OM     OM1 3684   8.666   0.864   9.236  0.0000  0.0000  0.0000
 3685OM     OM1 3685   8.720   1.101   9.156  0.0000  0.0000  0.0000
 3686OM     OM1 3686   8.434   2.318   1.159  0.0000  0.0000  0.0000
 3687OM     OM1 3687   8.417   2.285   0.896  0.0000  0.0000  0.0000
 3688OM     OM1 3688   2.577   1.909   8.687  0.0000  0.0000  0.0000
 3689OM     OM1 3689   2.728   1.803   8.870  0.0000  0.0000  0.0000
 3690OM     OM1 3690   2.744   1.706   8.630  0.0000  0.0000  0.0000
 3691OM     OM1 3691   6.406   4.490   0.347  0.0000  0.0000  0.0000
 3692OM     OM1 3692   6.625   4.633   0.389  0.0000  0.0000  0.0000
 3693OM     OM1 3693   6.635   4.419   0.236  0.0000  0.0000  0.0000
 3694OM     OM1 3694   9.546   1.582   0.006  0.0000  0.0000  0.0000
 3695OM     OM1 3695   0.003   1.492   0.248  0.0000  0.0000  0.0000
 3696OM     OM1 3696   0.070   1.728   0.164  0.0000  0.0000  0.0000
 3697OM     OM1 3697   9.423   1.687   0.216  0.0000  0.0000  0.0000
 3698OM     OM1 3698   9.386   5.642   0.686  0.0000  0.0000  0.0000
 3699OM     OM1 3699   9.451   5.543   0.449  0.0000  0.0000  0.0000
 3700OM     OM1 3700   9.582   5.743   0.538  0.0000  0.0000  0.0000
 3701OM     OM1 3701   9.321   5.766   0.479  0.0000  0.0000  0.0000
 3702OM     OM1 3702   4.958   6.414   8.971  0.0000  0.0000  0.0000
 3703OM     OM1 3703   4.843   6.620   9.116  0.0000  0.0000  0.0000
 3704OM     OM1 3704   0.242   4.217   9.370  0.0000  0.0000  0.0000
 3705OM     OM1 3705   0.480   4.102   9.310  0.0000  0.0000  0.0000
 3706OM     OM1 3706   0.275   3.955   9.386  0.0000  0.0000  0.0000
 3707OM     OM1 3707   0.405   4.122   9.548  0.0000  0.0000  0.0000
 3708OM     OM1 3708   8.748   5.770   0.711  0.0000  0.0000  0.0000
 3709OM     OM1 3709   8.671   5.551   0.804  0.0000  0.0000  0.0000
 3710OM     OM1 3710   8.642   5.626   1.049  0.0000  0.0000  0.0000
 3711OM     OM1 3711   8.482   5.434   0.929  0.0000  0.0000  0.0000
 3712OM     OM1 3712   2.482   0.247   0.768  0.0000  0.0000  0.0000
 3713OM     OM1 3713   2.248   0.298   0.674  0.0000  0.0000  0.0000
 3714OM     OM1 3714   2.553   0.105   0.975  0.0000  0.0000  0.0000
 3715OM     OM1 3715   2.405   0.163   0.526  0.0000  0.0000  0.0000
 3716OM     OM1 3716   1.717   2.208   0.810  0.0000  0.0000  0.0000
 3717OM     OM1 3717   1.616   1.997   0.933  0.0000  0.0000  0.0000
 3718OM     OM1 3718   1.612   2.007   0.680  0.0000  0.0000  0.0000
 3719OM     OM1 3719   1.459   2.176   0.824  0.0000  0.0000  0.0000
 3720OM     OM1 3720   5.381   8.268   9.602  0.0000  0.0000  0.0000
 3721OM     OM1 3721   5.596   8.380   0.092  0.0000  0.0000  0.0000
 3722OM     OM1 3722   5.497   8.185   0.226  0.0000  0.0000  0.0000
 3723OM     OM1 3723   5.850   4.032   9.488  0.0000  0.0000  0.0000
 3724OM     OM1 3724   5.712   4.256   9.544  0.0000  0.0000  0.0000
 3725OM     OM1 3725   5.971   4.241   9.560  0.0000  0.0000  0.0000
 3726OM     OM1 3726   0.403   2.787   0.951  0.0000  0.0000  0.0000
 3727OM     OM1 3727   0.312   2.699   1.174  0.0000  0.0000  0.0000
 3728OM     OM1 3728   6.478   6.311   9.586  0.0000  0.0000  0.0000
 3729OM     OM1 3729   6.544   6.566   9.519  0.0000  0.0000  0.0000
 3730OM     OM1 3730   6.497   6.125   0.158  0.0000  0.0000  0.0000
 3731OM     OM1 3731   6.561   6.080   9.519  0.0000  0.0000  0.0000
 3732OM     OM1 3732   6.484   1.483   0.948  0.0000  0.0000  0.0000
 3733OM     OM1 3733   6.547   1.737   0.984  0.0000  0.0000  0.0000
 3734OM     OM1 3734   6.323   1.669   0.875  0.0000  0.0000  0.0000
 3735OM     OM1 3735   6.371   1.639   1.138  0.0000  0.0000  0.0000
 3736OM     OM1 3736   3.186   6.964   8.255  0.0000  0.0000  0.0000
 3737OM     OM1 3737   3.280   6.827   8.442  0.0000  0.0000  0.0000
 3738OM     OM1 3738   5.378   8.966   1.274  0.0000  0.0000  0.0000
 3739OM     OM1 3739   5.403   9.078   1.055  0.0000  0.0000  0.0000
 3740OM     OM1 3740   5.146   8.966   1.170  0.0000  0.0000  0.0000
 3741OM     OM1 3741   8.070   4.402   0.622  0.0000  0.0000  0.0000
 3742OM     OM1 3742   8.218   4.213   0.524  0.0000  0.0000  0.0000
 3743OM     OM1 3743   8.228   4.453   0.427  0.0000  0.0000  0.0000
 3744OM     OM1 3744   8.020   4.306   0.380  0.0000  0.0000  0.0000
 3745OM     OM1 3745   6.441   4.054   8.954  0.0000  0.0000  0.0000
 3746OM     OM1 3746   6.505   4.032   8.702  0.0000  0.0000  0.0000
 3747OM     OM1 3747   6.562   3.846   8.882  0.0000  0.0000  0.0000
 3748OM     OM1 3748   6.315   3.875   8.807  0.0000  0.0000  0.0000
 3749OM     OM1 3749   4.666   2.688   8.625  0.0000  0.0000  0.0000
 3750OM     OM1 3750   4.520   2.888   8.753  0.0000  0.0000  0.0000
 3751OM     OM1 3751   5.180   4.093   8.457  0.0000  0.0000  0.0000
 3752OM     OM1 3752   4.923   4.126   8.451  0.0000  0.0000  0.0000
 3753OM     OM1 3753   5.042   4.124   8.677  0.0000  0.0000  0.0000
 3754OM     OM1 3754   5.085   4.330   8.516  0.0000  0.0000  0.0000
 3755OM     OM1 3755   9.381   2.641   0.435  0.0000  0.0000  0.0000
 3756OM     OM1 3756   9.247   2.418   0.363  0.0000  0.0000  0.0000
 3757OM     OM1 3757   9.211   2.521   0.599  0.0000  0.0000  0.0000
 3758OM     OM1 3758   9.438   2.419   0.551  0.0000  0.0000  0.0000
 3759OM     OM1 3759   1.359   9.198   0.372  0.0000  0.0000  0.0000
 3760OM     OM1 3760   1.350   8.864   0.211  0.0000  0.0000  0.0000
 3761OM     OM1 3761   1.403   8.996   9.604  0.0000  0.0000  0.0000
 3762OM     OM1 3762   8.998   1.642   0.831  0.0000  0.0000  0.0000
 3763OM     OM1 3763   8.998   1.401   0.932  0.0000  0.0000  0.0000
 3764OM     OM1 3764   2.654   3.690   9.547  0.0000  0.0000  0.0000
 3765OM     OM1 3765   2.732   3.617   0.180  0.0000  0.0000  0.0000
 3766OM     OM1 3766   4.017   3.842   8.806  0.0000  0.0000  0.0000
 3767OM     OM1 3767   4.203   4.017   8.876  0.0000  0.0000  0.0000
 3768OM     OM1 3768   4.263   3.764   8.813  0.0000  0.0000  0.0000
 3769OM     OM1 3769   4.184   3.942   8.634  0.0000  0.0000  0.0000
 3770OM     OM1 3770   7.345   5.705   9.154  0.0000  0.0000  0.0000
 3771OM     OM1 3771   2.109   8.040   1.297  0.0000  0.0000  0.0000
 3772OM     OM1 3772   1.865   8.104   1.232  0.0000  0.0000  0.0000
 3773OM     OM1 3773   9.175   6.865   1.186  0.0000  0.0000  0.0000
 3774OM     OM1 3774   9.347   6.878   0.996  0.0000  0.0000  0.0000
 3775OM     OM1 3775   9.339   6.659   1.140  0.0000  0.0000  0.0000
 3776OM     OM1 3776   7.322   5.789   8.358  0.0000  0.0000  0.0000
 3777OM     OM1 3777   7.447   5.692   8.567  0.0000  0.0000  0.0000
 3778OM     OM1 3778   7.463   5.947   8.531  0.0000  0.0000  0.0000
 3779OM     OM1 3779   7.590   5.786   8.379  0.0000  0.0000  0.0000
 3780OM     OM1 3780   8.554   5.989   0.395  0.0000  0.0000  0.0000
 3781OM     OM1 3781   8.563   5.882   0.148  0.0000  0.0000  0.0000
 3782OM     OM1 3782   8.604   5.747   0.357  0.0000  0.0000  0.0000
 3783OM     OM1 3783   8.360   5.862   0.330  0.0000  0.0000  0.0000
 3784OM     OM1 3784   5.031   8.772   0.952  0.0000  0.0000  0.0000
 3785OM     OM1 3785   5.021   8.838   0.704  0.0000  0.0000  0.0000
 3786OM     OM1 3786   4.928   9.000   0.890  0.0000  0.0000  0.0000
 3787OM     OM1 3787   6.952   7.277   0.585  0.0000  0.0000  0.0000
 3788OM     OM1 3788   6.702   7.231   0.544  0.0000  0.0000  0.0000
 3789OM     OM1 3789   6.785   7.347   0.772  0.0000  0.0000  0.0000
 3790OM     OM1 3790   2.344   9.335   0.328  0.0000  0.0000  0.0000
 3791OM     OM1 3791   2.261   9.564   0.433  0.0000  0.0000  0.0000
 3792OM     OM1 3792   2.110   9.424   0.289  0.0000  0.0000  0.0000
 3793OM     OM1 3793   2.915   8.316   8.795  0.0000  0.0000  0.0000
 3794OM     OM1 3794   2.682   8.316   8.675  0.0000  0.0000  0.0000
 3795OM     OM1 3795   2.775   8.103   8.782  0.0000  0.0000  0.0000
 3796OM     OM1 3796   2.701   8.334   8.929  0.0000  0.0000  0.0000
 3797OM     OM1 3797   2.625   6.555   0.411  0.0000  0.0000  0.0000
 3798OM     OM1 3798   2.824   6.391   0.390  0.0000  0.0000  0.0000
 3799OM     OM1 3799   2.766   6.528   0.178  0.0000  0.0000  0.0000
 3800OM     OM1 3800   2.606   6.343   0.258  0.0000  0.0000  0.0000
 3801OM     OM1 3801   1.738   4.324   0.671  0.0000  0.0000  0.0000
 3802OM     OM1 3802   1.496   4.277   0.759  0.0000  0.0000  0.0000
 3803OM     OM1 3803   1.569   4.517   0.674  0.0000  0.0000  0.0000
 3804OM     OM1 3804   1.662   4.422   0.894  0.0000  0.0000  0.0000
 3805OM     OM1 3805   6.780   7.474   0.542  0.0000  0.0000  0.0000
 3806OM     OM1 3806   6.490   7.316   0.660  0.0000  0.0000  0.0000
 3807OM     OM1 3807   6.459   7.112   0.505  0.0000  0.0000  0.0000
 3808OM     OM1 3808   9.323   1.561   8.987  0.0000  0.0000  0.0000
 3809OM     OM1 3809   9.215   1.804   8.964  0.0000  0.0000  0.0000
 3810OM     OM1 3810   9.478   1.764   8.971  0.0000  0.0000  0.0000
 3811OM     OM1 3811   9.326   1.730   9.183  0.0000  0.0000  0.0000
 3812OM     OM1 3812   1.189   1.890   9.198  0.0000  0.0000  0.0000
 3813OM     OM1 3813   1.043   1.595   9.487  0.0000  0.0000  0.0000
 3814OM     OM1 3814   1.303   1.645   9.466  0.0000  0.0000  0.0000
 3815OM     OM1 3815   1.140   1.839   9.447  0.0000  0.0000  0.0000
 3816OM     OM1 3816   4.692   5.773   8.963  0.0000  0.0000  0.0000
 3817OM     OM1 3817   4.472   5.718   9.077  0.0000  0.0000  0.0000
 3818OM     OM1 3818   4.659   5.834   9.218  0.0000  0.0000  0.0000
 3819OM     OM1 3819   7.875   1.574   9.526  0.0000  0.0000  0.0000
 3820OM     OM1 3820   7.897   1.764   9.332  0.0000  0.0000  0.0000
 3821OM     OM1 3821   7.796   1.539   9.282  0.0000  0.0000  0.0000
 3822OM     OM1 3822   7.665   1.715   9.430  0.0000  0.0000  0.0000
 3823OM     OM1 3823   9.344   0.776   0.813  0.0000  0.0000  0.0000
 3824OM     OM1 3824   9.439   0.819   0.581  0.0000  0.0000  0.0000
 3825OM     OM1 3825   9.182   0.762   0.604  0.0000  0.0000  0.0000
 3826OM     OM1 3826   1.507   9.592   0.398  0.0000  0.0000  0.0000
 3827OM     OM1 3827   1.703   9.424   0.380  0.0000  0.0000  0.0000
 3828OM     OM1 3828   1.717   0.048   0.251  0.0000  0.0000  0.0000
 3829OM     OM1 3829   7.395   3.095   0.311  0.0000  0.0000  0.0000
 3830OM     OM1 3830   7.466   3.099   0.066  0.0000  0.0000  0.0000
 3831OM     OM1 3831   7.222   3.042   0.102  0.0000  0.0000  0.0000
 3832OM     OM1 3832   8.250   7.981   8.362  0.0000  0.0000  0.0000
 3833OM     OM1 3833   8.232   8.104   8.726  0.0000  0.0000  0.0000
 3834OM     OM1 3834   8.289   7.729   8.341  0.0000  0.0000  0.0000
 3835OM     OM1 3835   8.313   1.926   8.861  0.0000  0.0000  0.0000
 3836OM     OM1 3836   8.494   1.724   8.883  0.0000  0.0000  0.0000
 3837OM     OM1 3837   8.341   1.787   9.075  0.0000  0.0000  0.0000
 3838OM     OM1 3838   6.751   9.564   0.589  0.0000  0.0000  0.0000
 3839OM     OM1 3839   7.010   9.596   0.600  0.0000  0.0000  0.0000
 3840OM     OM1 3840   6.883   9.590   0.366  0.0000  0.0000  0.0000
 3841OM     OM1 3841   6.911   9.377   0.496  0.0000  0.0000  0.0000
 3842OM     OM1 3842   9.167   9.222   8.994  0.0000  0.0000  0.0000
 3843OM     OM1 3843   9.271   9.084   8.810  0.0000  0.0000  0.0000
 3844OM     OM1 3844   9.010   9.125   8.804  0.0000  0.0000  0.0000
 3845OM     OM1 3845   0.822   8.141   8.295  0.0000  0.0000  0.0000
 3846OM     OM1 3846   0.803   8.017   8.518  0.0000  0.0000  0.0000
 3847OM     OM1 3847   0.618   8.214   8.443  0.0000  0.0000  0.0000
 3848OM     OM1 3848   0.856   8.259   8.526  0.0000  0.0000  0.0000
 3849OM     OM1 3849   1.203   6.617   9.488  0.0000  0.0000  0.0000
 3850OM     OM1 3850   0.976   6.555   9.385  0.0000  0.0000  0.0000
 3851OM     OM1 3851   1.031   6.467   0.014  0.0000  0.0000  0.0000
 3852OM     OM1 3852   0.970   3.420   0.818  0.0000  0.0000  0.0000
 3853OM     OM1 3853   1.137   3.474   0.636  0.0000  0.0000  0.0000
 3854OM     OM1 3854   1.197   3.544   0.880  0.0000  0.0000  0.0000
 3855OM     OM1 3855   7.895   3.822   0.202  0.0000  0.0000  0.0000
 3856OM     OM1 3856   7.918   3.599   0.337  0.0000  0.0000  0.0000
 3857OM     OM1 3857   8.060   3.803   0.406  0.0000  0.0000  0.0000
 3858OM     OM1 3858   8.106   3.670   0.176  0.0000  0.0000  0.0000
 3859OM     OM1 3859   6.316   4.850   9.478  0.0000  0.0000  0.0000
 3860OM     OM1 3860   6.146   4.787   0.065  0.0000  0.0000  0.0000
 3861OM     OM1 3861   6.104   4.719   9.427  0.0000  0.0000  0.0000
 3862OM     OM1 3862   6.079   4.970   9.494  0.0000  0.0000  0.0000
 3863OM     OM1 3863   2.352   8.196   0.084  0.0000  0.0000  0.0000
 3864OM     OM1 3864   2.141   8.345   0.089  0.0000  0.0000  0.0000
 3865OM     OM1 3865   2.254   8.256   0.315  0.0000  0.0000  0.0000
 3866OM     OM1 3866   2.369   8.437   0.173  0.0000  0.0000  0.0000
 3867OM     OM1 3867   2.555   6.797   0.388  0.0000  0.0000  0.0000
 3868OM     OM1 3868   2.351   6.873   0.250  0.0000  0.0000  0.0000
 3869OM     OM1 3869   4.292   3.939   9.375  0.0000  0.0000  0.0000
 3870OM     OM1 3870   6.634   7.682   0.441  0.0000  0.0000  0.0000
 3871OM     OM1 3871   6.780   7.533   0.288  0.0000  0.0000  0.0000
 3872OM     OM1 3872   6.886   7.691   0.449  0.0000  0.0000  0.0000
 3873OM     OM1 3873   5.069   0.834   9.519  0.0000  0.0000  0.0000
 3874OM     OM1 3874   4.811   0.819   9.436  0.0000  0.0000  0.0000
 3875OM     OM1 3875   4.957   1.025   9.404  0.0000  0.0000  0.0000
 3876OM     OM1 3876   4.877   0.940   0.051  0.0000  0.0000  0.0000
 3877OM     OM1 3877   9.415   8.482   8.427  0.0000  0.0000  0.0000
 3878OM     OM1 3878   9.175   8.384   8.364  0.0000  0.0000  0.0000
 3879OM     OM1 3879   7.694   4.636   1.191  0.0000  0.0000  0.0000
 3880OM     OM1 3880   7.461   4.739   1.242  0.0000  0.0000  0.0000
 3881OM     OM1 3881   7.645   4.895   1.144  0.0000  0.0000  0.0000
 3882OM     OM1 3882   5.631   0.052   8.686  0.0000  0.0000  0.0000
 3883OM     OM1 3883   5.450   9.489   8.590  0.0000  0.0000  0.0000
 3884OM     OM1 3884   5.718   9.456   8.545  0.0000  0.0000  0.0000
 3885OM     OM1 3885   5.575   0.036   8.430  0.0000  0.0000  0.0000
 3886OM     OM1 3886   7.197   3.808   9.216  0.0000  0.0000  0.0000
 3887OM     OM1 3887   6.973   3.800   9.094  0.0000  0.0000  0.0000
 3888OM     OM1 3888   6.999   3.676   9.326  0.0000  0.0000  0.0000
 3889OM     OM1 3889   4.444   3.424   0.097  0.0000  0.0000  0.0000
 3890OM     OM1 3890   4.506   3.423   9.454  0.0000  0.0000  0.0000
 3891OM     OM1 3891   4.316   3.253   9.529  0.0000  0.0000  0.0000
 3892OM     OM1 3892   5.079   7.861   0.822  0.0000  0.0000  0.0000
 3893OM     OM1 3893   4.971   8.016   1.013  0.0000  0.0000  0.0000
 3894OM     OM1 3894   4.819   7.895   0.837  0.0000  0.0000  0.0000
 3895OM     OM1 3895   4.728   9.359   9.119  0.0000  0.0000  0.0000
 3896OM     OM1 3896   4.941   9.264   9.241  0.0000  0.0000  0.0000
 3897OM     OM1 3897   4.725   9.304   9.373  0.0000  0.0000  0.0000
 3898OM     OM1 3898   4.742   9.101   9.210  0.0000  0.0000  0.0000
 3899OM     OM1 3899   2.266   8.550   1.093  0.0000  0.0000  0.0000
 3900OM     OM1 3900   2.404   8.489   0.878  0.0000  0.0000  0.0000
 3901OM     OM1 3901   2.429   8.347   1.084  0.0000  0.0000  0.0000
 3902OM     OM1 3902   3.331   8.165   1.053  0.0000  0.0000  0.0000
 3903OM     OM1 3903   3.530   8.250   0.922  0.0000  0.0000  0.0000
 3904OM     OM1 3904   3.538   8.219   1.190  0.0000  0.0000  0.0000
 3905OM     OM1 3905   3.546   8.012   1.031  0.0000  0.0000  0.0000
 3906OM     OM1 3906   2.718   5.231   0.537  0.0000  0.0000  0.0000
 3907OM     OM1 3907   2.878   5.400   0.424  0.0000  0.0000  0.0000
 3908OM     OM1 3908   2.944   5.281   0.648  0.0000  0.0000  0.0000
 3909OM     OM1 3909   2.767   5.476   0.638  0.0000  0.0000  0.0000
 3910OM     OM1 3910   8.803   2.138   0.293  0.0000  0.0000  0.0000
 3911OM     OM1 3911   8.649   2.337   0.204  0.0000  0.0000  0.0000
 3912OM     OM1 3912   8.553   2.093   0.201  0.0000  0.0000  0.0000
 3913OM     OM1 3913   5.137   4.495   8.707  0.0000  0.0000  0.0000
 3914OM     OM1 3914   5.089   4.597   8.476  0.0000  0.0000  0.0000
 3915OM     OM1 3915   8.431   4.910   8.969  0.0000  0.0000  0.0000
 3916OM     OM1 3916   8.270   5.078   8.848  0.0000  0.0000  0.0000
 3917OM     OM1 3917   8.490   5.165   8.963  0.0000  0.0000  0.0000
 3918OM     OM1 3918   8.505   5.021   8.745  0.0000  0.0000  0.0000
 3919OM     OM1 3919   5.220   0.223   0.967  0.0000  0.0000  0.0000
 3920OM     OM1 3920   5.230   0.385   0.764  0.0000  0.0000  0.0000
 3921OM     OM1 3921   4.979   0.361   0.732  0.0000  0.0000  0.0000
 3922OM     OM1 3922   3.372   6.915   1.340  0.0000  0.0000  0.0000
 3923OM     OM1 3923   3.545   6.806   1.186  0.0000  0.0000  0.0000
 3924OM     OM1 3924   0.072   3.903   9.229  0.0000  0.0000  0.0000
 3925OM     OM1 3925   0.298   3.916   9.133  0.0000  0.0000  0.0000
 3926OM     OM1 3926   0.250   3.705   9.273  0.0000  0.0000  0.0000
 3927OM     OM1 3927   2.707   2.448   8.463  0.0000  0.0000  0.0000
 3928OM     OM1 3928   2.585   2.617   8.606  0.0000  0.0000  0.0000
 3929OM     OM1 3929   4.084   8.749   1.164  0.0000  0.0000  0.0000
 3930OM     OM1 3930   4.319   8.642   1.247  0.0000  0.0000  0.0000
 3931OM     OM1 3931   8.887   3.171   0.085  0.0000  0.0000  0.0000
 3932OM     OM1 3932   9.050   2.965   0.129  0.0000  0.0000  0.0000
 3933OM     OM1 3933   8.778   2.947   0.137  0.0000  0.0000  0.0000
 3934OM     OM1 3934   8.922   2.978   9.521  0.0000  0.0000  0.0000
 3935OM     OM1 3935   0.573   3.033   1.278  0.0000  0.0000  0.0000
 3936OM     OM1 3936   0.799   2.984   1.172  0.0000  0.0000  0.0000
 3937OM     OM1 3937   3.598   6.097   9.515  0.0000  0.0000  0.0000
 3938OM     OM1 3938   3.680   5.903   0.074  0.0000  0.0000  0.0000
 3939OM     OM1 3939   1.606   9.166   1.056  0.0000  0.0000  0.0000
 3940OM     OM1 3940   1.723   9.033   0.869  0.0000  0.0000  0.0000
 3941OM     OM1 3941   1.476   9.090   0.837  0.0000  0.0000  0.0000
 3942OM     OM1 3942   1.668   9.282   0.837  0.0000  0.0000  0.0000
 3943OM     OM1 3943   1.977   3.226   9.003  0.0000  0.0000  0.0000
 3944OM     OM1 3944   1.788   3.287   8.828  0.0000  0.0000  0.0000
 3945OM     OM1 3945   1.884   3.468   8.971  0.0000  0.0000  0.0000
 3946OM     OM1 3946   5.803   8.482   8.488  0.0000  0.0000  0.0000
 3947OM     OM1 3947   0.342   3.261   9.517  0.0000  0.0000  0.0000
 3948OM     OM1 3948   0.166   3.109   0.029  0.0000  0.0000  0.0000
 3949OM     OM1 3949   0.339   3.002   9.474  0.0000  0.0000  0.0000
 3950OM     OM1 3950   7.784   5.980   0.370  0.0000  0.0000  0.0000
 3951OM     OM1 3951   7.742   6.214   0.470  0.0000  0.0000  0.0000
 3952OM     OM1 3952   7.671   6.000   0.610  0.0000  0.0000  0.0000
 3953OM     OM1 3953   7.920   6.059   0.583  0.0000  0.0000  0.0000
 3954OM     OM1 3954   2.891   0.229   1.039  0.0000  0.0000  0.0000
 3955OM     OM1 3955   2.779   0.011   0.923  0.0000  0.0000  0.0000
 3956OM     OM1 3956   2.760   0.286   1.246  0.0000  0.0000  0.0000
 3957OM     OM1 3957   2.726   0.241   0.855  0.0000  0.0000  0.0000
 3958OM     OM1 3958   8.882   1.114   0.771  0.0000  0.0000  0.0000
 3959OM     OM1 3959   9.049   0.977   0.626  0.0000  0.0000  0.0000
 3960OM     OM1 3960   2.077   0.577   0.325  0.0000  0.0000  0.0000
 3961OM     OM1 3961   2.038   0.600   0.076  0.0000  0.0000  0.0000
 3962OM     OM1 3962   6.567   7.082   0.225  0.0000  0.0000  0.0000
 3963OM     OM1 3963   6.395   7.017   0.051  0.0000  0.0000  0.0000
 3964OM     OM1 3964   6.382   7.254   0.159  0.0000  0.0000  0.0000
 3965OM     OM1 3965   6.313   7.052   0.306  0.0000  0.0000  0.0000
 3966OM     OM1 3966   5.560   2.362   9.401  0.0000  0.0000  0.0000
 3967OM     OM1 3967   5.691   2.585   9.364  0.0000  0.0000  0.0000
 3968OM     OM1 3968   5.434   2.572   9.484  0.0000  0.0000  0.0000
 3969OM     OM1 3969   5.472   2.537   9.240  0.0000  0.0000  0.0000
 3970OM     OM1 3970   5.446   2.419   8.701  0.0000  0.0000  0.0000
 3971OM     OM1 3971   5.373   2.173   8.609  0.0000  0.0000  0.0000
 3972OM     OM1 3972   5.186   2.291   9.012  0.0000  0.0000  0.0000
 3973OM     OM1 3973   0.481   6.254   8.663  0.0000  0.0000  0.0000
 3974OM     OM1 3974   0.444   6.182   8.417  0.0000  0.0000  0.0000
 3975OM     OM1 3975   0.689   6.177   8.538  0.0000  0.0000  0.0000
 3976OM     OM1 3976   0.592   6.390   8.449  0.0000  0.0000  0.0000
 3977OM     OM1 3977   5.079   9.472   9.177  0.0000  0.0000  0.0000
 3978OM     OM1 3978   5.103   0.045   8.988  0.0000  0.0000  0.0000
 3979OM     OM1 3979   8.346   8.699   0.226  0.0000  0.0000  0.0000
 3980OM     OM1 3980   8.166   8.511   0.176  0.0000  0.0000  0.0000
 3981OM     OM1 3981   8.106   8.767   0.127  0.0000  0.0000  0.0000
 3982OM     OM1 3982   3.530   7.809   0.872  0.0000  0.0000  0.0000
 3983OM     OM1 3983   3.649   7.786   1.106  0.0000  0.0000  0.0000
 3984OM     OM1 3984   3.767   7.917   0.916  0.0000  0.0000  0.0000
 3985OM     OM1 3985   0.407   5.046   0.336  0.0000  0.0000  0.0000
 3986OM     OM1 3986   0.190   4.941   0.221  0.0000  0.0000  0.0000
 3987OM     OM1 3987   0.423   4.897   0.129  0.0000  0.0000  0.0000
 3988OM     OM1 3988   0.336   4.806   0.381  0.0000  0.0000  0.0000
 3989OM     OM1 3989   7.352   1.958   9.109  0.0000  0.0000  0.0000
 3990OM     OM1 3990   7.343   2.126   9.303  0.0000  0.0000  0.0000
 3991OM     OM1 3991   7.147   1.926   9.268  0.0000  0.0000  0.0000
 3992OM     OM1 3992   7.155   2.137   9.128  0.0000  0.0000  0.0000
 3993OM     OM1 3993   4.012   8.183   8.450  0.0000  0.0000  0.0000
 3994OM     OM1 3994   3.872   8.048   8.627  0.0000  0.0000  0.0000
 3995OM     OM1 3995   4.102   7.960   8.545  0.0000  0.0000  0.0000
 3996OM     OM1 3996   4.080   8.177   8.704  0.0000  0.0000  0.0000
 3997OM     OM1 3997   3.999   2.829   9.156  0.0000  0.0000  0.0000
 3998OM     OM1 3998   4.004   2.905   8.917  0.0000  0.0000  0.0000
 3999OM     OM1 3999   3.966   3.096   9.075  0.0000  0.0000  0.0000
 4000OM     OM1 4000   1.270   4.719   0.841  0.0000  0.0000  0.0000
 4001OM     OM1 4001   1.039   4.812   0.899  0.0000  0.0000  0.0000
 4002OM     OM1 4002   1.061   4.675   0.682  0.0000  0.0000  0.0000
 4003OM     OM1 4003   7.505   4.059   0.582  0.0000  0.0000  0.0000
 4004OM     OM1 4004   7.356   3.854   0.655  0.0000  0.0000  0.0000
 4005OM     OM1 4005   7.286   6.515   0.694  0.0000  0.0000  0.0000
 4006OM     OM1 4006   7.051   6.421   0.657  0.0000  0.0000  0.0000
 4007OM     OM1 4007   7.240   6.251   0.703  0.0000  0.0000  0.0000
 4008OM     OM1 4008   7.143   6.427   0.890  0.0000  0.0000  0.0000
 4009OM     OM1 4009   5.089   9.570   0.469  0.0000  0.0000  0.0000
 4010OM     OM1 4010   5.181   9.424   0.670  0.0000  0.0000  0.0000
 4011OM     OM1 4011   5.264   9.395   0.409  0.0000  0.0000  0.0000
 4012OM     OM1 4012   5.236   1.979   8.728  0.0000  0.0000  0.0000
 4013OM     OM1 4013   5.318   1.942   8.497  0.0000  0.0000  0.0000
 4014OM     OM1 4014   2.765   0.020   1.232  0.0000  0.0000  0.0000
 4015OM     OM1 4015   2.844   9.393   1.140  0.0000  0.0000  0.0000
 4016OM     OM1 4016   2.609   9.418   1.273  0.0000  0.0000  0.0000
 4017OM     OM1 4017   1.182   0.401   8.454  0.0000  0.0000  0.0000
 4018OM     OM1 4018   1.350   0.320   8.279  0.0000  0.0000  0.0000
 4019OM     OM1 4019   0.021   8.428   0.357  0.0000  0.0000  0.0000
 4020OM     OM1 4020   0.112   8.213   0.489  0.0000  0.0000  0.0000
 4021OM     OM1 4021   0.018   8.201   0.243  0.0000  0.0000  0.0000
 4022OM     OM1 4022   7.795   6.058   1.042  0.0000  0.0000  0.0000
 4023OM     OM1 4023   7.582   6.332   1.176  0.0000  0.0000  0.0000
 4024OM     OM1 4024   7.575   6.421   0.937  0.0000  0.0000  0.0000
 4025OM     OM1 4025   7.562   6.151   0.996  0.0000  0.0000  0.0000
 4026OM     OM1 4026   7.147   2.925   9.201  0.0000  0.0000  0.0000
 4027OM     OM1 4027   7.170   2.972   8.944  0.0000  0.0000  0.0000
 4028OM     OM1 4028   3.404   0.894   1.107  0.0000  0.0000  0.0000
 4029OM     OM1 4029   3.658   0.963   1.178  0.0000  0.0000  0.0000
 4030OM     OM1 4030   5.526   5.468   8.722  0.0000  0.0000  0.0000
 4031OM     OM1 4031   5.309   5.237   8.382  0.0000  0.0000  0.0000
 4032OM     OM1 4032   5.482   5.388   8.247  0.0000  0.0000  0.0000
 4033OM     OM1 4033   3.285   9.022   1.401  0.0000  0.0000  0.0000
 4034OM     OM1 4034   3.111   9.077   1.224  0.0000  0.0000  0.0000
 4035OM     OM1 4035   2.777   4.298   0.156  0.0000  0.0000  0.0000
 4036OM     OM1 4036   2.964   4.730   0.053  0.0000  0.0000  0.0000
 4037OM     OM1 4037   2.835   4.388   9.527  0.0000  0.0000  0.0000
 4038OM     OM1 4038   2.792   4.554   0.130  0.0000  0.0000  0.0000
 4039OM     OM1 4039   6.088   5.803   9.134  0.0000  0.0000  0.0000
 4040OM     OM1 4040   5.947   5.633   9.270  0.0000  0.0000  0.0000
 4041OM     OM1 4041   0.719   0.801   1.234  0.0000  0.0000  0.0000
 4042OM     OM1 4042   0.509   0.684   1.150  0.0000  0.0000  0.0000
 4043OM     OM1 4043   6.830   0.555   9.135  0.0000  0.0000  0.0000
 4044OM     OM1 4044   6.798   0.309   9.065  0.0000  0.0000  0.0000
 4045OM     OM1 4045   7.037   0.397   9.151  0.0000  0.0000  0.0000
 4046OM     OM1 4046   5.162   6.574   0.490  0.0000  0.0000  0.0000
 4047OM     OM1 4047   5.277   6.501   0.272  0.0000  0.0000  0.0000
 4048OM     OM1 4048   5.189   6.317   0.434  0.0000  0.0000  0.0000
 4049OM     OM1 4049   0.150   2.162   1.163  0.0000  0.0000  0.0000
 4050OM     OM1 4050   0.204   2.374   1.285  0.0000  0.0000  0.0000
 4051OM     OM1 4051   9.582   2.224   1.339  0.0000  0.0000  0.0000
 4052OM     OM1 4052   0.012   2.384   1.121  0.0000  0.0000  0.0000
 4053OM     OM1 4053   2.002   1.706   8.651  0.0000  0.0000  0.0000
 4054OM     OM1 4054   2.002   1.439   8.714  0.0000  0.0000  0.0000
 4055OM     OM1 4055   1.779   1.580   8.708  0.0000  0.0000  0.0000
 4056OM     OM1 4056   5.626   7.762   8.714  0.0000  0.0000  0.0000
 4057OM     OM1 4057   5.703   7.904   8.497  0.0000  0.0000  0.0000
 4058OM     OM1 4058   5.846   7.899   8.720  0.0000  0.0000  0.0000
 4059OM     OM1 4059   3.842   3.778   8.618  0.0000  0.0000  0.0000
 4060OM     OM1 4060   3.759   3.873   8.386  0.0000  0.0000  0.0000
 4061OM     OM1 4061   3.611   3.705   8.502  0.0000  0.0000  0.0000
 4062OM     OM1 4062   8.241   6.243   8.836  0.0000  0.0000  0.0000
 4063OM     OM1 4063   8.056   6.289   8.660  0.0000  0.0000  0.0000
 4064OM     OM1 4064   8.169   6.050   8.680  0.0000  0.0000  0.0000
 4065OM     OM1 4065   8.006   6.132   8.862  0.0000  0.0000  0.0000
 4066OM     OM1 4066   1.044   9.142   0.851  0.0000  0.0000  0.0000
 4067OM     OM1 4067   1.019   9.000   0.625  0.0000  0.0000  0.0000
 4068OM     OM1 4068   0.920   9.337   0.972  0.0000  0.0000  0.0000
 4069OM     OM1 4069   4.639   7.135   0.705  0.0000  0.0000  0.0000
 4070OM     OM1 4070   4.206   1.808   9.158  0.0000  0.0000  0.0000
 4071OM     OM1 4071   3.967   1.896   9.102  0.0000  0.0000  0.0000
 4072OM     OM1 4072   4.159   2.065   9.082  0.0000  0.0000  0.0000
 4073OM     OM1 4073   4.085   1.971   9.319  0.0000  0.0000  0.0000
 4074OM     OM1 4074   8.812   3.967   8.714  0.0000  0.0000  0.0000
 4075OM     OM1 4075   8.846   3.821   8.500  0.0000  0.0000  0.0000
 4076OM     OM1 4076   8.960   4.057   8.525  0.0000  0.0000  0.0000
 4077OM     OM1 4077   4.303   0.661   8.650  0.0000  0.0000  0.0000
 4078OM     OM1 4078   4.494   0.704   8.815  0.0000  0.0000  0.0000
 4079OM     OM1 4079   4.364   0.917   8.710  0.0000  0.0000  0.0000
 4080OM     OM1 4080   4.515   0.777   8.563  0.0000  0.0000  0.0000
 4081OM     OM1 4081   1.708   9.384   8.489  0.0000  0.0000  0.0000
 4082OM     OM1 4082   1.342   0.103   8.430  0.0000  0.0000  0.0000
 4083OM     OM1 4083   1.417   0.043   8.669  0.0000  0.0000  0.0000
 4084OM     OM1 4084   8.616   4.398   8.560  0.0000  0.0000  0.0000
 4085OM     OM1 4085   8.619   4.657   8.494  0.0000  0.0000  0.0000
 4086OM     OM1 4086   8.001   4.091   8.544  0.0000  0.0000  0.0000
 4087OM     OM1 4087   7.911   4.097   8.304  0.0000  0.0000  0.0000
 4088OM     OM1 4088   7.775   3.971   8.474  0.0000  0.0000  0.0000
 4089OM     OM1 4089   5.700   8.874   0.943  0.0000  0.0000  0.0000
 4090OM     OM1 4090   5.609   8.998   0.736  0.0000  0.0000  0.0000
 4091OM     OM1 4091   5.856   9.027   0.797  0.0000  0.0000  0.0000
 4092OM     OM1 4092   3.168   4.948   9.242  0.0000  0.0000  0.0000
 4093OM     OM1 4093   3.339   4.795   9.137  0.0000  0.0000  0.0000
 4094OM     OM1 4094   3.392   4.895   9.379  0.0000  0.0000  0.0000
 4095OM     OM1 4095   3.404   5.045   9.164  0.0000  0.0000  0.0000
 4096OM     OM1 4096   4.872   1.814   9.056  0.0000  0.0000  0.0000
 4097OM     OM1 4097   4.986   1.618   8.908  0.0000  0.0000  0.0000
 4098OM     OM1 4098   4.767   1.573   9.057  0.0000  0.0000  0.0000
 4099OM     OM1 4099   4.759   1.720   8.845  0.0000  0.0000  0.0000
 4100OM     OM1 4100   6.534   8.870   0.060  0.0000  0.0000  0.0000
 4101OM     OM1 4101   6.422   8.828   0.289  0.0000  0.0000  0.0000
 4102OM     OM1 4102   1.787   0.884   8.401  0.0000  0.0000  0.0000
 4103OM     OM1 4103   1.954   1.092   8.441  0.0000  0.0000  0.0000
 4104OM     OM1 4104   6.750   0.100   9.199  0.0000  0.0000  0.0000
 4105OM     OM1 4105   6.620   0.136   8.965  0.0000  0.0000  0.0000
 4106OM     OM1 4106   6.881   0.089   8.970  0.0000  0.0000  0.0000
 4107OM     OM1 4107   6.275   3.719   8.482  0.0000  0.0000  0.0000
 4108OM     OM1 4108   6.390   3.946   8.390  0.0000  0.0000  0.0000
 4109OM     OM1 4109   6.487   4.159   8.474  0.0000  0.0000  0.0000
 4110OM     OM1 4110   6.226   4.131   8.460  0.0000  0.0000  0.0000
 4111OM     OM1 4111   9.180   4.524   1.432  0.0000  0.0000  0.0000
 4112OM     OM1 4112   3.133   0.679   9.303  0.0000  0.0000  0.0000
 4113OM     OM1 4113   3.067   0.437   9.374  0.0000  0.0000  0.0000
 4114OM     OM1 4114   0.732   0.125   0.768  0.0000  0.0000  0.0000
 4115OM     OM1 4115   0.545   9.543   0.800  0.0000  0.0000  0.0000
 4116OM     OM1 4116   0.557   0.144   0.967  0.0000  0.0000  0.0000
 4117OM     OM1 4117   0.483   0.180   0.723  0.0000  0.0000  0.0000
 4118OM     OM1 4118   5.965   7.285   8.352  0.0000  0.0000  0.0000
 4119OM     OM1 4119   5.738   7.193   8.421  0.0000  0.0000  0.0000
 4120OM     OM1 4120   2.572   1.856   9.546  0.0000  0.0000  0.0000
 4121OM     OM1 4121   2.574   1.943   9.301  0.0000  0.0000  0.0000
 4122OM     OM1 4122   2.600   2.110   9.490  0.0000  0.0000  0.0000
 4123OM     OM1 4123   2.364   1.989   9.458  0.0000  0.0000  0.0000
 4124OM     OM1 4124   3.904   2.416   0.565  0.0000  0.0000  0.0000
 4125OM     OM1 4125   3.970   2.167   0.538  0.0000  0.0000  0.0000
 4126OM     OM1 4126   4.101   2.355   0.411  0.0000  0.0000  0.0000
 4127OM     OM1 4127   3.860   2.270   0.336  0.0000  0.0000  0.0000
 4128OM     OM1 4128   1.163   7.068   9.324  0.0000  0.0000  0.0000
 4129OM     OM1 4129   1.078   6.850   9.212  0.0000  0.0000  0.0000
 4130OM     OM1 4130   9.248   8.035   9.280  0.0000  0.0000  0.0000
 4131OM     OM1 4131   9.086   8.135   9.472  0.0000  0.0000  0.0000
 4132OM     OM1 4132   7.073   0.938   9.596  0.0000  0.0000  0.0000
 4133OM     OM1 4133   7.248   1.120   0.002  0.0000  0.0000  0.0000
 4134OM     OM1 4134   7.075   1.107   0.195  0.0000  0.0000  0.0000
 4135OM     OM1 4135   8.616   4.344   8.816  0.0000  0.0000  0.0000
 4136OM     OM1 4136   8.585   4.416   9.064  0.0000  0.0000  0.0000
 4137OM     OM1 4137   8.803   4.288   8.992  0.0000  0.0000  0.0000
 4138OM     OM1 4138   8.947   0.478   0.756  0.0000  0.0000  0.0000
 4139OM     OM1 4139   8.734   0.504   0.879  0.0000  0.0000  0.0000
 4140OM     OM1 4140   8.731   0.422   0.612  0.0000  0.0000  0.0000
 4141OM     OM1 4141   9.122   0.271   0.059  0.0000  0.0000  0.0000
 4142OM     OM1 4142   9.079   0.520   0.028  0.0000  0.0000  0.0000
 4143OM     OM1 4143   9.144   0.353   9.426  0.0000  0.0000  0.0000
 4144OM     OM1 4144   8.908   0.367   9.513  0.0000  0.0000  0.0000
 4145OM     OM1 4145   7.384   3.014   8.789  0.0000  0.0000  0.0000
 4146OM     OM1 4146   7.545   2.825   8.699  0.0000  0.0000  0.0000
 4147OM     OM1 4147   7.576   2.936   8.934  0.0000  0.0000  0.0000
 4148OM     OM1 4148   7.638   3.062   8.706  0.0000  0.0000  0.0000
 4149OM     OM1 4149   8.109   9.571   0.990  0.0000  0.0000  0.0000
 4150OM     OM1 4150   8.175   0.016   1.247  0.0000  0.0000  0.0000
 4151OM     OM1 4151   2.083   1.402   0.914  0.0000  0.0000  0.0000
 4152OM     OM1 4152   1.846   1.394   0.812  0.0000  0.0000  0.0000
 4153OM     OM1 4153   1.896   1.543   1.022  0.0000  0.0000  0.0000
 4154OM     OM1 4154   0.949   1.150   0.227  0.0000  0.0000  0.0000
 4155OM     OM1 4155   1.193   1.231   0.247  0.0000  0.0000  0.0000
 4156OM     OM1 4156   0.987   1.408   0.236  0.0000  0.0000  0.0000
 4157OM     OM1 4157   1.028   1.256   0.446  0.0000  0.0000  0.0000
 4158OM     OM1 4158   8.564   3.612   0.611  0.0000  0.0000  0.0000
 4159OM     OM1 4159   8.599   3.733   0.837  0.0000  0.0000  0.0000
 4160OM     OM1 4160   0.238   7.777   0.574  0.0000  0.0000  0.0000
 4161OM     OM1 4161   0.348   7.564   0.643  0.0000  0.0000  0.0000
 4162OM     OM1 4162   0.420   7.683   0.415  0.0000  0.0000  0.0000
 4163OM     OM1 4163   9.309   9.300   0.029  0.0000  0.0000  0.0000
 4164OM     OM1 4164   9.566   9.316   9.570  0.0000  0.0000  0.0000
 4165OM     OM1 4165   9.428   9.532   9.585  0.0000  0.0000  0.0000
 4166OM     OM1 4166   9.466   9.385   0.200  0.0000  0.0000  0.0000
 4167OM     OM1 4167   7.631   1.391   1.243  0.0000  0.0000  0.0000
 4168OM     OM1 4168   7.873   1.444   1.228  0.0000  0.0000  0.0000
 4169OM     OM1 4169   8.514   6.523   9.229  0.0000  0.0000  0.0000
 4170OM     OM1 4170   8.549   6.458   9.469  0.0000  0.0000  0.0000
 4171OM     OM1 4171   8.366   6.320   9.331  0.0000  0.0000  0.0000
 4172OM     OM1 4172   5.189   5.536   1.370  0.0000  0.0000  0.0000
 4173OM     OM1 4173   2.898   7.185   9.287  0.0000  0.0000  0.0000
 4174OM     OM1 4174   2.824   7.256   9.544  0.0000  0.0000  0.0000
 4175OM     OM1 4175   2.688   7.325   9.340  0.0000  0.0000  0.0000
 4176OM     OM1 4176   6.541   7.496   8.789  0.0000  0.0000  0.0000
 4177OM     OM1 4177   6.656   7.661   8.609  0.0000  0.0000  0.0000
 4178OM     OM1 4178   6.428   7.530   8.554  0.0000  0.0000  0.0000
 4179OM     OM1 4179   7.104   7.866   9.150  0.0000  0.0000  0.0000
 4180OM     OM1 4180   6.847   7.866   9.210  0.0000  0.0000  0.0000
 4181OM     OM1 4181   6.920   7.953   8.986  0.0000  0.0000  0.0000
 4182OM     OM1 4182   4.749   4.413   0.976  0.0000  0.0000  0.0000
 4183OM     OM1 4183   4.490   4.340   0.919  0.0000  0.0000  0.0000
 4184OM     OM1 4184   3.559   3.316   1.144  0.0000  0.0000  0.0000
 4185OM     OM1 4185   3.412   3.424   1.350  0.0000  0.0000  0.0000
 4186OM     OM1 4186   2.563   7.573   9.329  0.0000  0.0000  0.0000
 4187OM     OM1 4187   2.529   7.398   9.147  0.0000  0.0000  0.0000
 4188OM     OM1 4188   2.437   7.354   9.386  0.0000  0.0000  0.0000
 4189OM     OM1 4189   2.293   4.867   8.659  0.0000  0.0000  0.0000
 4190OM     OM1 4190   2.332   4.646   8.775  0.0000  0.0000  0.0000
 4191OM     OM1 4191   9.207   2.280   9.482  0.0000  0.0000  0.0000
 4192OM     OM1 4192   9.144   2.321   0.132  0.0000  0.0000  0.0000
 4193OM     OM1 4193   9.085   2.502   9.558  0.0000  0.0000  0.0000
 4194OM     OM1 4194   7.820   6.094   9.046  0.0000  0.0000  0.0000
 4195OM     OM1 4195   7.765   6.227   8.832  0.0000  0.0000  0.0000
 4196OM     OM1 4196   7.928   6.330   9.011  0.0000  0.0000  0.0000
 4197OM     OM1 4197   5.822   9.006   9.245  0.0000  0.0000  0.0000
 4198OM     OM1 4198   5.893   9.020   9.492  0.0000  0.0000  0.0000
 4199OM     OM1 4199   5.892   9.241   9.332  0.0000  0.0000  0.0000
 4200OM     OM1 4200   5.672   9.138   9.419  0.0000  0.0000  0.0000
 4201OM     OM1 4201   7.202   5.533   0.731  0.0000  0.0000  0.0000
 4202OM     OM1 4202   6.998   5.688   0.781  0.0000  0.0000  0.0000
 4203OM     OM1 4203   7.200   5.708   0.925  0.0000  0.0000  0.0000
 4204OM     OM1 4204   7.230   5.783   0.673  0.0000  0.0000  0.0000
 4205OM     OM1 4205   3.093   6.006   8.526  0.0000  0.0000  0.0000
 4206OM     OM1 4206   3.256   6.183   8.420  0.0000  0.0000  0.0000
 4207OM     OM1 4207   2.998   6.182   8.358  0.0000  0.0000  0.0000
 4208OM     OM1 4208   2.330   9.263   8.354  0.0000  0.0000  0.0000
 4209OM     OM1 4209   2.444   9.445   8.213  0.0000  0.0000  0.0000
 4210OM     OM1 4210   8.033   9.541   8.757  0.0000  0.0000  0.0000
 4211OM     OM1 4211   8.256   9.504   8.630  0.0000  0.0000  0.0000
 4212OM     OM1 4212   8.273   9.558   8.876  0.0000  0.0000  0.0000
 4213OM     OM1 4213   9.566   7.855   0.993  0.0000  0.0000  0.0000
 4214OM     OM1 4214   0.131   8.046   1.001  0.0000  0.0000  0.0000
 4215OM     OM1 4215   0.157   7.853   0.822  0.0000  0.0000  0.0000
 4216OM     OM1 4216   0.215   7.807   1.070  0.0000  0.0000  0.0000
 4217OM     OM1 4217   0.558   7.319   9.557  0.0000  0.0000  0.0000
 4218OM     OM1 4218   0.400   7.476   0.081  0.0000  0.0000  0.0000
 4219OM     OM1 4219   0.649   7.486   0.128  0.0000  0.0000  0.0000
 4220OM     OM1 4220   0.532   7.261   0.199  0.0000  0.0000  0.0000
 4221OM     OM1 4221   0.194   6.102   1.233  0.0000  0.0000  0.0000
 4222OM     OM1 4222   0.330   6.039   1.020  0.0000  0.0000  0.0000
 4223OM     OM1 4223   0.083   5.964   1.036  0.0000  0.0000  0.0000
 4224OM     OM1 4224   0.256   5.850   1.190  0.0000  0.0000  0.0000
 4225OM     OM1 4225   8.973   1.452   9.316  0.0000  0.0000  0.0000
 4226OM     OM1 4226   9.220   1.548   9.333  0.0000  0.0000  0.0000
 4227OM     OM1 4227   9.124   1.393   9.519  0.0000  0.0000  0.0000
 4228OM     OM1 4228   9.167   1.297   9.273  0.0000  0.0000  0.0000
 4229OM     OM1 4229   1.393   1.002   8.895  0.0000  0.0000  0.0000
 4230OM     OM1 4230   1.483   0.838   8.719  0.0000  0.0000  0.0000
 4231OM     OM1 4231   1.413   1.089   8.652  0.0000  0.0000  0.0000
 4232OM     OM1 4232   1.974   3.574   9.271  0.0000  0.0000  0.0000
 4233OM     OM1 4233   2.116   3.377   9.405  0.0000  0.0000  0.0000
 4234OM     OM1 4234   2.226   3.514   9.226  0.0000  0.0000  0.0000
 4235OM     OM1 4235   2.149   3.633   9.450  0.0000  0.0000  0.0000
 4236OM     OM1 4236   1.328   9.133   8.355  0.0000  0.0000  0.0000
 4237OM     OM1 4237   3.428   5.810   8.542  0.0000  0.0000  0.0000
 4238OM     OM1 4238   3.509   5.783   8.307  0.0000  0.0000  0.0000
 4239OM     OM1 4239   3.466   6.027   8.406  0.0000  0.0000  0.0000
 4240OM     OM1 4240   3.677   5.892   8.481  0.0000  0.0000  0.0000
 4241OM     OM1 4241   6.629   0.740   1.013  0.0000  0.0000  0.0000
 4242OM     OM1 4242   6.764   0.539   1.097  0.0000  0.0000  0.0000
 4243OM     OM1 4243   6.540   0.493   0.970  0.0000  0.0000  0.0000
 4244OM     OM1 4244   7.793   8.703   8.988  0.0000  0.0000  0.0000
 4245OM     OM1 4245   7.558   8.592   9.035  0.0000  0.0000  0.0000
 4246OM     OM1 4246   7.581   8.846   8.996  0.0000  0.0000  0.0000
 4247OM     OM1 4247   7.599   8.687   8.798  0.0000  0.0000  0.0000
 4248OM     OM1 4248   7.527   6.667   8.691  0.0000  0.0000  0.0000
 4249OM     OM1 4249   7.698   6.578   8.512  0.0000  0.0000  0.0000
 4250OM     OM1 4250   7.452   6.470   8.552  0.0000  0.0000  0.0000
 4251OM     OM1 4251   7.650   6.424   8.704  0.0000  0.0000  0.0000
 4252OM     OM1 4252   3.337   4.482   9.458  0.0000  0.0000  0.0000
 4253OM     OM1 4253   3.448   4.706   9.551  0.0000  0.0000  0.0000
 4254OM     OM1 4254   3.198   4.679   9.555  0.0000  0.0000  0.0000
 4255OM     OM1 4255   5.176   1.156   9.399  0.0000  0.0000  0.0000
 4256OM     OM1 4256   5.217   1.413   9.382  0.0000  0.0000  0.0000
 4257OM     OM1 4257   5.231   1.284   0.013  0.0000  0.0000  0.0000
 4258OM     OM1 4258   5.411   1.256   9.428  0.0000  0.0000  0.0000
 4259OM     OM1 4259   8.352   6.324   0.588  0.0000  0.0000  0.0000
 4260OM     OM1 4260   8.102   6.237   0.639  0.0000  0.0000  0.0000
 4261OM     OM1 4261   8.153   6.485   0.590  0.0000  0.0000  0.0000
 4262OM     OM1 4262   2.016   2.826   0.216  0.0000  0.0000  0.0000
 4263OM     OM1 4263   2.118   2.916   0.427  0.0000  0.0000  0.0000
 4264OM     OM1 4264   2.082   3.071   0.194  0.0000  0.0000  0.0000
 4265OM     OM1 4265   2.268   2.901   0.205  0.0000  0.0000  0.0000
 4266OM     OM1 4266   3.596   3.664   0.477  0.0000  0.0000  0.0000
 4267OM     OM1 4267   3.677   3.490   0.660  0.0000  0.0000  0.0000
 4268OM     OM1 4268   3.772   3.489   0.411  0.0000  0.0000  0.0000
 4269OM     OM1 4269   3.530   3.404   0.465  0.0000  0.0000  0.0000
 4270OM     OM1 4270   5.021   8.096   1.255  0.0000  0.0000  0.0000
 4271OM     OM1 4271   5.189   8.138   1.056  0.0000  0.0000  0.0000
 4272OM     OM1 4272   6.446   6.120   0.611  0.0000  0.0000  0.0000
 4273OM     OM1 4273   6.597   6.328   0.590  0.0000  0.0000  0.0000
 4274OM     OM1 4274   6.396   6.304   0.429  0.0000  0.0000  0.0000
 4275OM     OM1 4275   6.597   6.144   0.398  0.0000  0.0000  0.0000
 4276OM     OM1 4276   8.439   2.131   0.678  0.0000  0.0000  0.0000
 4277OM     OM1 4277   8.648   2.246   0.767  0.0000  0.0000  0.0000
 4278OM     OM1 4278   0.153   3.413   8.408  0.0000  0.0000  0.0000
 4279OM     OM1 4279   0.045   3.211   8.546  0.0000  0.0000  0.0000
 4280OM     OM1 4280   9.585   3.459   8.593  0.0000  0.0000  0.0000
 4281OM     OM1 4281   9.520   3.339   8.361  0.0000  0.0000  0.0000
 4282OM     OM1 4282   4.172   5.476   0.126  0.0000  0.0000  0.0000
 4283OM     OM1 4283   4.411   5.426   0.019  0.0000  0.0000  0.0000
 4284OM     OM1 4284   0.773   6.495   8.926  0.0000  0.0000  0.0000
 4285OM     OM1 4285   0.574   6.512   9.108  0.0000  0.0000  0.0000
 4286OM     OM1 4286   0.559   6.435   8.815  0.0000  0.0000  0.0000
 4287OM     OM1 4287   6.431   5.971   0.824  0.0000  0.0000  0.0000
 4288OM     OM1 4288   6.220   6.104   0.723  0.0000  0.0000  0.0000
 4289OM     OM1 4289   6.324   5.899   0.593  0.0000  0.0000  0.0000
 4290OM     OM1 4290   3.653   0.335   8.657  0.0000  0.0000  0.0000
 4291OM     OM1 4291   3.891   0.283   8.767  0.0000  0.0000  0.0000
 4292OM     OM1 4292   3.853   0.338   8.504  0.0000  0.0000  0.0000
 4293OM     OM1 4293   3.781   0.110   8.610  0.0000  0.0000  0.0000
 4294OM     OM1 4294   8.061   1.542   0.096  0.0000  0.0000  0.0000
 4295OM     OM1 4295   8.350   1.683   9.559  0.0000  0.0000  0.0000
 4296OM     OM1 4296   8.037   1.774   0.204  0.0000  0.0000  0.0000
 4297OM     OM1 4297   8.898   3.567   8.469  0.0000  0.0000  0.0000
 4298OM     OM1 4298   8.669   3.664   8.384  0.0000  0.0000  0.0000
 4299OM     OM1 4299   4.142   8.323   9.478  0.0000  0.0000  0.0000
 4300OM     OM1 4300   3.978   8.320   9.270  0.0000  0.0000  0.0000
 4301OM     OM1 4301   4.171   8.146   9.299  0.0000  0.0000  0.0000
 4302OM     OM1 4302   6.657   1.479   8.624  0.0000  0.0000  0.0000
 4303OM     OM1 4303   6.425   1.572   8.650  0.0000  0.0000  0.0000
 4304OM     OM1 4304   6.724   1.524   8.379  0.0000  0.0000  0.0000
 4305OM     OM1 4305   1.494   3.763   8.939  0.0000  0.0000  0.0000
 4306OM     OM1 4306   1.556   3.533   9.049  0.0000  0.0000  0.0000
 4307OM     OM1 4307   1.618   3.592   8.791  0.0000  0.0000  0.0000
 4308OM     OM1 4308   1.379   3.538   8.856  0.0000  0.0000  0.0000
 4309OM     OM1 4309   4.605   0.409   0.094  0.0000  0.0000  0.0000
 4310OM     OM1 4310   4.605   0.506   9.466  0.0000  0.0000  0.0000
 4311OM     OM1 4311   4.841   0.497   9.587  0.0000  0.0000  0.0000
 4312OM     OM1 4312   9.049   4.195   9.007  0.0000  0.0000  0.0000
 4313OM     OM1 4313   8.851   4.035   8.965  0.0000  0.0000  0.0000
 4314OM     OM1 4314   3.995   3.453   0.256  0.0000  0.0000  0.0000
 4315OM     OM1 4315   4.237   3.499   0.358  0.0000  0.0000  0.0000
 4316OM     OM1 4316   4.041   3.681   0.342  0.0000  0.0000  0.0000
 4317OM     OM1 4317   4.895   7.329   1.039  0.0000  0.0000  0.0000
 4318OM     OM1 4318   5.103   7.311   1.200  0.0000  0.0000  0.0000
 4319OM     OM1 4319   5.090   7.160   0.983  0.0000  0.0000  0.0000
 4320OM     OM1 4320   5.085   6.966   0.792  0.0000  0.0000  0.0000
 4321OM     OM1 4321   6.536   5.197   0.579  0.0000  0.0000  0.0000
 4322OM     OM1 4322   6.501   5.203   0.842  0.0000  0.0000  0.0000
 4323OM     OM1 4323   6.293   5.161   0.679  0.0000  0.0000  0.0000
 4324OM     OM1 4324   6.486   4.982   0.719  0.0000  0.0000  0.0000
 4325OM     OM1 4325   4.888   4.525   8.348  0.0000  0.0000  0.0000
 4326OM     OM1 4326   4.766   4.297   8.355  0.0000  0.0000  0.0000
 4327OM     OM1 4327   1.949   4.909   1.083  0.0000  0.0000  0.0000
 4328OM     OM1 4328   2.127   4.949   0.897  0.0000  0.0000  0.0000
 4329OM     OM1 4329   2.105   5.111   1.105  0.0000  0.0000  0.0000
 4330OM     OM1 4330   2.209   4.866   1.129  0.0000  0.0000  0.0000
 4331OM     OM1 4331   5.537   7.257   8.914  0.0000  0.0000  0.0000
 4332OM     OM1 4332   5.743   7.402   9.062  0.0000  0.0000  0.0000
 4333OM     OM1 4333   5.769   7.163   8.989  0.0000  0.0000  0.0000
 4334OM     OM1 4334   5.752   7.363   8.819  0.0000  0.0000  0.0000
 4335OM     OM1 4335   1.209   5.850   0.321  0.0000  0.0000  0.0000
 4336OM     OM1 4336   1.090   5.728   0.525  0.0000  0.0000  0.0000
 4337OM     OM1 4337   1.128   5.595   0.312  0.0000  0.0000  0.0000
 4338OM     OM1 4338   0.837   8.458   8.304  0.0000  0.0000  0.0000
 4339OM     OM1 4339   1.039   8.470   8.476  0.0000  0.0000  0.0000
 4340OM     OM1 4340   1.032   8.280   8.281  0.0000  0.0000  0.0000
 4341OM     OM1 4341   4.687   0.471   0.570  0.0000  0.0000  0.0000
 4342OM     OM1 4342   4.762   0.241   0.663  0.0000  0.0000  0.0000
 4343OM     OM1 4343   4.505   0.320   0.660  0.0000  0.0000  0.0000
 4344OM     OM1 4344   4.676   0.426   0.829  0.0000  0.0000  0.0000
 4345OM     OM1 4345   3.644   2.893   0.083  0.0000  0.0000  0.0000
 4346OM     OM1 4346   3.426   2.793   9.595  0.0000  0.0000  0.0000
 4347OM     OM1 4347   3.566   2.962   9.452  0.0000  0.0000  0.0000
 4348OM     OM1 4348   3.419   3.043   0.044  0.0000  0.0000  0.0000
 4349OM     OM1 4349   7.643   7.670   8.474  0.0000  0.0000  0.0000
 4350OM     OM1 4350   7.541   7.445   8.533  0.0000  0.0000  0.0000
 4351OM     OM1 4351   7.505   7.637   8.693  0.0000  0.0000  0.0000
 4352OM     OM1 4352   7.749   7.524   8.670  0.0000  0.0000  0.0000
 4353OM     OM1 4353   2.747   5.623   8.654  0.0000  0.0000  0.0000
 4354OM     OM1 4354   2.557   5.487   8.811  0.0000  0.0000  0.0000
 4355OM     OM1 4355   2.699   5.369   8.633  0.0000  0.0000  0.0000
 4356OM     OM1 4356   2.808   5.464   8.855  0.0000  0.0000  0.0000
 4357OM     OM1 4357   2.222   8.444   9.333  0.0000  0.0000  0.0000
 4358OM     OM1 4358   2.189   8.416   9.067  0.0000  0.0000  0.0000
 4359OM     OM1 4359   1.987   8.398   9.225  0.0000  0.0000  0.0000
 4360OM     OM1 4360   2.171   8.211   9.222  0.0000  0.0000  0.0000
 4361OM     OM1 4361   8.657   0.697   1.039  0.0000  0.0000  0.0000
 4362OM     OM1 4362   8.501   0.893   0.963  0.0000  0.0000  0.0000
 4363OM     OM1 4363   8.432   0.756   1.171  0.0000  0.0000  0.0000
 4364OM     OM1 4364   8.434   0.632   0.942  0.0000  0.0000  0.0000
 4365OM     OM1 4365   5.494   0.882   0.985  0.0000  0.0000  0.0000
 4366OM     OM1 4366   5.281   0.709   0.989  0.0000  0.0000  0.0000
 4367OM     OM1 4367   5.447   0.707   1.184  0.0000  0.0000  0.0000
 4368OM     OM1 4368   5.518   0.611   0.964  0.0000  0.0000  0.0000
 4369OM     OM1 4369   9.069   4.928   9.186  0.0000  0.0000  0.0000
 4370OM     OM1 4370   9.203   5.129   9.269  0.0000  0.0000  0.0000
 4371OM     OM1 4371   9.195   5.074   9.017  0.0000  0.0000  0.0000
 4372OM     OM1 4372   9.055   0.198   9.220  0.0000  0.0000  0.0000
 4373OM     OM1 4373   9.163   0.455   9.203  0.0000  0.0000  0.0000
 4374OM     OM1 4374   3.551   3.354   0.848  0.0000  0.0000  0.0000
 4375OM     OM1 4375   6.179   9.123   9.019  0.0000  0.0000  0.0000
 4376OM     OM1 4376   5.927   9.097   9.024  0.0000  0.0000  0.0000
 4377OM     OM1 4377   0.363   4.220   1.070  0.0000  0.0000  0.0000
 4378OM     OM1 4378   0.319   4.396   1.250  0.0000  0.0000  0.0000
 4379OM     OM1 4379   0.537   4.417   1.098  0.0000  0.0000  0.0000
 4380OM     OM1 4380   3.769   7.239   9.267  0.0000  0.0000  0.0000
 4381OM     OM1 4381   3.679   7.467   9.345  0.0000  0.0000  0.0000
 4382OM     OM1 4382   5.685   8.660   1.093  0.0000  0.0000  0.0000
 4383OM     OM1 4383   5.468   8.778   1.022  0.0000  0.0000  0.0000
 4384OM     OM1 4384   5.616   8.893   1.193  0.0000  0.0000  0.0000
 4385OM     OM1 4385   1.790   1.836   9.144  0.0000  0.0000  0.0000
 4386OM     OM1 4386   1.796   1.577   9.164  0.0000  0.0000  0.0000
 4387OM     OM1 4387   1.813   1.728   9.377  0.0000  0.0000  0.0000
 4388OM     OM1 4388   2.017   1.721   9.213  0.0000  0.0000  0.0000
 4389OM     OM1 4389   0.250   8.793   0.214  0.0000  0.0000  0.0000
 4390OM     OM1 4390   0.074   8.679   0.357  0.0000  0.0000  0.0000
 4391OM     OM1 4391   3.590   2.606   8.498  0.0000  0.0000  0.0000
 4392OM     OM1 4392   3.792   2.454   8.436  0.0000  0.0000  0.0000
 4393OM     OM1 4393   3.497   2.810   8.655  0.0000  0.0000  0.0000
 4394OM     OM1 4394   0.252   8.607   9.459  0.0000  0.0000  0.0000
 4395OM     OM1 4395   0.500   8.513   9.511  0.0000  0.0000  0.0000
 4396OM     OM1 4396   0.311   8.355   9.440  0.0000  0.0000  0.0000
 4397OM     OM1 4397   0.407   8.535   9.270  0.0000  0.0000  0.0000
 4398OM     OM1 4398   2.790   1.430   1.172  0.0000  0.0000  0.0000
 4399OM     OM1 4399   2.555   1.315   1.090  0.0000  0.0000  0.0000
 4400OM     OM1 4400   2.775   1.205   1.035  0.0000  0.0000  0.0000
 4401OM     OM1 4401   1.474   5.927   8.932  0.0000  0.0000  0.0000
 4402OM     OM1 4402   1.465   6.176   9.027  0.0000  0.0000  0.0000
 4403OM     OM1 4403   1.563   6.130   8.794  0.0000  0.0000  0.0000
 4404OM     OM1 4404   7.382   8.676   9.209  0.0000  0.0000  0.0000
 4405OM     OM1 4405   7.465   8.422   9.209  0.0000  0.0000  0.0000
 4406OM     OM1 4406   7.312   8.529   9.016  0.0000  0.0000  0.0000
 4407OM     OM1 4407   9.453   7.876   0.341  0.0000  0.0000  0.0000
 4408OM     OM1 4408   9.480   7.759   0.567  0.0000  0.0000  0.0000
 4409OM     OM1 4409   0.036   7.968   0.497  0.0000  0.0000  0.0000
 4410OM     OM1 4410   7.050   6.014   8.971  0.0000  0.0000  0.0000
 4411OM     OM1 4411   7.142   6.172   9.146  0.0000  0.0000  0.0000
 4412OM     OM1 4412   7.050   5.929   9.220  0.0000  0.0000  0.0000
 4413OM     OM1 4413   6.292   3.645   8.927  0.0000  0.0000  0.0000
 4414OM     OM1 4414   6.515   3.502   8.947  0.0000  0.0000  0.0000
 4415OM     OM1 4415   6.278   3.414   9.047  0.0000  0.0000  0.0000
 4416OM     OM1 4416   6.329   3.424   8.793  0.0000  0.0000  0.0000
 4417OM     OM1 4417   5.818   7.544   1.036  0.0000  0.0000  0.0000
 4418OM     OM1 4418   6.034   7.512   1.157  0.0000  0.0000  0.0000
 4419OM     OM1 4419   5.955   7.814   1.267  0.0000  0.0000  0.0000
 4420OM     OM1 4420   2.963   6.393   0.607  0.0000  0.0000  0.0000
 4421OM     OM1 4421   2.998   6.573   0.426  0.0000  0.0000  0.0000
 4422OM     OM1 4422   3.073   6.322   0.370  0.0000  0.0000  0.0000
 4423OM     OM1 4423   4.464   0.208   0.212  0.0000  0.0000  0.0000
 4424OM     OM1 4424   4.577   0.398   0.343  0.0000  0.0000  0.0000
 4425OM     OM1 4425   0.948   7.416   1.088  0.0000  0.0000  0.0000
 4426OM     OM1 4426   0.811   7.185   1.107  0.0000  0.0000  0.0000
 4427OM     OM1 4427   0.725   7.400   1.213  0.0000  0.0000  0.0000
 4428OM     OM1 4428   3.066   9.382   9.478  0.0000  0.0000  0.0000
 4429OM     OM1 4429   2.984   9.369   9.228  0.0000  0.0000  0.0000
 4430OM     OM1 4430   2.891   9.195   9.388  0.0000  0.0000  0.0000
 4431OM     OM1 4431   3.138   9.174   9.326  0.0000  0.0000  0.0000
 4432OM     OM1 4432   0.193   6.157   8.350  0.0000  0.0000  0.0000
 4433OM     OM1 4433   0.107   6.398   8.374  0.0000  0.0000  0.0000
 4434OM     OM1 4434   9.554   6.182   8.427  0.0000  0.0000  0.0000
 4435OM     OM1 4435   7.671   2.110   8.391  0.0000  0.0000  0.0000
 4436OM     OM1 4436   4.117   2.039   8.689  0.0000  0.0000  0.0000
 4437OM     OM1 4437   3.853   2.035   8.645  0.0000  0.0000  0.0000
 4438OM     OM1 4438   3.958   1.905   8.843  0.0000  0.0000  0.0000
 4439OM     OM1 4439   4.006   1.823   8.598  0.0000  0.0000  0.0000
 4440OM     OM1 4440   5.808   8.517   0.155  0.0000  0.0000  0.0000
 4441OM     OM1 4441   5.634   8.604   9.577  0.0000  0.0000  0.0000
 4442OM     OM1 4442   3.796   8.515   8.832  0.0000  0.0000  0.0000
 4443OM     OM1 4443   4.012   8.363   8.886  0.0000  0.0000  0.0000
 4444OM     OM1 4444   3.969   8.612   8.988  0.0000  0.0000  0.0000
 4445OM     OM1 4445   3.834   8.413   9.067  0.0000  0.0000  0.0000
 4446OM     OM1 4446   4.106   6.100   1.088  0.0000  0.0000  0.0000
 4447OM     OM1 4447   4.081   6.271   0.866  0.0000  0.0000  0.0000
 4448OM     OM1 4448   4.133   6.027   0.847  0.0000  0.0000  0.0000
 4449OM     OM1 4449   3.895   6.099   0.934  0.0000  0.0000  0.0000
 4450OM     OM1 4450   4.154   7.310   1.013  0.0000  0.0000  0.0000
 4451OM     OM1 4451   4.092   7.545   0.937  0.0000  0.0000  0.0000
 4452OM     OM1 4452   4.246   7.507   1.153  0.0000  0.0000  0.0000
 4453OM     OM1 4453   5.412   2.706   1.060  0.0000  0.0000  0.0000
 4454OM     OM1 4454   5.346   2.653   1.307  0.0000  0.0000  0.0000
 4455OM     OM1 4455   5.389   2.900   1.228  0.0000  0.0000  0.0000
 4456OM     OM1 4456   1.935   5.803   0.837  0.0000  0.0000  0.0000
 4457OM     OM1 4457   1.873   6.030   0.953  0.0000  0.0000  0.0000
 4458OM     OM1 4458   1.687   5.862   0.844  0.0000  0.0000  0.0000
 4459OM     OM1 4459   0.314   6.573   9.162  0.0000  0.0000  0.0000
 4460OM     OM1 4460   0.465   6.460   9.338  0.0000  0.0000  0.0000
 4461OM     OM1 4461   0.369   8.793   9.239  0.0000  0.0000  0.0000
 4462OM     OM1 4462   0.423   9.045   9.270  0.0000  0.0000  0.0000
 4463OM     OM1 4463   0.367   8.942   9.036  0.0000  0.0000  0.0000
 4464OM     OM1 4464   6.942   7.856   0.624  0.0000  0.0000  0.0000
 4465OM     OM1 4465   6.716   7.912   0.508  0.0000  0.0000  0.0000
 4466OM     OM1 4466   2.567   9.212   0.264  0.0000  0.0000  0.0000
 4467OM     OM1 4467   2.704   9.215   0.476  0.0000  0.0000  0.0000
 4468OM     OM1 4468   2.676   9.431   0.336  0.0000  0.0000  0.0000
 4469OM     OM1 4469   2.902   8.398   0.856  0.0000  0.0000  0.0000
 4470OM     OM1 4470   3.121   8.266   0.912  0.0000  0.0000  0.0000
 4471OM     OM1 4471   3.140   8.518   0.868  0.0000  0.0000  0.0000
 4472OM     OM1 4472   3.078   8.364   0.668  0.0000  0.0000  0.0000
 4473OM     OM1 4473   5.508   9.441   9.007  0.0000  0.0000  0.0000
 4474OM     OM1 4474   5.625   0.064   8.945  0.0000  0.0000  0.0000
 4475OM     OM1 4475   5.757   9.487   9.067  0.0000  0.0000  0.0000
 4476OM     OM1 4476   7.676   5.137   1.249  0.0000  0.0000  0.0000
 4477OM     OM1 4477   7.781   5.369   1.251  0.0000  0.0000  0.0000
 4478OM     OM1 4478   7.537   5.331   1.348  0.0000  0.0000  0.0000
 4479OM     OM1 4479   5.696   8.589   8.263  0.0000  0.0000  0.0000
 4480OM     OM1 4480   5.336   8.598   8.472  0.0000  0.0000  0.0000
 4481OM     OM1 4481   5.450   8.660   8.247  0.0000  0.0000  0.0000
 4482OM     OM1 4482   3.309   8.036   9.181  0.0000  0.0000  0.0000
 4483OM     OM1 4483   3.281   7.784   9.119  0.0000  0.0000  0.0000
 4484OM     OM1 4484   3.349   7.850   9.368  0.0000  0.0000  0.0000
 4485OM     OM1 4485   3.516   7.883   9.175  0.0000  0.0000  0.0000
 4486OM     OM1 4486   7.426   8.986   8.835  0.0000  0.0000  0.0000
 4487OM     OM1 4487   7.314   9.152   8.660  0.0000  0.0000  0.0000
 4488OM     OM1 4488   7.266   9.156   8.920  0.0000  0.0000  0.0000
 4489OM     OM1 4489   7.168   8.967   8.778  0.0000  0.0000  0.0000
 4490OM     OM1 4490   9.274   4.577   8.792  0.0000  0.0000  0.0000
 4491OM     OM1 4491   9.309   4.402   8.614  0.0000  0.0000  0.0000
 4492OM     OM1 4492   9.167   4.352   8.837  0.0000  0.0000  0.0000
 4493OM     OM1 4493   9.080   4.518   8.634  0.0000  0.0000  0.0000
 4494OM     OM1 4494   4.658   0.340   8.318  0.0000  0.0000  0.0000
 4495OM     OM1 4495   4.651   0.576   8.495  0.0000  0.0000  0.0000
 4496OM     OM1 4496   4.636   0.340   8.577  0.0000  0.0000  0.0000
 4497OM     OM1 4497   4.424   0.342   8.421  0.0000  0.0000  0.0000
 4498OM     OM1 4498   5.815   2.363   0.226  0.0000  0.0000  0.0000
 4499OM     OM1 4499   6.041   2.410   0.356  0.0000  0.0000  0.0000
 4500OM     OM1 4500   6.047   2.285   0.131  0.0000  0.0000  0.0000
 4501OM     OM1 4501   8.095   8.574   1.192  0.0000  0.0000  0.0000
 4502OM     OM1 4502   7.897   8.585   1.001  0.0000  0.0000  0.0000
 4503OM     OM1 4503   8.079   8.407   0.990  0.0000  0.0000  0.0000
 4504OM     OM1 4504   9.528   3.754   0.028  0.0000  0.0000  0.0000
 4505OM     OM1 4505   0.131   3.641   0.154  0.0000  0.0000  0.0000
 4506OM     OM1 4506   9.510   3.653   0.278  0.0000  0.0000  0.0000
 4507OM     OM1 4507   1.917   0.670   9.467  0.0000  0.0000  0.0000
 4508OM     OM1 4508   1.826   0.468   0.006  0.0000  0.0000  0.0000
 4509OM     OM1 4509   5.543   3.935   1.278  0.0000  0.0000  0.0000
 4510OM     OM1 4510   5.334   4.081   1.272  0.0000  0.0000  0.0000
 4511OM     OM1 4511   2.199   5.192   8.348  0.0000  0.0000  0.0000
 4512OM     OM1 4512   2.209   5.430   8.469  0.0000  0.0000  0.0000
 4513OM     OM1 4513   2.008   5.355   8.325  0.0000  0.0000  0.0000
 4514OM     OM1 4514   5.522   8.398   1.253  0.0000  0.0000  0.0000
 4515OM     OM1 4515   0.717   6.658   1.313  0.0000  0.0000  0.0000
 4516OM     OM1 4516   0.959   6.578   1.298  0.0000  0.0000  0.0000
 4517OM     OM1 4517   0.922   6.830   1.316  0.0000  0.0000  0.0000
 4518OM     OM1 4518   0.309   5.894   8.763  0.0000  0.0000  0.0000
 4519OM     OM1 4519   0.316   5.984   8.514  0.0000  0.0000  0.0000
 4520OM     OM1 4520   0.523   5.855   8.631  0.0000  0.0000  0.0000
 4521OM     OM1 4521   0.310   5.731   8.554  0.0000  0.0000  0.0000
 4522OM     OM1 4522   1.190   4.419   9.118  0.0000  0.0000  0.0000
 4523OM     OM1 4523   1.417   4.322   9.215  0.0000  0.0000  0.0000
 4524OM     OM1 4524   9.123   5.867   0.629  0.0000  0.0000  0.0000
 4525OM     OM1 4525   9.112   5.867   0.363  0.0000  0.0000  0.0000
 4526OM     OM1 4526   9.030   9.312   0.443  0.0000  0.0000  0.0000
 4527OM     OM1 4527   8.819   9.160   0.447  0.0000  0.0000  0.0000
 4528OM     OM1 4528   8.817   9.421   0.535  0.0000  0.0000  0.0000
 4529OM     OM1 4529   8.845   9.362   0.287  0.0000  0.0000  0.0000
 4530OM     OM1 4530   9.584   5.189   1.296  0.0000  0.0000  0.0000
 4531OM     OM1 4531   9.344   5.024   8.802  0.0000  0.0000  0.0000
 4532OM     OM1 4532   9.381   4.891   9.017  0.0000  0.0000  0.0000
 4533OM     OM1 4533   9.152   4.857   8.888  0.0000  0.0000  0.0000
 4534OM     OM1 4534   0.705   5.272   1.367  0.0000  0.0000  0.0000
 4535OM     OM1 4535   0.554   5.463   1.263  0.0000  0.0000  0.0000
 4536OM     OM1 4536   4.807   3.525   0.804  0.0000  0.0000  0.0000
 4537OM     OM1 4537   4.769   3.362   1.002  0.0000  0.0000  0.0000
 4538OM     OM1 4538   4.619   3.582   0.975  0.0000  0.0000  0.0000
 4539OM     OM1 4539   6.479   2.540   8.264  0.0000  0.0000  0.0000
 4540OM     OM1 4540   8.584   3.061   0.757  0.0000  0.0000  0.0000
 4541OM     OM1 4541   8.821   3.151   0.765  0.0000  0.0000  0.0000
 4542OM     OM1 4542   8.658   3.222   0.572  0.0000  0.0000  0.0000
 4543OM     OM1 4543   1.548   9.283   0.531  0.0000  0.0000  0.0000
 4544OM     OM1 4544   1.435   9.057   0.589  0.0000  0.0000  0.0000
 4545OM     OM1 4545   1.289   9.270   0.607  0.0000  0.0000  0.0000
 4546OM     OM1 4546   4.154   6.132   9.531  0.0000  0.0000  0.0000
 4547OM     OM1 4547   4.286   6.243   0.115  0.0000  0.0000  0.0000
 4548OM     OM1 4548   4.178   6.388   9.527  0.0000  0.0000  0.0000
 4549OM     OM1 4549   4.020   6.268   0.092  0.0000  0.0000  0.0000
 4550OM     OM1 4550   5.739   6.132   8.586  0.0000  0.0000  0.0000
 4551OM     OM1 4551   5.657   6.069   8.836  0.0000  0.0000  0.0000
 4552OM     OM1 4552   5.526   6.225   8.678  0.0000  0.0000  0.0000
 4553OM     OM1 4553   8.386   5.525   8.222  0.0000  0.0000  0.0000
 4554OM     OM1 4554   8.561   5.775   8.486  0.0000  0.0000  0.0000
 4555OM     OM1 4555   8.552   5.587   8.668  0.0000  0.0000  0.0000
 4556OM     OM1 4556   8.576   5.539   8.406  0.0000  0.0000  0.0000
 4557OM     OM1 4557   0.643   1.212   9.443  0.0000  0.0000  0.0000
 4558OM     OM1 4558   0.535   1.180   9.220  0.0000  0.0000  0.0000
 4559OM     OM1 4559   0.597   0.965   9.352  0.0000  0.0000  0.0000
 4560OM     OM1 4560   6.906   1.506   8.589  0.0000  0.0000  0.0000
 4561OM     OM1 4561   6.611   1.729   8.564  0.0000  0.0000  0.0000
 4562OM     OM1 4562   6.609   1.655   8.816  0.0000  0.0000  0.0000
 4563OM     OM1 4563   0.404   9.161   9.493  0.0000  0.0000  0.0000
 4564OM     OM1 4564   0.652   9.093   9.411  0.0000  0.0000  0.0000
 4565OM     OM1 4565   7.119   4.243   8.482  0.0000  0.0000  0.0000
 4566OM     OM1 4566   7.112   4.338   8.721  0.0000  0.0000  0.0000
 4567OM     OM1 4567   6.650   7.947   9.362  0.0000  0.0000  0.0000
 4568OM     OM1 4568   7.680   9.218   9.483  0.0000  0.0000  0.0000
 4569OM     OM1 4569   7.544   9.190   0.099  0.0000  0.0000  0.0000
 4570OM     OM1 4570   7.632   8.982   9.596  0.0000  0.0000  0.0000
 4571OM     OM1 4571   7.448   9.103   9.459  0.0000  0.0000  0.0000
 4572OM     OM1 4572   7.722   2.797   0.067  0.0000  0.0000  0.0000
 4573OM     OM1 4573   7.941   2.905   9.568  0.0000  0.0000  0.0000
 4574OM     OM1 4574   7.714   3.041   9.596  0.0000  0.0000  0.0000
 4575OM     OM1 4575   5.864   8.063   1.111  0.0000  0.0000  0.0000
 4576OM     OM1 4576   5.680   8.195   1.222  0.0000  0.0000  0.0000
 4577OM     OM1 4577   5.790   7.992   1.347  0.0000  0.0000  0.0000
 4578OM     OM1 4578   5.624   7.950   1.154  0.0000  0.0000  0.0000
 4579OM     OM1 4579   0.849   3.110   8.678  0.0000  0.0000  0.0000
 4580OM     OM1 4580   0.680   3.199   8.493  0.0000  0.0000  0.0000
 4581OM     OM1 4581   0.599   3.032   8.670  0.0000  0.0000  0.0000
 4582OM     OM1 4582   0.654   3.281   8.735  0.0000  0.0000  0.0000
 4583OM     OM1 4583   3.335   2.427   0.871  0.0000  0.0000  0.0000
 4584OM     OM1 4584   3.219   2.300   1.058  0.0000  0.0000  0.0000
 4585OM     OM1 4585   8.221   0.637   0.806  0.0000  0.0000  0.0000
 4586OM     OM1 4586   0.086   3.145   1.236  0.0000  0.0000  0.0000
 4587OM     OM1 4587   9.552   3.362   1.180  0.0000  0.0000  0.0000
 4588OM     OM1 4588   9.489   3.129   1.075  0.0000  0.0000  0.0000
 4589OM     OM1 4589   4.324   0.724   1.189  0.0000  0.0000  0.0000
 4590OM     OM1 4590   4.213   0.735   0.956  0.0000  0.0000  0.0000
 4591OM     OM1 4591   4.253   0.510   1.077  0.0000  0.0000  0.0000
 4592OM     OM1 4592   4.068   0.680   1.171  0.0000  0.0000  0.0000
 4593OM     OM1 4593   1.507   2.943   0.736  0.0000  0.0000  0.0000
 4594OM     OM1 4594   1.374   3.412   0.591  0.0000  0.0000  0.0000
 4595OM     OM1 4595   1.477   3.200   0.701  0.0000  0.0000  0.0000
 4596OM     OM1 4596   3.824   2.655   9.562  0.0000  0.0000  0.0000
 4597OM     OM1 4597   3.959   2.707   0.189  0.0000  0.0000  0.0000
 4598OM     OM1 4598   3.759   2.553   0.191  0.0000  0.0000  0.0000
 4599OM     OM1 4599   5.804   8.231   0.813  0.0000  0.0000  0.0000
 4600OM     OM1 4600   5.913   8.047   0.652  0.0000  0.0000  0.0000
 4601OM     OM1 4601   6.001   8.092   0.897  0.0000  0.0000  0.0000
 4602OM     OM1 4602   5.780   7.962   0.852  0.0000  0.0000  0.0000
 4603OM     OM1 4603   0.524   0.424   8.274  0.0000  0.0000  0.0000
 4604OM     OM1 4604   0.480   0.166   8.257  0.0000  0.0000  0.0000
 4605OM     OM1 4605   3.987   8.803   8.767  0.0000  0.0000  0.0000
 4606OM     OM1 4606   4.062   9.041   8.841  0.0000  0.0000  0.0000
 4607OM     OM1 4607   0.953   4.598   8.369  0.0000  0.0000  0.0000
 4608OM     OM1 4608   1.051   4.388   8.469  0.0000  0.0000  0.0000
 4609OM     OM1 4609   4.375   2.408   0.879  0.0000  0.0000  0.0000
 4610OM     OM1 4610   4.639   2.470   0.876  0.0000  0.0000  0.0000
 4611OM     OM1 4611   4.483   2.521   0.673  0.0000  0.0000  0.0000
 4612OM     OM1 4612   4.546   2.271   0.737  0.0000  0.0000  0.0000
 4613OM     OM1 4613   1.967   6.616   0.054  0.0000  0.0000  0.0000
 4614OM     OM1 4614   2.179   6.616   9.483  0.0000  0.0000  0.0000
 4615OM     OM1 4615   2.160   6.447   0.066  0.0000  0.0000  0.0000
 4616OM     OM1 4616   2.192   6.705   0.126  0.0000  0.0000  0.0000
 4617OM     OM1 4617   0.368   3.645   8.513  0.0000  0.0000  0.0000
 4618OM     OM1 4618   0.266   3.620   8.759  0.0000  0.0000  0.0000
 4619OM     OM1 4619   0.455   3.453   8.685  0.0000  0.0000  0.0000
 4620OM     OM1 4620   7.262   1.063   0.500  0.0000  0.0000  0.0000
 4621OM     OM1 4621   7.310   0.798   0.471  0.0000  0.0000  0.0000
 4622OM     OM1 4622   7.461   0.942   0.621  0.0000  0.0000  0.0000
 4623OM     OM1 4623   6.130   7.302   1.283  0.0000  0.0000  0.0000
 4624OM     OM1 4624   6.266   7.513   1.239  0.0000  0.0000  0.0000
 4625OM     OM1 4625   6.932   7.704   9.024  0.0000  0.0000  0.0000
 4626OM     OM1 4626   7.109   7.773   9.378  0.0000  0.0000  0.0000
 4627OM     OM1 4627   7.324   7.881   9.298  0.0000  0.0000  0.0000
 4628OM     OM1 4628   2.970   6.429   0.867  0.0000  0.0000  0.0000
 4629OM     OM1 4629   2.758   6.325   0.755  0.0000  0.0000  0.0000
 4630OM     OM1 4630   3.518   1.073   0.748  0.0000  0.0000  0.0000
 4631OM     OM1 4631   3.739   1.160   0.868  0.0000  0.0000  0.0000
 4632OM     OM1 4632   3.549   1.325   0.818  0.0000  0.0000  0.0000
 4633OM     OM1 4633   3.702   1.220   0.625  0.0000  0.0000  0.0000
 4634OM     OM1 4634   8.321   6.014   0.557  0.0000  0.0000  0.0000
 4635OM     OM1 4635   8.147   5.847   0.477  0.0000  0.0000  0.0000
 4636OM     OM1 4636   2.247   7.187   8.404  0.0000  0.0000  0.0000
 4637OM     OM1 4637   2.441   7.009   8.426  0.0000  0.0000  0.0000
 4638OM     OM1 4638   2.461   7.247   8.538  0.0000  0.0000  0.0000
 4639OM     OM1 4639   5.996   3.541   0.068  0.0000  0.0000  0.0000
 4640OM     OM1 4640   6.000   3.667   0.302  0.0000  0.0000  0.0000
 4641OM     OM1 4641   1.001   4.875   9.273  0.0000  0.0000  0.0000
 4642OM     OM1 4642   1.019   4.851   9.009  0.0000  0.0000  0.0000
 4643OM     OM1 4643   1.052   4.647   9.154  0.0000  0.0000  0.0000
 4644OM     OM1 4644   0.815   4.750   9.145  0.0000  0.0000  0.0000
 4645OM     OM1 4645   3.143   1.372   8.572  0.0000  0.0000  0.0000
 4646OM     OM1 4646   2.972   1.565   8.613  0.0000  0.0000  0.0000
 4647OM     OM1 4647   3.231   1.600   8.663  0.0000  0.0000  0.0000
 4648OM     OM1 4648   3.881   4.301   1.208  0.0000  0.0000  0.0000
 4649OM     OM1 4649   3.975   4.505   1.049  0.0000  0.0000  0.0000
 4650OM     OM1 4650   3.886   4.540   1.289  0.0000  0.0000  0.0000
 4651OM     OM1 4651   4.961   6.483   0.609  0.0000  0.0000  0.0000
 4652OM     OM1 4652   5.026   6.730   0.659  0.0000  0.0000  0.0000
 4653OM     OM1 4653   4.936   6.665   0.415  0.0000  0.0000  0.0000
 4654OM     OM1 4654   6.454   1.994   0.500  0.0000  0.0000  0.0000
 4655OM     OM1 4655   6.521   1.796   0.337  0.0000  0.0000  0.0000
 4656OM     OM1 4656   6.515   2.038   0.251  0.0000  0.0000  0.0000
 4657OM     OM1 4657   6.290   1.917   0.313  0.0000  0.0000  0.0000
 4658OM     OM1 4658   1.299   1.301   8.742  0.0000  0.0000  0.0000
 4659OM     OM1 4659   1.043   1.279   8.760  0.0000  0.0000  0.0000
 4660OM     OM1 4660   2.627   2.240   0.614  0.0000  0.0000  0.0000
 4661OM     OM1 4661   2.727   2.313   0.830  0.0000  0.0000  0.0000
 4662OM     OM1 4662   2.476   2.392   0.777  0.0000  0.0000  0.0000
 4663OM     OM1 4663   2.676   2.501   0.655  0.0000  0.0000  0.0000
 4664OM     OM1 4664   9.523   2.208   0.664  0.0000  0.0000  0.0000
 4665OM     OM1 4665   0.039   2.431   0.713  0.0000  0.0000  0.0000
 4666OM     OM1 4666   9.409   2.402   0.814  0.0000  0.0000  0.0000
 4667OM     OM1 4667   7.463   8.080   8.882  0.0000  0.0000  0.0000
 4668OM     OM1 4668   7.524   8.089   8.613  0.0000  0.0000  0.0000
 4669OM     OM1 4669   7.423   7.880   8.733  0.0000  0.0000  0.0000
 4670OM     OM1 4670   7.270   8.086   8.700  0.0000  0.0000  0.0000
 4671OM     OM1 4671   3.314   6.233   0.346  0.0000  0.0000  0.0000
 4672OM     OM1 4672   3.123   6.061   0.359  0.0000  0.0000  0.0000
 4673OM     OM1 4673   3.162   6.210   0.143  0.0000  0.0000  0.0000
 4674OM     OM1 4674   3.630   8.360   8.401  0.0000  0.0000  0.0000
 4675OM     OM1 4675   3.487   8.145   8.461  0.0000  0.0000  0.0000
 4676OM     OM1 4676   3.368   8.561   8.576  0.0000  0.0000  0.0000
 4677OM     OM1 4677   3.466   8.340   8.621  0.0000  0.0000  0.0000
 4678OM     OM1 4678   8.763   3.549   8.792  0.0000  0.0000  0.0000
 4679OM     OM1 4679   8.589   3.735   8.731  0.0000  0.0000  0.0000
 4680OM     OM1 4680   8.792   3.786   8.891  0.0000  0.0000  0.0000
 4681OM     OM1 4681   8.588   3.644   8.973  0.0000  0.0000  0.0000
 4682OM     OM1 4682   9.602   1.267   9.269  0.0000  0.0000  0.0000
 4683OM     OM1 4683   0.072   1.471   9.419  0.0000  0.0000  0.0000
 4684OM     OM1 4684   1.370   0.273   9.290  0.0000  0.0000  0.0000
 4685OM     OM1 4685   1.327   0.038   9.388  0.0000  0.0000  0.0000
 4686OM     OM1 4686   1.127   0.165   9.279  0.0000  0.0000  0.0000
 4687OM     OM1 4687   1.317   0.067   9.129  0.0000  0.0000  0.0000
 4688OM     OM1 4688   4.709   5.406   0.993  0.0000  0.0000  0.0000
 4689OM     OM1 4689   4.665   5.658   1.036  0.0000  0.0000  0.0000
 4690OM     OM1 4690   4.736   5.576   0.801  0.0000  0.0000  0.0000
 4691OM     OM1 4691   2.510   6.998   1.333  0.0000  0.0000  0.0000
 4692OM     OM1 4692   2.300   6.946   1.468  0.0000  0.0000  0.0000
 4693OM     OM1 4693   2.291   7.141   1.302  0.0000  0.0000  0.0000
 4694OM     OM1 4694   3.941   4.712   0.879  0.0000  0.0000  0.0000
 4695OM     OM1 4695   4.162   4.685   1.007  0.0000  0.0000  0.0000
 4696OM     OM1 4696   9.281   7.051   0.077  0.0000  0.0000  0.0000
 4697OM     OM1 4697   9.442   6.956   9.518  0.0000  0.0000  0.0000
 4698OM     OM1 4698   8.783   8.930   0.732  0.0000  0.0000  0.0000
 4699OM     OM1 4699   8.932   9.079   0.880  0.0000  0.0000  0.0000
 4700OM     OM1 4700   3.906   4.045   1.219  0.0000  0.0000  0.0000
 4701OM     OM1 4701   3.711   4.162   1.351  0.0000  0.0000  0.0000
 4702OM     OM1 4702   1.814   2.978   0.168  0.0000  0.0000  0.0000
 4703OM     OM1 4703   1.777   2.771   0.309  0.0000  0.0000  0.0000
 4704OM     OM1 4704   1.838   2.740   0.050  0.0000  0.0000  0.0000
 4705OM     OM1 4705   1.772   7.400   8.725  0.0000  0.0000  0.0000
 4706OM     OM1 4706   2.019   7.372   8.639  0.0000  0.0000  0.0000
 4707OM     OM1 4707   1.841   7.453   8.476  0.0000  0.0000  0.0000
 4708OM     OM1 4708   6.685   2.833   8.644  0.0000  0.0000  0.0000
 4709OM     OM1 4709   6.715   2.970   8.415  0.0000  0.0000  0.0000
 4710OM     OM1 4710   6.680   3.085   8.643  0.0000  0.0000  0.0000
 4711OM     OM1 4711   5.048   2.830   0.873  0.0000  0.0000  0.0000
 4712OM     OM1 4712   5.315   2.863   0.884  0.0000  0.0000  0.0000
 4713OM     OM1 4713   5.193   2.931   0.673  0.0000  0.0000  0.0000
 4714OM     OM1 4714   5.157   3.073   0.880  0.0000  0.0000  0.0000
 4715OM     OM1 4715   1.474   0.037   8.924  0.0000  0.0000  0.0000
 4716OM     OM1 4716   1.288   0.192   8.828  0.0000  0.0000  0.0000
 4717OM     OM1 4717   5.156   8.989   9.476  0.0000  0.0000  0.0000
 4718OM     OM1 4718   5.298   8.835   9.320  0.0000  0.0000  0.0000
 4719OM     OM1 4719   5.071   8.919   9.237  0.0000  0.0000  0.0000
 4720OM     OM1 4720   5.272   9.089   9.264  0.0000  0.0000  0.0000
 4721OM     OM1 4721   7.975   4.720   0.211  0.0000  0.0000  0.0000
 4722OM     OM1 4722   8.024   4.834   0.432  0.0000  0.0000  0.0000
 4723OM     OM1 4723   8.055   4.977   0.220  0.0000  0.0000  0.0000
 4724OM     OM1 4724   8.224   4.787   0.259  0.0000  0.0000  0.0000
 4725OM     OM1 4725   1.247   8.446   9.390  0.0000  0.0000  0.0000
 4726OM     OM1 4726   1.027   8.406   9.523  0.0000  0.0000  0.0000
 4727OM     OM1 4727   1.010   8.434   9.264  0.0000  0.0000  0.0000
 4728OM     OM1 4728   1.118   8.221   9.368  0.0000  0.0000  0.0000
 4729OM     OM1 4729   0.894   1.177   9.378  0.0000  0.0000  0.0000
 4730OM     OM1 4730   0.832   1.417   9.453  0.0000  0.0000  0.0000
 4731OM     OM1 4731   0.820   1.229   0.020  0.0000  0.0000  0.0000
 4732OM     OM1 4732   6.137   4.230   1.005  0.0000  0.0000  0.0000
 4733OM     OM1 4733   6.134   4.208   1.255  0.0000  0.0000  0.0000
 4734OM     OM1 4734   5.907   4.283   1.128  0.0000  0.0000  0.0000
 4735OM     OM1 4735   5.977   4.046   1.103  0.0000  0.0000  0.0000
 4736OM     OM1 4736   5.929   5.023   1.204  0.0000  0.0000  0.0000
 4737OM     OM1 4737   5.910   4.823   1.369  0.0000  0.0000  0.0000
 4738OM     OM1 4738   5.527   5.776   1.064  0.0000  0.0000  0.0000
 4739OM     OM1 4739   5.464   5.890   0.812  0.0000  0.0000  0.0000
 4740OM     OM1 4740   5.377   5.664   0.898  0.0000  0.0000  0.0000
 4741OM     OM1 4741   5.288   5.889   0.998  0.0000  0.0000  0.0000
 4742OM     OM1 4742   6.426   3.961   9.588  0.0000  0.0000  0.0000
 4743OM     OM1 4743   6.543   4.154   9.457  0.0000  0.0000  0.0000
 4744OM     OM1 4744   6.527   3.898   9.365  0.0000  0.0000  0.0000
 4745OM     OM1 4745   8.733   0.340   0.081  0.0000  0.0000  0.0000
 4746OM     OM1 4746   8.688   0.256   9.431  0.0000  0.0000  0.0000
 4747OM     OM1 4747   3.049   0.552   9.095  0.0000  0.0000  0.0000
 4748OM     OM1 4748   2.960   0.795   9.149  0.0000  0.0000  0.0000
 4749OM     OM1 4749   3.198   0.749   9.055  0.0000  0.0000  0.0000
 4750OM     OM1 4750   0.062   6.626   9.089  0.0000  0.0000  0.0000
 4751OM     OM1 4751   9.427   6.716   8.996  0.0000  0.0000  0.0000
 4752OM     OM1 4752   8.133   5.214   0.133  0.0000  0.0000  0.0000
 4753OM     OM1 4753   8.140   5.157   0.386  0.0000  0.0000  0.0000
 4754OM     OM1 4754   7.910   5.192   0.260  0.0000  0.0000  0.0000
 4755OM     OM1 4755   7.772   5.363   0.116  0.0000  0.0000  0.0000
 4756OM     OM1 4756   6.716   6.384   8.942  0.0000  0.0000  0.0000
 4757OM     OM1 4757   6.860   6.183   8.876  0.0000  0.0000  0.0000
 4758OM     OM1 4758   6.642   6.244   8.728  0.0000  0.0000  0.0000
 4759OM     OM1 4759   6.233   6.300   0.880  0.0000  0.0000  0.0000
 4760OM     OM1 4760   6.038   6.116   0.958  0.0000  0.0000  0.0000
 4761OM     OM1 4761   6.011   6.260   0.757  0.0000  0.0000  0.0000
 4762OM     OM1 4762   5.350   2.781   0.525  0.0000  0.0000  0.0000
 4763OM     OM1 4763   5.121   2.698   0.622  0.0000  0.0000  0.0000
 4764OM     OM1 4764   5.130   2.879   0.424  0.0000  0.0000  0.0000
 4765OM     OM1 4765   7.501   1.066   0.008  0.0000  0.0000  0.0000
 4766OM     OM1 4766   4.272   9.182   8.807  0.0000  0.0000  0.0000
 4767OM     OM1 4767   4.092   9.169   8.611  0.0000  0.0000  0.0000
 4768OM     OM1 4768   4.050   9.306   8.818  0.0000  0.0000  0.0000
 4769OM     OM1 4769   0.526   5.199   9.423  0.0000  0.0000  0.0000
 4770OM     OM1 4770   0.501   5.385   9.600  0.0000  0.0000  0.0000
 4771OM     OM1 4771   6.685   9.579   8.271  0.0000  0.0000  0.0000
 4772OM     OM1 4772   6.879   9.441   8.374  0.0000  0.0000  0.0000
 4773OM     OM1 4773   5.698   1.524   1.159  0.0000  0.0000  0.0000
 4774OM     OM1 4774   5.861   1.491   0.957  0.0000  0.0000  0.0000
 4775OM     OM1 4775   5.812   1.298   1.123  0.0000  0.0000  0.0000
 4776OM     OM1 4776   5.953   1.514   1.211  0.0000  0.0000  0.0000
 4777OM     OM1 4777   6.791   0.168   1.199  0.0000  0.0000  0.0000
 4778OM     OM1 4778   6.790   0.002   1.007  0.0000  0.0000  0.0000
 4779OM     OM1 4779   6.668   9.536   1.211  0.0000  0.0000  0.0000
 4780OM     OM1 4780   6.571   0.123   1.044  0.0000  0.0000  0.0000
 4781OM     OM1 4781   4.290   2.245   9.203  0.0000  0.0000  0.0000
 4782OM     OM1 4782   4.353   2.189   8.953  0.0000  0.0000  0.0000
 4783OM     OM1 4783   4.474   2.075   9.271  0.0000  0.0000  0.0000
 4784OM     OM1 4784   6.606   5.284   1.075  0.0000  0.0000  0.0000
 4785OM     OM1 4785   6.655   5.046   0.995  0.0000  0.0000  0.0000
 4786OM     OM1 4786   1.148   6.129   9.601  0.0000  0.0000  0.0000
 4787OM     OM1 4787   1.413   6.166   9.535  0.0000  0.0000  0.0000
 4788OM     OM1 4788   1.328   6.022   0.145  0.0000  0.0000  0.0000
 4789OM     OM1 4789   8.043   7.823   8.327  0.0000  0.0000  0.0000
 4790OM     OM1 4790   3.109   8.293   1.217  0.0000  0.0000  0.0000
 4791OM     OM1 4791   3.262   8.520   1.225  0.0000  0.0000  0.0000
 4792OM     OM1 4792   3.343   8.298   1.339  0.0000  0.0000  0.0000
 4793OM     OM1 4793   5.376   9.107   0.732  0.0000  0.0000  0.0000
 4794OM     OM1 4794   5.150   9.098   0.621  0.0000  0.0000  0.0000
 4795OM     OM1 4795   1.334   1.495   1.387  0.0000  0.0000  0.0000
 4796OM     OM1 4796   8.743   9.137   9.520  0.0000  0.0000  0.0000
 4797OM     OM1 4797   8.704   9.147   9.269  0.0000  0.0000  0.0000
 4798OM     OM1 4798   8.554   8.999   9.424  0.0000  0.0000  0.0000
 4799OM     OM1 4799   8.816   8.940   9.343  0.0000  0.0000  0.0000
 4800OM     OM1 4800   9.044   1.442   1.190  0.0000  0.0000  0.0000
 4801OM     OM1 4801   8.781   0.017   9.400  0.0000  0.0000  0.0000
 4802OM     OM1 4802   8.535   0.045   9.367  0.0000  0.0000  0.0000
 4803OM     OM1 4803   8.670   9.385   9.469  0.0000  0.0000  0.0000
 4804OM     OM1 4804   1.720   4.075   0.637  0.0000  0.0000  0.0000
 4805OM     OM1 4805   1.608   3.848   0.582  0.0000  0.0000  0.0000
 4806OM     OM1 4806   1.683   3.962   0.162  0.0000  0.0000  0.0000
 4807OM     OM1 4807   3.132   2.498   8.562  0.0000  0.0000  0.0000
 4808OM     OM1 4808   3.162   2.240   8.518  0.0000  0.0000  0.0000
 4809OM     OM1 4809   2.951   2.360   8.434  0.0000  0.0000  0.0000
 4810OM     OM1 4810   5.872   4.418   8.326  0.0000  0.0000  0.0000
 4811OM     OM1 4811   6.068   4.563   8.392  0.0000  0.0000  0.0000
 4812OM     OM1 4812   5.978   4.206   8.415  0.0000  0.0000  0.0000
 4813OM     OM1 4813   8.969   2.882   8.443  0.0000  0.0000  0.0000
 4814OM     OM1 4814   9.043   2.680   8.299  0.0000  0.0000  0.0000
 4815OM     OM1 4815   4.606   5.682   8.295  0.0000  0.0000  0.0000
 4816OM     OM1 4816   4.848   5.580   8.291  0.0000  0.0000  0.0000
 4817OM     OM1 4817   5.736   5.456   8.297  0.0000  0.0000  0.0000
 4818OM     OM1 4818   6.220   4.272   0.036  0.0000  0.0000  0.0000
 4819OM     OM1 4819   6.096   4.045   0.065  0.0000  0.0000  0.0000
 4820OM     OM1 4820   6.044   4.234   0.219  0.0000  0.0000  0.0000
 4821OM     OM1 4821   0.534   3.938   0.512  0.0000  0.0000  0.0000
 4822OM     OM1 4822   0.290   3.879   0.443  0.0000  0.0000  0.0000
 4823OM     OM1 4823   0.498   3.814   0.291  0.0000  0.0000  0.0000
 4824OM     OM1 4824   0.452   3.687   0.512  0.0000  0.0000  0.0000
 4825OM     OM1 4825   4.256   0.186   1.178  0.0000  0.0000  0.0000
 4826OM     OM1 4826   4.075   0.022   1.227  0.0000  0.0000  0.0000
 4827OM     OM1 4827   4.025   0.221   1.057  0.0000  0.0000  0.0000
 4828OM     OM1 4828   6.117   8.175   9.059  0.0000  0.0000  0.0000
 4829OM     OM1 4829   6.161   8.261   8.822  0.0000  0.0000  0.0000
 4830OM     OM1 4830   6.027   8.035   8.859  0.0000  0.0000  0.0000
 4831OM     OM1 4831   5.806   3.242   8.954  0.0000  0.0000  0.0000
 4832OM     OM1 4832   6.060   3.275   8.987  0.0000  0.0000  0.0000
 4833OM     OM1 4833   5.962   3.238   8.745  0.0000  0.0000  0.0000
 4834OM     OM1 4834   5.954   3.031   8.887  0.0000  0.0000  0.0000
 4835OM     OM1 4835   3.543   6.942   0.084  0.0000  0.0000  0.0000
 4836OM     OM1 4836   3.315   6.894   0.195  0.0000  0.0000  0.0000
 4837OM     OM1 4837   3.363   7.123   0.050  0.0000  0.0000  0.0000
 4838OM     OM1 4838   7.975   3.267   8.904  0.0000  0.0000  0.0000
 4839OM     OM1 4839   7.735   3.378   8.865  0.0000  0.0000  0.0000
 4840OM     OM1 4840   7.841   3.221   8.681  0.0000  0.0000  0.0000
 4841OM     OM1 4841   5.787   8.463   0.686  0.0000  0.0000  0.0000
 4842OM     OM1 4842   5.597   8.457   0.509  0.0000  0.0000  0.0000
 4843OM     OM1 4843   5.838   8.461   0.418  0.0000  0.0000  0.0000
 4844OM     OM1 4844   5.748   8.675   0.525  0.0000  0.0000  0.0000
 4845OM     OM1 4845   8.337   1.946   0.239  0.0000  0.0000  0.0000
 4846OM     OM1 4846   8.556   1.857   0.110  0.0000  0.0000  0.0000
 4847OM     OM1 4847   8.397   2.036   0.000  0.0000  0.0000  0.0000
 4848OM     OM1 4848   5.606   2.230   8.444  0.0000  0.0000  0.0000
 4849OM     OM1 4849   5.822   2.315   8.352  0.0000  0.0000  0.0000
 4850OM     OM1 4850   8.621   2.822   9.586  0.0000  0.0000  0.0000
 4851OM     OM1 4851   8.553   2.583   9.506  0.0000  0.0000  0.0000
 4852OM     OM1 4852   8.509   2.787   9.358  0.0000  0.0000  0.0000
 4853OM     OM1 4853   3.907   2.278   8.585  0.0000  0.0000  0.0000
 4854OM     OM1 4854   4.058   2.433   8.439  0.0000  0.0000  0.0000
 4855OM     OM1 4855   3.935   2.524   8.646  0.0000  0.0000  0.0000
 4856OM     OM1 4856   2.874   5.659   0.788  0.0000  0.0000  0.0000
 4857OM     OM1 4857   2.820   5.713   0.539  0.0000  0.0000  0.0000
 4858OM     OM1 4858   1.495   3.341   0.219  0.0000  0.0000  0.0000
 4859OM     OM1 4859   1.423   3.190   0.414  0.0000  0.0000  0.0000
 4860OM     OM1 4860   1.702   3.610   0.544  0.0000  0.0000  0.0000
 4861OM     OM1 4861   7.216   2.306   8.298  0.0000  0.0000  0.0000
 4862OM     OM1 4862   7.458   2.226   8.318  0.0000  0.0000  0.0000
 4863OM     OM1 4863   2.366   2.746   8.842  0.0000  0.0000  0.0000
 4864OM     OM1 4864   2.478   2.953   8.946  0.0000  0.0000  0.0000
 4865OM     OM1 4865   2.571   2.850   8.723  0.0000  0.0000  0.0000
 4866OM     OM1 4866   2.340   2.981   8.727  0.0000  0.0000  0.0000
 4867OM     OM1 4867   6.684   5.538   0.001  0.0000  0.0000  0.0000
 4868OM     OM1 4868   6.550   5.758   9.543  0.0000  0.0000  0.0000
 4869OM     OM1 4869   6.599   5.704   0.185  0.0000  0.0000  0.0000
 4870OM     OM1 4870   6.917   0.827   1.361  0.0000  0.0000  0.0000
 4871OM     OM1 4871   6.892   1.084   1.297  0.0000  0.0000  0.0000
 4872OM     OM1 4872   6.362   0.521   9.404  0.0000  0.0000  0.0000
 4873OM     OM1 4873   0.079   1.613   8.902  0.0000  0.0000  0.0000
 4874OM     OM1 4874   0.113   1.839   9.037  0.0000  0.0000  0.0000
 4875OM     OM1 4875   0.042   1.830   8.783  0.0000  0.0000  0.0000
 4876OM     OM1 4876   5.164   4.615   9.354  0.0000  0.0000  0.0000
 4877OM     OM1 4877   5.428   4.651   9.340  0.0000  0.0000  0.0000
 4878OM     OM1 4878   5.303   4.503   9.169  0.0000  0.0000  0.0000
 4879OM     OM1 4879   6.591   8.104   1.186  0.0000  0.0000  0.0000
 4880OM     OM1 4880   5.176   2.526   8.566  0.0000  0.0000  0.0000
 4881OM     OM1 4881   4.971   2.449   8.708  0.0000  0.0000  0.0000
 4882OM     OM1 4882   5.181   2.493   8.839  0.0000  0.0000  0.0000
 4883OM     OM1 4883   7.905   4.659   0.583  0.0000  0.0000  0.0000
 4884OM     OM1 4884   8.075   4.836   0.679  0.0000  0.0000  0.0000
 4885OM     OM1 4885   7.830   4.906   0.588  0.0000  0.0000  0.0000
 4886OM     OM1 4886   8.347   4.798   1.296  0.0000  0.0000  0.0000
 4887OM     OM1 4887   3.007   5.955   0.917  0.0000  0.0000  0.0000
 4888OM     OM1 4888   3.236   5.875   1.027  0.0000  0.0000  0.0000
 4889OM     OM1 4889   3.108   5.721   0.872  0.0000  0.0000  0.0000
 4890OM     OM1 4890   3.225   5.940   0.775  0.0000  0.0000  0.0000
 4891OM     OM1 4891   1.050   0.495   9.111  0.0000  0.0000  0.0000
 4892OM     OM1 4892   1.068   0.288   8.947  0.0000  0.0000  0.0000
 4893OM     OM1 4893   0.922   0.270   9.161  0.0000  0.0000  0.0000
 4894OM     OM1 4894   0.964   1.869   8.305  0.0000  0.0000  0.0000
 4895OM     OM1 4895   3.669   7.861   8.443  0.0000  0.0000  0.0000
 4896OM     OM1 4896   3.691   7.665   8.287  0.0000  0.0000  0.0000
 4897OM     OM1 4897   2.884   3.298   8.904  0.0000  0.0000  0.0000
 4898OM     OM1 4898   2.924   3.479   9.083  0.0000  0.0000  0.0000
 4899OM     OM1 4899   2.677   6.178   8.698  0.0000  0.0000  0.0000
 4900OM     OM1 4900   2.559   6.238   8.475  0.0000  0.0000  0.0000
 4901OM     OM1 4901   2.525   6.495   8.489  0.0000  0.0000  0.0000
 4902OM     OM1 4902   2.803   9.033   9.197  0.0000  0.0000  0.0000
 4903OM     OM1 4903   2.804   8.843   9.002  0.0000  0.0000  0.0000
 4904OM     OM1 4904   2.985   9.021   9.007  0.0000  0.0000  0.0000
 4905OM     OM1 4905   2.734   9.090   8.953  0.0000  0.0000  0.0000
 4906OM     OM1 4906   0.205   0.508   9.395  0.0000  0.0000  0.0000
 4907OM     OM1 4907   0.031   0.675   9.281  0.0000  0.0000  0.0000
 4908OM     OM1 4908   0.148   0.729   9.507  0.0000  0.0000  0.0000
 4909OM     OM1 4909   0.286   0.725   9.283  0.0000  0.0000  0.0000
 4910OM     OM1 4910   6.023   3.581   9.389  0.0000  0.0000  0.0000
 4911OM     OM1 4911   6.061   3.763   9.206  0.0000  0.0000  0.0000
 4912OM     OM1 4912   5.834   3.624   9.227  0.0000  0.0000  0.0000
 4913OM     OM1 4913   6.052   3.505   9.134  0.0000  0.0000  0.0000
 4914OM     OM1 4914   7.609   3.283   9.564  0.0000  0.0000  0.0000
 4915OM     OM1 4915   7.679   3.545   9.580  0.0000  0.0000  0.0000
 4916OM     OM1 4916   7.751   3.363   0.150  0.0000  0.0000  0.0000
 4917OM     OM1 4917   7.848   3.361   9.513  0.0000  0.0000  0.0000
 4918OM     OM1 4918   5.680   2.151   9.520  0.0000  0.0000  0.0000
 4919OM     OM1 4919   5.824   1.962   9.416  0.0000  0.0000  0.0000
 4920OM     OM1 4920   5.729   1.950   0.062  0.0000  0.0000  0.0000
 4921OM     OM1 4921   5.930   2.107   9.599  0.0000  0.0000  0.0000
 4922OM     OM1 4922   8.828   2.405   1.311  0.0000  0.0000  0.0000
 4923OM     OM1 4923   1.376   2.900   9.187  0.0000  0.0000  0.0000
 4924OM     OM1 4924   1.313   2.706   9.012  0.0000  0.0000  0.0000
 4925OM     OM1 4925   1.181   2.933   9.023  0.0000  0.0000  0.0000
 4926OM     OM1 4926   1.627   5.647   0.693  0.0000  0.0000  0.0000
 4927OM     OM1 4927   1.454   5.749   0.865  0.0000  0.0000  0.0000
 4928OM     OM1 4928   1.671   5.631   0.954  0.0000  0.0000  0.0000
 4929OM     OM1 4929   0.581   3.592   8.370  0.0000  0.0000  0.0000
 4930OM     OM1 4930   0.345   3.543   8.285  0.0000  0.0000  0.0000
 4931OM     OM1 4931   7.625   6.157   9.205  0.0000  0.0000  0.0000
 4932OM     OM1 4932   5.058   1.096   1.187  0.0000  0.0000  0.0000
 4933OM     OM1 4933   1.136   8.642   0.903  0.0000  0.0000  0.0000
 4934OM     OM1 4934   1.155   8.399   0.794  0.0000  0.0000  0.0000
 4935OM     OM1 4935   1.318   8.605   0.721  0.0000  0.0000  0.0000
 4936OM     OM1 4936   1.070   8.589   0.655  0.0000  0.0000  0.0000
 4937OM     OM1 4937   0.713   4.928   8.373  0.0000  0.0000  0.0000
 4938OM     OM1 4938   1.148   5.105   8.436  0.0000  0.0000  0.0000
 4939OM     OM1 4939   0.888   5.127   8.400  0.0000  0.0000  0.0000
 4940OM     OM1 4940   5.323   0.491   8.970  0.0000  0.0000  0.0000
 4941OM     OM1 4941   5.459   0.578   9.253  0.0000  0.0000  0.0000
 4942OM     OM1 4942   5.207   0.532   9.193  0.0000  0.0000  0.0000
 4943OM     OM1 4943   5.309   0.763   9.147  0.0000  0.0000  0.0000
 4944OM     OM1 4944   1.079   6.598   9.152  0.0000  0.0000  0.0000
 4945OM     OM1 4945   1.017   6.353   9.211  0.0000  0.0000  0.0000
 4946OM     OM1 4946   0.825   6.520   9.176  0.0000  0.0000  0.0000
 4947OM     OM1 4947   6.510   3.790   9.132  0.0000  0.0000  0.0000
 4948OM     OM1 4948   6.296   3.797   9.301  0.0000  0.0000  0.0000
 4949OM     OM1 4949   6.498   3.633   9.336  0.0000  0.0000  0.0000
 4950OM     OM1 4950   3.694   2.184   0.968  0.0000  0.0000  0.0000
 4951OM     OM1 4951   3.821   2.343   0.797  0.0000  0.0000  0.0000
 4952OM     OM1 4952   3.778   2.419   1.039  0.0000  0.0000  0.0000
 4953OM     OM1 4953   3.948   2.228   0.990  0.0000  0.0000  0.0000
 4954OM     OM1 4954   5.670   6.581   1.060  0.0000  0.0000  0.0000
 4955OM     OM1 4955   5.580   6.520   1.299  0.0000  0.0000  0.0000
 4956OM     OM1 4956   5.759   6.365   1.195  0.0000  0.0000  0.0000
 4957OM     OM1 4957   4.459   4.173   0.728  0.0000  0.0000  0.0000
 4958OM     OM1 4958   4.518   4.036   0.518  0.0000  0.0000  0.0000
 4959OM     OM1 4959   4.494   4.297   0.506  0.0000  0.0000  0.0000
 4960OM     OM1 4960   4.701   4.200   0.635  0.0000  0.0000  0.0000
 4961OM     OM1 4961   5.374   2.392   1.318  0.0000  0.0000  0.0000
 4962OM     OM1 4962   2.146   2.217   0.959  0.0000  0.0000  0.0000
 4963OM     OM1 4963   2.201   2.296   1.201  0.0000  0.0000  0.0000
 4964OM     OM1 4964   6.579   0.050   0.786  0.0000  0.0000  0.0000
 4965OM     OM1 4965   6.450   0.270   0.864  0.0000  0.0000  0.0000
 4966OM     OM1 4966   6.363   0.024   0.925  0.0000  0.0000  0.0000
 4967OM     OM1 4967   4.960   1.615   0.966  0.0000  0.0000  0.0000
 4968OM     OM1 4968   5.169   1.750   1.006  0.0000  0.0000  0.0000
 4969OM     OM1 4969   8.510   1.783   8.532  0.0000  0.0000  0.0000
 4970OM     OM1 4970   8.601   2.031   8.532  0.0000  0.0000  0.0000
 4971OM     OM1 4971   8.522   1.917   8.309  0.0000  0.0000  0.0000
 4972OM     OM1 4972   8.719   8.164   9.416  0.0000  0.0000  0.0000
 4973OM     OM1 4973   8.922   8.319   9.391  0.0000  0.0000  0.0000
 4974OM     OM1 4974   8.682   8.419   9.350  0.0000  0.0000  0.0000
 4975OM     OM1 4975   8.789   8.249   9.180  0.0000  0.0000  0.0000
 4976OM     OM1 4976   7.777   8.777   9.230  0.0000  0.0000  0.0000
 4977OM     OM1 4977   7.929   8.923   9.043  0.0000  0.0000  0.0000
 4978OM     OM1 4978   8.006   8.709   9.162  0.0000  0.0000  0.0000
 4979OM     OM1 4979   8.044   0.531   9.172  0.0000  0.0000  0.0000
 4980OM     OM1 4980   8.154   0.322   9.285  0.0000  0.0000  0.0000
 4981OM     OM1 4981   5.711   1.643   8.265  0.0000  0.0000  0.0000
 4982OM     OM1 4982   5.577   1.458   8.392  0.0000  0.0000  0.0000
 4983OM     OM1 4983   6.095   7.924   0.492  0.0000  0.0000  0.0000
 4984OM     OM1 4984   5.962   8.124   0.409  0.0000  0.0000  0.0000
 4985OM     OM1 4985   6.134   8.160   0.605  0.0000  0.0000  0.0000
 4986OM     OM1 4986   1.721   3.596   9.512  0.0000  0.0000  0.0000
 4987OM     OM1 4987   1.579   3.509   9.323  0.0000  0.0000  0.0000
 4988OM     OM1 4988   1.533   3.416   9.567  0.0000  0.0000  0.0000
 4989OM     OM1 4989   3.544   7.681   9.405  0.0000  0.0000  0.0000
 4990OM     OM1 4990   2.827   8.061   8.526  0.0000  0.0000  0.0000
 4991OM     OM1 4991   2.960   7.988   8.308  0.0000  0.0000  0.0000
 4992OM     OM1 4992   8.059   8.892   0.729  0.0000  0.0000  0.0000
 4993OM     OM1 4993   8.298   8.989   0.699  0.0000  0.0000  0.0000
 4994OM     OM1 4994   8.204   3.451   1.255  0.0000  0.0000  0.0000
 4995OM     OM1 4995   8.429   3.584   1.249  0.0000  0.0000  0.0000
 4996OM     OM1 4996   2.989   2.023   1.239  0.0000  0.0000  0.0000
 4997OM     OM1 4997   2.764   2.126   1.276  0.0000  0.0000  0.0000
 4998OM     OM1 4998   7.248   5.246   8.539  0.0000  0.0000  0.0000
 4999OM     OM1 4999   7.520   5.228   8.559  0.0000  0.0000  0.0000
 5000OM     OM1 5000   7.393   5.380   8.379  0.0000  0.0000  0.0000
 5001OM     OM1 5001   7.403   5.103   8.387  0.0000  0.0000  0.0000
 5002OM     OM1 5002   2.034   3.817   9.222  0.0000  0.0000  0.0000
 5003OM     OM1 5003   1.865   3.702   9.068  0.0000  0.0000  0.0000
 5004OM     OM1 5004   1.798   3.759   9.326  0.0000  0.0000  0.0000
 5005OM     OM1 5005   3.768   9.399   9.564  0.0000  0.0000  0.0000
 5006OM     OM1 5006   3.550   9.538   9.601  0.0000  0.0000  0.0000
 5007OM     OM1 5007   3.561   9.286   0.074  0.0000  0.0000  0.0000
 5008OM     OM1 5008   7.894   6.093   0.161  0.0000  0.0000  0.0000
 5009OM     OM1 5009   7.861   6.349   0.123  0.0000  0.0000  0.0000
 5010OM     OM1 5010   7.528   9.497   0.372  0.0000  0.0000  0.0000
 5011OM     OM1 5011   7.627   9.389   0.586  0.0000  0.0000  0.0000
 5012OM     OM1 5012   7.927   0.025   0.511  0.0000  0.0000  0.0000
 5013OM     OM1 5013   7.694   0.080   0.405  0.0000  0.0000  0.0000
 5014OM     OM1 5014   5.304   1.535   9.162  0.0000  0.0000  0.0000
 5015OM     OM1 5015   5.357   1.323   9.020  0.0000  0.0000  0.0000
 5016OM     OM1 5016   5.231   1.524   8.899  0.0000  0.0000  0.0000
 5017OM     OM1 5017   5.116   1.389   9.081  0.0000  0.0000  0.0000
 5018OM     OM1 5018   3.530   4.509   8.547  0.0000  0.0000  0.0000
 5019OM     OM1 5019   3.564   4.539   8.272  0.0000  0.0000  0.0000
 5020OM     OM1 5020   3.336   4.492   8.377  0.0000  0.0000  0.0000
 5021OM     OM1 5021   8.376   1.101   9.322  0.0000  0.0000  0.0000
 5022OM     OM1 5022   6.313   5.094   9.006  0.0000  0.0000  0.0000
 5023OM     OM1 5023   6.097   4.967   9.031  0.0000  0.0000  0.0000
 5024OM     OM1 5024   6.127   5.163   8.850  0.0000  0.0000  0.0000
 5025OM     OM1 5025   6.083   5.215   9.099  0.0000  0.0000  0.0000
 5026OM     OM1 5026   2.145   0.132   0.852  0.0000  0.0000  0.0000
 5027OM     OM1 5027   2.060   0.379   0.826  0.0000  0.0000  0.0000
 5028OM     OM1 5028   0.011   2.276   9.544  0.0000  0.0000  0.0000
 5029OM     OM1 5029   9.440   2.234   9.354  0.0000  0.0000  0.0000
 5030OM     OM1 5030   0.057   6.875   1.314  0.0000  0.0000  0.0000
 5031OM     OM1 5031   9.547   6.996   1.106  0.0000  0.0000  0.0000
 5032OM     OM1 5032   0.055   7.509   9.296  0.0000  0.0000  0.0000
 5033OM     OM1 5033   0.021   7.615   9.057  0.0000  0.0000  0.0000
 5034OM     OM1 5034   9.584   7.759   9.261  0.0000  0.0000  0.0000
 5035OM     OM1 5035   9.418   7.551   9.205  0.0000  0.0000  0.0000
 5036OM     OM1 5036   4.871   4.013   8.844  0.0000  0.0000  0.0000
 5037OM     OM1 5037   5.097   3.892   8.786  0.0000  0.0000  0.0000
 5038OM     OM1 5038   1.050   3.520   8.366  0.0000  0.0000  0.0000
 5039OM     OM1 5039   6.890   0.311   8.349  0.0000  0.0000  0.0000
 5040OM     OM1 5040   7.114   0.422   8.356  0.0000  0.0000  0.0000
 5041OM     OM1 5041   7.096   0.147   8.362  0.0000  0.0000  0.0000
 5042OM     OM1 5042   7.053   0.291   8.568  0.0000  0.0000  0.0000
 5043OM     OM1 5043   2.059   9.193   1.375  0.0000  0.0000  0.0000
 5044OM     OM1 5044   2.134   9.374   1.209  0.0000  0.0000  0.0000
 5045OM     OM1 5045   7.310   8.915   9.310  0.0000  0.0000  0.0000
 5046OM     OM1 5046   7.278   8.944   9.560  0.0000  0.0000  0.0000
 5047OM     OM1 5047   7.193   9.131   9.399  0.0000  0.0000  0.0000
 5048OM     OM1 5048   1.412   7.148   0.232  0.0000  0.0000  0.0000
 5049OM     OM1 5049   1.629   6.903   9.480  0.0000  0.0000  0.0000
 5050OM     OM1 5050   1.478   6.956   0.072  0.0000  0.0000  0.0000
 5051OM     OM1 5051   1.452   6.906   0.325  0.0000  0.0000  0.0000
 5052OM     OM1 5052   4.900   4.633   9.338  0.0000  0.0000  0.0000
 5053OM     OM1 5053   5.003   4.448   9.479  0.0000  0.0000  0.0000
 5054OM     OM1 5054   9.445   1.159   8.290  0.0000  0.0000  0.0000
 5055OM     OM1 5055   0.043   1.174   8.457  0.0000  0.0000  0.0000
 5056OM     OM1 5056   4.823   4.649   1.049  0.0000  0.0000  0.0000
 5057OM     OM1 5057   4.947   4.523   0.854  0.0000  0.0000  0.0000
 5058OM     OM1 5058   4.988   4.446   1.100  0.0000  0.0000  0.0000
 5059OM     OM1 5059   4.704   5.198   0.657  0.0000  0.0000  0.0000
 5060OM     OM1 5060   4.666   5.626   0.553  0.0000  0.0000  0.0000
 5061OM     OM1 5061   4.566   5.420   0.677  0.0000  0.0000  0.0000
 5062OM     OM1 5062   7.305   0.276   0.133  0.0000  0.0000  0.0000
 5063OM     OM1 5063   7.191   0.302   9.499  0.0000  0.0000  0.0000
 5064OM     OM1 5064   7.084   0.409   0.116  0.0000  0.0000  0.0000
 5065OM     OM1 5065   7.812   7.601   0.647  0.0000  0.0000  0.0000
 5066OM     OM1 5066   7.782   7.862   0.622  0.0000  0.0000  0.0000
 5067OM     OM1 5067   8.002   7.751   0.559  0.0000  0.0000  0.0000
 5068OM     OM1 5068   3.267   0.802   8.527  0.0000  0.0000  0.0000
 5069OM     OM1 5069   3.076   0.701   8.375  0.0000  0.0000  0.0000
 5070OM     OM1 5070   3.048   0.689   8.634  0.0000  0.0000  0.0000
 5071OM     OM1 5071   1.119   9.488   0.586  0.0000  0.0000  0.0000
 5072OM     OM1 5072   1.368   9.502   0.609  0.0000  0.0000  0.0000
 5073OM     OM1 5073   1.219   9.433   0.817  0.0000  0.0000  0.0000
 5074OM     OM1 5074   9.065   7.775   8.952  0.0000  0.0000  0.0000
 5075OM     OM1 5075   9.252   7.829   9.117  0.0000  0.0000  0.0000
 5076OM     OM1 5076   9.178   7.579   9.108  0.0000  0.0000  0.0000
 5077OM     OM1 5077   9.297   7.683   8.903  0.0000  0.0000  0.0000
 5078OM     OM1 5078   3.767   8.892   0.682  0.0000  0.0000  0.0000
 5079OM     OM1 5079   3.645   8.773   0.874  0.0000  0.0000  0.0000
 5080OM     OM1 5080   3.510   8.828   0.662  0.0000  0.0000  0.0000
 5081OM     OM1 5081   4.811   8.484   8.664  0.0000  0.0000  0.0000
 5082OM     OM1 5082   4.578   8.513   8.548  0.0000  0.0000  0.0000
 5083OM     OM1 5083   8.773   5.974   0.017  0.0000  0.0000  0.0000
 5084OM     OM1 5084   9.004   5.935   0.128  0.0000  0.0000  0.0000
 5085OM     OM1 5085   0.409   6.234   0.863  0.0000  0.0000  0.0000
 5086OM     OM1 5086   0.341   6.001   0.763  0.0000  0.0000  0.0000
 5087OM     OM1 5087   0.559   6.015   0.896  0.0000  0.0000  0.0000
 5088OM     OM1 5088   0.580   1.694   0.888  0.0000  0.0000  0.0000
 5089OM     OM1 5089   0.342   1.806   0.911  0.0000  0.0000  0.0000
 5090OM     OM1 5090   0.381   1.564   0.995  0.0000  0.0000  0.0000
 5091OM     OM1 5091   0.486   1.749   1.132  0.0000  0.0000  0.0000
 5092OM     OM1 5092   2.491   0.056   8.373  0.0000  0.0000  0.0000
 5093OM     OM1 5093   2.456   0.319   8.357  0.0000  0.0000  0.0000
 5094OM     OM1 5094   2.418   0.215   8.580  0.0000  0.0000  0.0000
 5095OM     OM1 5095   2.256   0.150   8.383  0.0000  0.0000  0.0000
 5096OM     OM1 5096   2.546   1.043   0.008  0.0000  0.0000  0.0000
 5097OM     OM1 5097   2.528   1.262   0.145  0.0000  0.0000  0.0000
 5098OM     OM1 5098   2.743   1.214   0.006  0.0000  0.0000  0.0000
 5099OM     OM1 5099   2.694   1.080   0.225  0.0000  0.0000  0.0000
 5100OM     OM1 5100   5.171   5.163   0.133  0.0000  0.0000  0.0000
 5101OM     OM1 5101   5.421   5.216   0.067  0.0000  0.0000  0.0000
 5102OM     OM1 5102   5.294   5.383   0.217  0.0000  0.0000  0.0000
 5103OM     OM1 5103   5.340   5.150   0.323  0.0000  0.0000  0.0000
 5104OM     OM1 5104   6.940   3.012   8.303  0.0000  0.0000  0.0000
 5105OM     OM1 5105   6.794   3.218   8.389  0.0000  0.0000  0.0000
 5106OM     OM1 5106   2.819   2.182   1.028  0.0000  0.0000  0.0000
 5107OM     OM1 5107   2.576   2.146   1.103  0.0000  0.0000  0.0000
 5108OM     OM1 5108   8.576   5.257   0.319  0.0000  0.0000  0.0000
 5109OM     OM1 5109   8.670   5.012   0.323  0.0000  0.0000  0.0000
 5110OM     OM1 5110   8.483   5.073   0.482  0.0000  0.0000  0.0000
 5111OM     OM1 5111   8.438   5.066   0.222  0.0000  0.0000  0.0000
 5112OM     OM1 5112   6.855   9.027   9.221  0.0000  0.0000  0.0000
 5113OM     OM1 5113   6.857   9.283   9.180  0.0000  0.0000  0.0000
 5114OM     OM1 5114   7.039   9.138   9.065  0.0000  0.0000  0.0000
 5115OM     OM1 5115   7.007   9.322   9.389  0.0000  0.0000  0.0000
 5116OM     OM1 5116   5.663   4.229   1.015  0.0000  0.0000  0.0000
 5117OM     OM1 5117   5.879   4.296   0.877  0.0000  0.0000  0.0000
 5118OM     OM1 5118   8.156   4.317   8.576  0.0000  0.0000  0.0000
 5119OM     OM1 5119   8.189   4.497   8.765  0.0000  0.0000  0.0000
 5120OM     OM1 5120   8.390   4.354   8.688  0.0000  0.0000  0.0000
 5121OM     OM1 5121   8.302   4.541   8.536  0.0000  0.0000  0.0000
 5122OM     OM1 5122   3.965   5.184   0.364  0.0000  0.0000  0.0000
 5123OM     OM1 5123   3.924   4.943   0.281  0.0000  0.0000  0.0000
 5124OM     OM1 5124   4.080   4.970   0.487  0.0000  0.0000  0.0000
 5125OM     OM1 5125   3.769   4.767   0.385  0.0000  0.0000  0.0000
 5126OM     OM1 5126   3.837   4.742   0.133  0.0000  0.0000  0.0000
 5127OM     OM1 5127   6.878   7.102   8.684  0.0000  0.0000  0.0000
 5128OM     OM1 5128   7.106   6.987   8.616  0.0000  0.0000  0.0000
 5129OM     OM1 5129   7.106   7.235   8.700  0.0000  0.0000  0.0000
 5130OM     OM1 5130   5.369   0.125   8.294  0.0000  0.0000  0.0000
 5131OM     OM1 5131   5.295   9.502   8.377  0.0000  0.0000  0.0000
 5132OM     OM1 5132   5.106   0.039   8.282  0.0000  0.0000  0.0000
 5133OM     OM1 5133   3.538   3.561   8.290  0.0000  0.0000  0.0000
 5134OM     OM1 5134   3.449   3.801   8.332  0.0000  0.0000  0.0000
 5135OM     OM1 5135   6.324   9.023   8.365  0.0000  0.0000  0.0000
 5136OM     OM1 5136   6.377   9.258   8.460  0.0000  0.0000  0.0000
 5137OM     OM1 5137   6.003   4.750   0.905  0.0000  0.0000  0.0000
 5138OM     OM1 5138   5.765   4.734   0.995  0.0000  0.0000  0.0000
 5139OM     OM1 5139   5.845   4.944   0.834  0.0000  0.0000  0.0000
 5140OM     OM1 5140   5.805   4.712   0.737  0.0000  0.0000  0.0000
 5141OM     OM1 5141   1.999   6.790   8.220  0.0000  0.0000  0.0000
 5142OM     OM1 5142   2.164   6.987   8.265  0.0000  0.0000  0.0000
 5143OM     OM1 5143   2.155   6.775   8.424  0.0000  0.0000  0.0000
 5144OM     OM1 5144   5.571   3.081   0.805  0.0000  0.0000  0.0000
 5145OM     OM1 5145   5.620   3.277   0.978  0.0000  0.0000  0.0000
 5146OM     OM1 5146   5.516   3.061   1.069  0.0000  0.0000  0.0000
 5147OM     OM1 5147   5.377   3.213   0.903  0.0000  0.0000  0.0000
 5148OM     OM1 5148   9.261   6.374   0.305  0.0000  0.0000  0.0000
 5149OM     OM1 5149   9.463   6.401   0.139  0.0000  0.0000  0.0000
 5150OM     OM1 5150   9.217   6.431   0.053  0.0000  0.0000  0.0000
 5151OM     OM1 5151   5.887   4.499   8.571  0.0000  0.0000  0.0000
 5152OM     OM1 5152   5.995   4.696   8.684  0.0000  0.0000  0.0000
 5153OM     OM1 5153   6.017   4.462   8.793  0.0000  0.0000  0.0000
 5154OM     OM1 5154   2.371   6.737   8.893  0.0000  0.0000  0.0000
 5155OM     OM1 5155   2.523   6.635   8.714  0.0000  0.0000  0.0000
 5156OM     OM1 5156   2.593   6.598   8.963  0.0000  0.0000  0.0000
 5157OM     OM1 5157   6.042   2.036   0.516  0.0000  0.0000  0.0000
 5158OM     OM1 5158   6.262   2.066   0.659  0.0000  0.0000  0.0000
 5159OM     OM1 5159   6.194   2.245   0.489  0.0000  0.0000  0.0000
 5160OM     OM1 5160   6.052   2.223   0.702  0.0000  0.0000  0.0000
 5161OM     OM1 5161   8.541   6.941   9.560  0.0000  0.0000  0.0000
 5162OM     OM1 5162   8.628   7.186   0.044  0.0000  0.0000  0.0000
 5163OM     OM1 5163   8.575   2.503   1.277  0.0000  0.0000  0.0000
 5164OM     OM1 5164   8.359   2.561   1.127  0.0000  0.0000  0.0000
 5165OM     OM1 5165   9.131   2.759   9.601  0.0000  0.0000  0.0000
 5166OM     OM1 5166   9.264   2.626   9.428  0.0000  0.0000  0.0000
 5167OM     OM1 5167   7.065   4.698   9.489  0.0000  0.0000  0.0000
 5168OM     OM1 5168   6.984   4.939   9.402  0.0000  0.0000  0.0000
 5169OM     OM1 5169   7.429   5.497   8.749  0.0000  0.0000  0.0000
 5170OM     OM1 5170   7.230   5.669   8.695  0.0000  0.0000  0.0000
 5171OM     OM1 5171   2.536   2.032   8.466  0.0000  0.0000  0.0000
 5172OM     OM1 5172   2.221   3.141   1.359  0.0000  0.0000  0.0000
 5173OM     OM1 5173   7.660   0.417   1.460  0.0000  0.0000  0.0000
 5174OM     OM1 5174   7.457   0.479   1.307  0.0000  0.0000  0.0000
 5175OM     OM1 5175   0.007   4.530   1.184  0.0000  0.0000  0.0000
 5176OM     OM1 5176   0.159   4.502   0.961  0.0000  0.0000  0.0000
 5177OM     OM1 5177   9.582   4.674   0.975  0.0000  0.0000  0.0000
 5178OM     OM1 5178   0.192   4.694   1.141  0.0000  0.0000  0.0000
 5179OM     OM1 5179   3.157   1.078   0.195  0.0000  0.0000  0.0000
 5180OM     OM1 5180   3.349   0.911   0.112  0.0000  0.0000  0.0000
 5181OM     OM1 5181   3.302   0.908   0.355  0.0000  0.0000  0.0000
 5182OM     OM1 5182   1.426   2.533   8.410  0.0000  0.0000  0.0000
 5183OM     OM1 5183   1.480   2.766   8.315  0.0000  0.0000  0.0000
 5184OM     OM1 5184   1.273   2.734   8.483  0.0000  0.0000  0.0000
 5185OM     OM1 5185   5.786   1.548   0.136  0.0000  0.0000  0.0000
 5186OM     OM1 5186   5.549   1.513   0.244  0.0000  0.0000  0.0000
 5187OM     OM1 5187   5.635   1.756   0.207  0.0000  0.0000  0.0000
 5188OM     OM1 5188   5.376   3.994   8.308  0.0000  0.0000  0.0000
 5189OM     OM1 5189   5.164   3.863   8.339  0.0000  0.0000  0.0000
 5190OM     OM1 5190   7.923   5.835   0.205  0.0000  0.0000  0.0000
 5191OM     OM1 5191   7.954   6.265   1.050  0.0000  0.0000  0.0000
 5192OM     OM1 5192   8.048   6.016   1.012  0.0000  0.0000  0.0000
 5193OM     OM1 5193   7.931   6.142   0.826  0.0000  0.0000  0.0000
 5194OM     OM1 5194   1.603   0.602   8.731  0.0000  0.0000  0.0000
 5195OM     OM1 5195   1.771   0.514   8.553  0.0000  0.0000  0.0000
 5196OM     OM1 5196   1.850   0.662   8.752  0.0000  0.0000  0.0000
 5197OM     OM1 5197   0.594   4.171   0.622  0.0000  0.0000  0.0000
 5198OM     OM1 5198   0.788   4.021   0.529  0.0000  0.0000  0.0000
 5199OM     OM1 5199   0.619   4.137   0.372  0.0000  0.0000  0.0000
 5200OM     OM1 5200   0.992   2.983   0.543  0.0000  0.0000  0.0000
 5201OM     OM1 5201   0.995   3.183   0.708  0.0000  0.0000  0.0000
 5202OM     OM1 5202   1.220   3.101   0.594  0.0000  0.0000  0.0000
 5203OM     OM1 5203   3.083   6.579   9.521  0.0000  0.0000  0.0000
 5204OM     OM1 5204   2.962   6.432   9.356  0.0000  0.0000  0.0000
 5205OM     OM1 5205   2.962   6.691   9.310  0.0000  0.0000  0.0000
 5206OM     OM1 5206   4.791   9.286   0.564  0.0000  0.0000  0.0000
 5207OM     OM1 5207   4.759   9.078   0.714  0.0000  0.0000  0.0000
 5208OM     OM1 5208   4.604   9.449   0.626  0.0000  0.0000  0.0000
 5209OM     OM1 5209   4.833   9.483   0.743  0.0000  0.0000  0.0000
 5210OM     OM1 5210   2.023   2.119   9.103  0.0000  0.0000  0.0000
 5211OM     OM1 5211   1.958   2.233   9.336  0.0000  0.0000  0.0000
 5212OM     OM1 5212   1.876   2.326   9.098  0.0000  0.0000  0.0000
 5213OM     OM1 5213   1.792   2.092   9.195  0.0000  0.0000  0.0000
 5214OM     OM1 5214   6.423   0.479   8.634  0.0000  0.0000  0.0000
 5215OM     OM1 5215   6.479   0.263   8.775  0.0000  0.0000  0.0000
 5216OM     OM1 5216   6.483   0.259   8.510  0.0000  0.0000  0.0000
 5217OM     OM1 5217   1.907   2.997   8.490  0.0000  0.0000  0.0000
 5218OM     OM1 5218   1.978   3.228   8.391  0.0000  0.0000  0.0000
 5219OM     OM1 5219   1.807   3.215   8.577  0.0000  0.0000  0.0000
 5220OM     OM1 5220   1.733   3.141   8.342  0.0000  0.0000  0.0000
 5221OM     OM1 5221   3.263   3.959   8.397  0.0000  0.0000  0.0000
 5222OM     OM1 5222   7.575   6.176   8.647  0.0000  0.0000  0.0000
 5223OM     OM1 5223   4.010   0.085   0.237  0.0000  0.0000  0.0000
 5224OM     OM1 5224   4.131   9.576   0.424  0.0000  0.0000  0.0000
 5225OM     OM1 5225   4.201   9.431   0.215  0.0000  0.0000  0.0000
 5226OM     OM1 5226   4.379   9.578   0.319  0.0000  0.0000  0.0000
 5227OM     OM1 5227   1.558   5.783   8.568  0.0000  0.0000  0.0000
 5228OM     OM1 5228   1.354   5.882   8.709  0.0000  0.0000  0.0000
 5229OM     OM1 5229   1.316   5.761   8.481  0.0000  0.0000  0.0000
 5230OM     OM1 5230   1.445   5.992   8.481  0.0000  0.0000  0.0000
 5231OM     OM1 5231   1.281   1.817   0.768  0.0000  0.0000  0.0000
 5232OM     OM1 5232   1.279   1.527   0.499  0.0000  0.0000  0.0000
 5233OM     OM1 5233   1.367   1.576   0.742  0.0000  0.0000  0.0000
 5234OM     OM1 5234   8.629   8.707   8.245  0.0000  0.0000  0.0000
 5235OM     OM1 5235   8.726   8.501   8.368  0.0000  0.0000  0.0000
 5236OM     OM1 5236   1.748   1.763   1.028  0.0000  0.0000  0.0000
 5237OM     OM1 5237   1.545   1.870   1.139  0.0000  0.0000  0.0000
 5238OM     OM1 5238   2.928   7.538   0.374  0.0000  0.0000  0.0000
 5239OM     OM1 5239   2.830   7.333   0.517  0.0000  0.0000  0.0000
 5240OM     OM1 5240   2.843   7.435   0.150  0.0000  0.0000  0.0000
 5241OM     OM1 5241   3.094   7.488   0.186  0.0000  0.0000  0.0000
 5242OM     OM1 5242   7.763   2.139   9.578  0.0000  0.0000  0.0000
 5243OM     OM1 5243   7.595   1.964   9.470  0.0000  0.0000  0.0000
 5244OM     OM1 5244   7.543   2.075   0.095  0.0000  0.0000  0.0000
 5245OM     OM1 5245   7.524   2.211   9.472  0.0000  0.0000  0.0000
 5246OM     OM1 5246   5.462   1.548   8.615  0.0000  0.0000  0.0000
 5247OM     OM1 5247   5.419   1.783   8.730  0.0000  0.0000  0.0000
 5248OM     OM1 5248   5.586   1.620   8.841  0.0000  0.0000  0.0000
 5249OM     OM1 5249   7.197   9.521   1.173  0.0000  0.0000  0.0000
 5250OM     OM1 5250   7.312   0.142   1.110  0.0000  0.0000  0.0000
 5251OM     OM1 5251   7.055   0.133   1.174  0.0000  0.0000  0.0000
 5252OM     OM1 5252   9.173   7.148   0.476  0.0000  0.0000  0.0000
 5253OM     OM1 5253   9.186   7.316   0.286  0.0000  0.0000  0.0000
 5254OM     OM1 5254   9.383   7.466   0.378  0.0000  0.0000  0.0000
 5255OM     OM1 5255   9.155   7.448   0.507  0.0000  0.0000  0.0000
 5256OM     OM1 5256   3.162   4.315   1.298  0.0000  0.0000  0.0000
 5257OM     OM1 5257   3.134   4.569   1.373  0.0000  0.0000  0.0000
 5258OM     OM1 5258   0.089   5.690   8.425  0.0000  0.0000  0.0000
 5259OM     OM1 5259   0.104   5.646   8.677  0.0000  0.0000  0.0000
 5260OM     OM1 5260   8.888   0.591   1.087  0.0000  0.0000  0.0000
 5261OM     OM1 5261   8.890   0.793   1.261  0.0000  0.0000  0.0000
 5262OM     OM1 5262   7.023   1.314   8.730  0.0000  0.0000  0.0000
 5263OM     OM1 5263   7.215   1.162   8.634  0.0000  0.0000  0.0000
 5264OM     OM1 5264   7.054   1.069   8.817  0.0000  0.0000  0.0000
 5265OM     OM1 5265   7.420   1.616   8.706  0.0000  0.0000  0.0000
 5266OM     OM1 5266   7.151   1.555   8.708  0.0000  0.0000  0.0000
 5267OM     OM1 5267   0.168   6.515   1.110  0.0000  0.0000  0.0000
 5268OM     OM1 5268   0.096   6.615   1.342  0.0000  0.0000  0.0000
 5269OM     OM1 5269   9.527   6.484   1.209  0.0000  0.0000  0.0000
 5270OM     OM1 5270   0.134   6.351   1.306  0.0000  0.0000  0.0000
 5271OM     OM1 5271   3.066   4.119   8.897  0.0000  0.0000  0.0000
 5272OM     OM1 5272   3.207   4.336   8.969  0.0000  0.0000  0.0000
 5273OM     OM1 5273   3.272   4.184   8.768  0.0000  0.0000  0.0000
 5274OM     OM1 5274   1.691   0.646   9.188  0.0000  0.0000  0.0000
 5275OM     OM1 5275   1.497   0.506   9.327  0.0000  0.0000  0.0000
 5276OM     OM1 5276   1.460   0.582   9.088  0.0000  0.0000  0.0000
 5277OM     OM1 5277   6.058   9.071   0.631  0.0000  0.0000  0.0000
 5278OM     OM1 5278   6.166   9.155   0.417  0.0000  0.0000  0.0000
 5279OM     OM1 5279   6.310   9.039   0.610  0.0000  0.0000  0.0000
 5280OM     OM1 5280   6.215   9.285   0.645  0.0000  0.0000  0.0000
 5281OM     OM1 5281   1.100   6.352   0.448  0.0000  0.0000  0.0000
 5282OM     OM1 5282   0.973   6.567   0.523  0.0000  0.0000  0.0000
 5283OM     OM1 5283   0.958   6.467   0.264  0.0000  0.0000  0.0000
 5284OM     OM1 5284   0.841   6.360   0.463  0.0000  0.0000  0.0000
 5285OM     OM1 5285   5.323   3.871   9.215  0.0000  0.0000  0.0000
 5286OM     OM1 5286   5.344   4.091   9.355  0.0000  0.0000  0.0000
 5287OM     OM1 5287   2.738   2.199   8.437  0.0000  0.0000  0.0000
 5288OM     OM1 5288   2.774   1.955   8.385  0.0000  0.0000  0.0000
 5289OM     OM1 5289   7.056   6.943   0.257  0.0000  0.0000  0.0000
 5290OM     OM1 5290   7.101   7.087   0.476  0.0000  0.0000  0.0000
 5291OM     OM1 5291   7.190   6.840   0.458  0.0000  0.0000  0.0000
 5292OM     OM1 5292   5.757   6.493   0.203  0.0000  0.0000  0.0000
 5293OM     OM1 5293   5.752   6.759   0.252  0.0000  0.0000  0.0000
 5294OM     OM1 5294   5.968   6.611   0.298  0.0000  0.0000  0.0000
 5295OM     OM1 5295   5.918   7.169   0.873  0.0000  0.0000  0.0000
 5296OM     OM1 5296   5.850   7.290   1.090  0.0000  0.0000  0.0000
 5297OM     OM1 5297   6.082   7.153   1.085  0.0000  0.0000  0.0000
 5298OM     OM1 5298   3.813   6.259   8.458  0.0000  0.0000  0.0000
 5299OM     OM1 5299   3.728   6.309   8.221  0.0000  0.0000  0.0000
 5300OM     OM1 5300   0.233   4.655   9.128  0.0000  0.0000  0.0000
 5301OM     OM1 5301   0.386   4.541   9.307  0.0000  0.0000  0.0000
 5302OM     OM1 5302   0.148   4.456   9.295  0.0000  0.0000  0.0000
 5303OM     OM1 5303   0.424   5.248   8.870  0.0000  0.0000  0.0000
 5304OM     OM1 5304   0.618   5.418   8.912  0.0000  0.0000  0.0000
 5305OM     OM1 5305   4.327   3.063   0.997  0.0000  0.0000  0.0000
 5306OM     OM1 5306   4.572   3.012   0.894  0.0000  0.0000  0.0000
 5307OM     OM1 5307   4.487   2.887   1.107  0.0000  0.0000  0.0000
 5308OM     OM1 5308   6.359   7.730   9.189  0.0000  0.0000  0.0000
 5309OM     OM1 5309   6.259   7.978   9.154  0.0000  0.0000  0.0000
 5310OM     OM1 5310   6.125   7.757   9.090  0.0000  0.0000  0.0000
 5311OM     OM1 5311   6.177   7.828   9.346  0.0000  0.0000  0.0000
 5312OM     OM1 5312   8.120   0.170   8.739  0.0000  0.0000  0.0000
 5313OM     OM1 5313   3.985   3.543   0.829  0.0000  0.0000  0.0000
 5314OM     OM1 5314   4.180   3.702   0.741  0.0000  0.0000  0.0000
 5315OM     OM1 5315   3.949   3.801   0.796  0.0000  0.0000  0.0000
 5316OM     OM1 5316   3.967   3.662   0.587  0.0000  0.0000  0.0000
 5317OM     OM1 5317   3.144   4.748   0.745  0.0000  0.0000  0.0000
 5318OM     OM1 5318   3.011   4.663   0.951  0.0000  0.0000  0.0000
 5319OM     OM1 5319   3.044   4.512   0.733  0.0000  0.0000  0.0000
 5320OM     OM1 5320   3.241   4.551   0.892  0.0000  0.0000  0.0000
 5321OM     OM1 5321   2.865   0.247   8.497  0.0000  0.0000  0.0000
 5322OM     OM1 5322   2.676   0.416   8.456  0.0000  0.0000  0.0000
 5323OM     OM1 5323   2.888   0.490   8.603  0.0000  0.0000  0.0000
 5324OM     OM1 5324   7.320   1.027   1.341  0.0000  0.0000  0.0000
 5325OM     OM1 5325   7.485   1.153   1.193  0.0000  0.0000  0.0000
 5326OM     OM1 5326   4.292   5.212   8.855  0.0000  0.0000  0.0000
 5327OM     OM1 5327   4.243   4.986   8.999  0.0000  0.0000  0.0000
 5328OM     OM1 5328   4.388   5.178   9.092  0.0000  0.0000  0.0000
 5329OM     OM1 5329   6.400   1.854   0.708  0.0000  0.0000  0.0000
 5330OM     OM1 5330   3.993   6.741   0.534  0.0000  0.0000  0.0000
 5331OM     OM1 5331   3.887   6.819   0.759  0.0000  0.0000  0.0000
 5332OM     OM1 5332   4.029   6.989   0.606  0.0000  0.0000  0.0000
 5333OM     OM1 5333   1.809   4.801   1.272  0.0000  0.0000  0.0000
 5334OM     OM1 5334   1.682   4.856   1.066  0.0000  0.0000  0.0000
 5335OM     OM1 5335   5.434   6.837   8.911  0.0000  0.0000  0.0000
 5336OM     OM1 5336   5.427   6.782   9.263  0.0000  0.0000  0.0000
 5337OM     OM1 5337   5.239   6.811   9.085  0.0000  0.0000  0.0000
 5338OM     OM1 5338   5.331   6.607   8.973  0.0000  0.0000  0.0000
 5339OM     OM1 5339   6.524   7.576   9.040  0.0000  0.0000  0.0000
 5340OM     OM1 5340   6.545   7.572   9.300  0.0000  0.0000  0.0000
 5341OM     OM1 5341   6.607   7.785   9.163  0.0000  0.0000  0.0000
 5342OM     OM1 5342   9.572   5.931   9.376  0.0000  0.0000  0.0000
 5343OM     OM1 5343   9.392   5.774   9.486  0.0000  0.0000  0.0000
 5344OM     OM1 5344   3.786   4.421   8.256  0.0000  0.0000  0.0000
 5345OM     OM1 5345   7.165   5.601   0.001  0.0000  0.0000  0.0000
 5346OM     OM1 5346   7.010   5.667   0.212  0.0000  0.0000  0.0000
 5347OM     OM1 5347   6.934   5.484   0.040  0.0000  0.0000  0.0000
 5348OM     OM1 5348   2.594   8.355   8.425  0.0000  0.0000  0.0000
 5349OM     OM1 5349   2.447   8.237   8.599  0.0000  0.0000  0.0000
 5350OM     OM1 5350   2.509   8.495   8.623  0.0000  0.0000  0.0000
 5351OM     OM1 5351   5.954   9.515   8.429  0.0000  0.0000  0.0000
 5352OM     OM1 5352   3.637   1.240   1.421  0.0000  0.0000  0.0000
 5353OM     OM1 5353   5.818   6.109   1.157  0.0000  0.0000  0.0000
 5354OM     OM1 5354   2.307   6.619   8.568  0.0000  0.0000  0.0000
 5355OM     OM1 5355   2.504   6.756   8.484  0.0000  0.0000  0.0000
 5356OM     OM1 5356   8.636   6.311   1.373  0.0000  0.0000  0.0000
 5357OM     OM1 5357   7.218   1.774   0.521  0.0000  0.0000  0.0000
 5358OM     OM1 5358   7.438   1.891   0.630  0.0000  0.0000  0.0000
 5359OM     OM1 5359   7.441   1.640   0.543  0.0000  0.0000  0.0000
 5360OM     OM1 5360   7.315   1.708   0.754  0.0000  0.0000  0.0000
 5361OM     OM1 5361   4.421   5.360   8.373  0.0000  0.0000  0.0000
 5362OM     OM1 5362   4.604   5.205   8.479  0.0000  0.0000  0.0000
 5363OM     OM1 5363   4.409   5.304   8.631  0.0000  0.0000  0.0000
 5364OM     OM1 5364   6.158   8.610   9.498  0.0000  0.0000  0.0000
 5365OM     OM1 5365   5.945   8.763   9.456  0.0000  0.0000  0.0000
 5366OM     OM1 5366   7.643   6.672   0.998  0.0000  0.0000  0.0000
 5367OM     OM1 5367   7.505   6.615   0.775  0.0000  0.0000  0.0000
 5368OM     OM1 5368   7.750   6.570   0.790  0.0000  0.0000  0.0000
 5369OM     OM1 5369   1.516   7.252   0.559  0.0000  0.0000  0.0000
 5370OM     OM1 5370   1.383   7.234   0.793  0.0000  0.0000  0.0000
 5371OM     OM1 5371   1.289   7.133   0.567  0.0000  0.0000  0.0000
 5372OM     OM1 5372   9.428   8.581   0.389  0.0000  0.0000  0.0000
 5373OM     OM1 5373   2.311   7.603   8.322  0.0000  0.0000  0.0000
 5374OM     OM1 5374   2.058   7.507   8.336  0.0000  0.0000  0.0000
 5375OM     OM1 5375   1.003   6.765   1.018  0.0000  0.0000  0.0000
 5376OM     OM1 5376   0.987   6.687   0.769  0.0000  0.0000  0.0000
 5377OM     OM1 5377   1.054   7.079   0.639  0.0000  0.0000  0.0000
 5378OM     OM1 5378   0.863   7.158   0.802  0.0000  0.0000  0.0000
 5379OM     OM1 5379   1.165   2.666   8.810  0.0000  0.0000  0.0000
 5380OM     OM1 5380   1.281   2.466   8.895  0.0000  0.0000  0.0000
 5381OM     OM1 5381   7.381   9.120   0.961  0.0000  0.0000  0.0000
 5382OM     OM1 5382   4.252   5.463   8.767  0.0000  0.0000  0.0000
 5383OM     OM1 5383   4.265   5.684   8.903  0.0000  0.0000  0.0000
 5384OM     OM1 5384   4.339   5.686   8.659  0.0000  0.0000  0.0000
 5385OM     OM1 5385   3.378   0.685   0.461  0.0000  0.0000  0.0000
 5386OM     OM1 5386   3.366   0.897   0.613  0.0000  0.0000  0.0000
 5387OM     OM1 5387   3.148   0.790   0.524  0.0000  0.0000  0.0000
 5388OM     OM1 5388   6.427   7.370   0.902  0.0000  0.0000  0.0000
 5389OM     OM1 5389   6.330   7.526   0.688  0.0000  0.0000  0.0000
 5390OM     OM1 5390   6.564   7.547   0.767  0.0000  0.0000  0.0000
 5391OM     OM1 5391   4.463   1.931   1.227  0.0000  0.0000  0.0000
 5392OM     OM1 5392   4.593   2.157   1.252  0.0000  0.0000  0.0000
 5393OM     OM1 5393   6.119   0.926   1.167  0.0000  0.0000  0.0000
 5394OM     OM1 5394   6.247   1.108   1.292  0.0000  0.0000  0.0000
 5395OM     OM1 5395   1.482   5.168   0.800  0.0000  0.0000  0.0000
 5396OM     OM1 5396   1.513   5.076   0.573  0.0000  0.0000  0.0000
 5397OM     OM1 5397   1.267   5.111   0.657  0.0000  0.0000  0.0000
 5398OM     OM1 5398   1.402   4.927   0.771  0.0000  0.0000  0.0000
 5399OM     OM1 5399   3.402   5.364   8.742  0.0000  0.0000  0.0000
 5400OM     OM1 5400   3.666   5.434   8.677  0.0000  0.0000  0.0000
 5401OM     OM1 5401   3.474   5.602   8.685  0.0000  0.0000  0.0000
 5402OM     OM1 5402   3.552   5.470   8.907  0.0000  0.0000  0.0000
 5403OM     OM1 5403   1.420   0.837   9.088  0.0000  0.0000  0.0000
 5404OM     OM1 5404   1.227   0.679   9.166  0.0000  0.0000  0.0000
 5405OM     OM1 5405   1.286   0.685   8.921  0.0000  0.0000  0.0000
 5406OM     OM1 5406   8.787   3.303   8.695  0.0000  0.0000  0.0000
 5407OM     OM1 5407   8.985   3.448   8.672  0.0000  0.0000  0.0000
 5408OM     OM1 5408   8.924   3.380   8.910  0.0000  0.0000  0.0000
 5409OM     OM1 5409   9.408   7.125   8.611  0.0000  0.0000  0.0000
 5410OM     OM1 5410   0.057   7.152   8.538  0.0000  0.0000  0.0000
 5411OM     OM1 5411   4.094   4.842   0.712  0.0000  0.0000  0.0000
 5412OM     OM1 5412   4.215   4.741   0.506  0.0000  0.0000  0.0000
 5413OM     OM1 5413   9.276   4.427   8.366  0.0000  0.0000  0.0000
 5414OM     OM1 5414   9.116   4.224   8.389  0.0000  0.0000  0.0000
 5415OM     OM1 5415   5.085   7.210   8.394  0.0000  0.0000  0.0000
 5416OM     OM1 5416   5.091   7.486   8.410  0.0000  0.0000  0.0000
 5417OM     OM1 5417   1.317   7.224   1.060  0.0000  0.0000  0.0000
 5418OM     OM1 5418   1.322   7.020   0.911  0.0000  0.0000  0.0000
 5419OM     OM1 5419   1.138   7.201   0.855  0.0000  0.0000  0.0000
 5420OM     OM1 5420   0.803   6.102   9.251  0.0000  0.0000  0.0000
 5421OM     OM1 5421   1.057   6.106   9.270  0.0000  0.0000  0.0000
 5422OM     OM1 5422   0.926   5.888   9.342  0.0000  0.0000  0.0000
 5423OM     OM1 5423   0.916   6.102   9.491  0.0000  0.0000  0.0000
 5424OM     OM1 5424   1.182   6.184   8.501  0.0000  0.0000  0.0000
 5425OM     OM1 5425   0.953   6.221   8.597  0.0000  0.0000  0.0000
 5426OM     OM1 5426   1.146   6.395   8.659  0.0000  0.0000  0.0000
 5427OM     OM1 5427   0.481   7.452   1.289  0.0000  0.0000  0.0000
 5428OM     OM1 5428   0.587   7.230   1.348  0.0000  0.0000  0.0000
 5429OM     OM1 5429   3.319   6.538   0.549  0.0000  0.0000  0.0000
 5430OM     OM1 5430   3.484   6.428   0.379  0.0000  0.0000  0.0000
 5431OM     OM1 5431   1.907   8.216   9.384  0.0000  0.0000  0.0000
 5432OM     OM1 5432   1.720   8.054   9.406  0.0000  0.0000  0.0000
 5433OM     OM1 5433   1.954   7.952   9.422  0.0000  0.0000  0.0000
 5434OM     OM1 5434   5.133   8.541   8.619  0.0000  0.0000  0.0000
 5435OM     OM1 5435   5.222   8.510   8.860  0.0000  0.0000  0.0000
 5436OM     OM1 5436   4.977   8.598   8.823  0.0000  0.0000  0.0000
 5437OM     OM1 5437   7.093   8.481   1.171  0.0000  0.0000  0.0000
 5438OM     OM1 5438   6.860   8.505   1.036  0.0000  0.0000  0.0000
 5439OM     OM1 5439   7.084   8.462   0.898  0.0000  0.0000  0.0000
 5440OM     OM1 5440   6.594   8.790   1.192  0.0000  0.0000  0.0000
 5441OM     OM1 5441   9.011   5.229   8.428  0.0000  0.0000  0.0000
 5442OM     OM1 5442   9.093   4.978   8.452  0.0000  0.0000  0.0000
 5443OM     OM1 5443   9.254   5.183   8.523  0.0000  0.0000  0.0000
 5444OM     OM1 5444   4.295   2.373   8.367  0.0000  0.0000  0.0000
 5445OM     OM1 5445   9.366   1.784   0.442  0.0000  0.0000  0.0000
 5446OM     OM1 5446   9.418   1.543   0.503  0.0000  0.0000  0.0000
 5447OM     OM1 5447   9.358   1.292   0.471  0.0000  0.0000  0.0000
 5448OM     OM1 5448   3.048   4.735   1.203  0.0000  0.0000  0.0000
 5449OM     OM1 5449   2.895   4.532   1.146  0.0000  0.0000  0.0000
 5450OM     OM1 5450   0.595   8.043   8.709  0.0000  0.0000  0.0000
 5451OM     OM1 5451   0.320   8.132   9.044  0.0000  0.0000  0.0000
 5452OM     OM1 5452   0.529   8.251   9.157  0.0000  0.0000  0.0000
 5453OM     OM1 5453   1.854   4.930   0.265  0.0000  0.0000  0.0000
 5454OM     OM1 5454   2.078   4.880   0.137  0.0000  0.0000  0.0000
 5455OM     OM1 5455   2.081   4.953   0.386  0.0000  0.0000  0.0000
 5456OM     OM1 5456   2.739   2.037   0.461  0.0000  0.0000  0.0000
 5457OM     OM1 5457   2.804   1.768   0.421  0.0000  0.0000  0.0000
 5458OM     OM1 5458   2.987   1.938   0.487  0.0000  0.0000  0.0000
 5459OM     OM1 5459   2.792   1.883   0.649  0.0000  0.0000  0.0000
 5460OM     OM1 5460   2.241   7.825   1.367  0.0000  0.0000  0.0000
 5461OM     OM1 5461   2.171   7.748   1.128  0.0000  0.0000  0.0000
 5462OM     OM1 5462   2.279   7.585   1.285  0.0000  0.0000  0.0000
 5463OM     OM1 5463   2.428   7.783   1.191  0.0000  0.0000  0.0000
 5464OM     OM1 5464   0.989   0.987   9.223  0.0000  0.0000  0.0000
 5465OM     OM1 5465   1.036   0.620   9.335  0.0000  0.0000  0.0000
 5466OM     OM1 5466   0.986   0.752   9.111  0.0000  0.0000  0.0000
 5467OM     OM1 5467   2.176   6.094   1.349  0.0000  0.0000  0.0000
 5468OM     OM1 5468   2.154   6.333   1.242  0.0000  0.0000  0.0000
 5469OM     OM1 5469   1.975   6.144   1.188  0.0000  0.0000  0.0000
 5470OM     OM1 5470   6.692   6.400   9.205  0.0000  0.0000  0.0000
 5471OM     OM1 5471   6.520   6.267   9.063  0.0000  0.0000  0.0000
 5472OM     OM1 5472   4.487   0.839   1.349  0.0000  0.0000  0.0000
 5473OM     OM1 5473   4.546   0.601   1.250  0.0000  0.0000  0.0000
 5474OM     OM1 5474   1.257   8.831   8.671  0.0000  0.0000  0.0000
 5475OM     OM1 5475   1.151   8.977   8.880  0.0000  0.0000  0.0000
 5476OM     OM1 5476   0.415   9.052   8.807  0.0000  0.0000  0.0000
 5477OM     OM1 5477   6.698   3.937   0.512  0.0000  0.0000  0.0000
 5478OM     OM1 5478   6.888   3.948   0.331  0.0000  0.0000  0.0000
 5479OM     OM1 5479   4.131   8.517   0.282  0.0000  0.0000  0.0000
 5480OM     OM1 5480   4.353   8.383   0.295  0.0000  0.0000  0.0000
 5481OM     OM1 5481   4.135   8.283   0.184  0.0000  0.0000  0.0000
 5482OM     OM1 5482   4.277   8.452   0.058  0.0000  0.0000  0.0000
 5483OM     OM1 5483   8.385   4.453   0.636  0.0000  0.0000  0.0000
 5484OM     OM1 5484   8.237   4.656   0.594  0.0000  0.0000  0.0000
 5485OM     OM1 5485   8.440   4.609   0.441  0.0000  0.0000  0.0000
 5486OM     OM1 5486   8.408   4.754   8.400  0.0000  0.0000  0.0000
 5487OM     OM1 5487   8.570   4.923   8.505  0.0000  0.0000  0.0000
 5488OM     OM1 5488   4.732   1.084   9.019  0.0000  0.0000  0.0000
 5489OM     OM1 5489   4.900   1.274   8.995  0.0000  0.0000  0.0000
 5490OM     OM1 5490   4.771   1.187   8.780  0.0000  0.0000  0.0000
 5491OM     OM1 5491   0.605   6.568   0.532  0.0000  0.0000  0.0000
 5492OM     OM1 5492   0.658   6.322   0.633  0.0000  0.0000  0.0000
 5493OM     OM1 5493   0.444   6.445   0.702  0.0000  0.0000  0.0000
 5494OM     OM1 5494   0.140   9.295   0.335  0.0000  0.0000  0.0000
 5495OM     OM1 5495   0.252   9.239   0.095  0.0000  0.0000  0.0000
 5496OM     OM1 5496   7.040   4.447   1.078  0.0000  0.0000  0.0000
 5497OM     OM1 5497   6.824   4.302   1.132  0.0000  0.0000  0.0000
 5498OM     OM1 5498   7.054   4.260   1.246  0.0000  0.0000  0.0000
 5499OM     OM1 5499   0.111   6.513   9.318  0.0000  0.0000  0.0000
 5500OM     OM1 5500   0.176   6.760   9.283  0.0000  0.0000  0.0000
 5501OM     OM1 5501   2.123   0.324   8.261  0.0000  0.0000  0.0000
 5502OM     OM1 5502   2.169   0.493   8.466  0.0000  0.0000  0.0000
 5503OM     OM1 5503   1.936   0.471   8.355  0.0000  0.0000  0.0000
 5504OM     OM1 5504   1.542   0.016   1.249  0.0000  0.0000  0.0000
 5505OM     OM1 5505   1.438   0.166   1.059  0.0000  0.0000  0.0000
 5506OM     OM1 5506   1.627   0.258   1.208  0.0000  0.0000  0.0000
 5507OM     OM1 5507   6.966   1.719   0.452  0.0000  0.0000  0.0000
 5508OM     OM1 5508   7.133   1.843   0.293  0.0000  0.0000  0.0000
 5509OM     OM1 5509   7.164   1.580   0.358  0.0000  0.0000  0.0000
 5510OM     OM1 5510   4.721   0.913   0.262  0.0000  0.0000  0.0000
 5511OM     OM1 5511   4.887   0.720   0.195  0.0000  0.0000  0.0000
 5512OM     OM1 5512   5.773   4.164   0.614  0.0000  0.0000  0.0000
 5513OM     OM1 5513   5.914   4.382   0.636  0.0000  0.0000  0.0000
 5514OM     OM1 5514   5.757   4.351   0.435  0.0000  0.0000  0.0000
 5515OM     OM1 5515   5.980   4.205   0.464  0.0000  0.0000  0.0000
 5516OM     OM1 5516   2.409   0.563   1.127  0.0000  0.0000  0.0000
 5517OM     OM1 5517   2.832   2.276   0.467  0.0000  0.0000  0.0000
 5518OM     OM1 5518   2.862   2.483   0.318  0.0000  0.0000  0.0000
 5519OM     OM1 5519   3.050   2.431   0.505  0.0000  0.0000  0.0000
 5520OM     OM1 5520   2.758   6.405   9.046  0.0000  0.0000  0.0000
 5521OM     OM1 5521   2.786   6.651   9.128  0.0000  0.0000  0.0000
 5522OM     OM1 5522   2.837   6.573   8.878  0.0000  0.0000  0.0000
 5523OM     OM1 5523   8.941   6.283   8.898  0.0000  0.0000  0.0000
 5524OM     OM1 5524   8.869   6.534   8.938  0.0000  0.0000  0.0000
 5525OM     OM1 5525   7.209   8.522   0.668  0.0000  0.0000  0.0000
 5526OM     OM1 5526   2.153   3.330   1.200  0.0000  0.0000  0.0000
 5527OM     OM1 5527   2.381   3.355   1.336  0.0000  0.0000  0.0000
 5528OM     OM1 5528   5.268   4.233   0.485  0.0000  0.0000  0.0000
 5529OM     OM1 5529   5.254   4.462   0.368  0.0000  0.0000  0.0000
 5530OM     OM1 5530   5.067   4.265   0.324  0.0000  0.0000  0.0000
 5531OM     OM1 5531   5.316   4.254   0.234  0.0000  0.0000  0.0000
 5532OM     OM1 5532   5.936   1.379   0.729  0.0000  0.0000  0.0000
 5533OM     OM1 5533   5.936   1.639   0.754  0.0000  0.0000  0.0000
 5534OM     OM1 5534   5.712   1.516   0.736  0.0000  0.0000  0.0000
 5535OM     OM1 5535   7.656   4.608   0.554  0.0000  0.0000  0.0000
 5536OM     OM1 5536   7.520   4.776   0.706  0.0000  0.0000  0.0000
 5537OM     OM1 5537   2.279   8.318   0.562  0.0000  0.0000  0.0000
 5538OM     OM1 5538   2.261   8.546   0.677  0.0000  0.0000  0.0000
 5539OM     OM1 5539   2.123   8.507   0.462  0.0000  0.0000  0.0000
 5540OM     OM1 5540   3.251   6.435   1.392  0.0000  0.0000  0.0000
 5541OM     OM1 5541   3.249   6.229   1.234  0.0000  0.0000  0.0000
 5542OM     OM1 5542   5.988   0.533   8.322  0.0000  0.0000  0.0000
 5543OM     OM1 5543   5.736   0.483   8.393  0.0000  0.0000  0.0000
 5544OM     OM1 5544   8.591   8.402   8.904  0.0000  0.0000  0.0000
 5545OM     OM1 5545   8.279   8.037   8.974  0.0000  0.0000  0.0000
 5546OM     OM1 5546   8.517   8.241   8.710  0.0000  0.0000  0.0000
 5547OM     OM1 5547   8.508   8.151   8.953  0.0000  0.0000  0.0000
 5548OM     OM1 5548   3.830   7.000   9.332  0.0000  0.0000  0.0000
 5549OM     OM1 5549   3.575   6.985   9.273  0.0000  0.0000  0.0000
 5550OM     OM1 5550   3.811   6.943   8.824  0.0000  0.0000  0.0000
 5551OM     OM1 5551   9.181   9.362   8.379  0.0000  0.0000  0.0000
 5552OM     OM1 5552   9.443   9.352   8.387  0.0000  0.0000  0.0000
 5553OM     OM1 5553   0.490   9.276   8.720  0.0000  0.0000  0.0000
 5554OM     OM1 5554   0.732   9.191   8.806  0.0000  0.0000  0.0000
 5555OM     OM1 5555   0.717   9.413   8.694  0.0000  0.0000  0.0000
 5556OM     OM1 5556   0.599   9.380   8.929  0.0000  0.0000  0.0000
 5557OM     OM1 5557   3.692   0.423   0.030  0.0000  0.0000  0.0000
 5558OM     OM1 5558   3.800   0.636   9.534  0.0000  0.0000  0.0000
 5559OM     OM1 5559   3.599   0.661   0.084  0.0000  0.0000  0.0000
 5560OM     OM1 5560   4.730   2.434   8.630  0.0000  0.0000  0.0000
 5561OM     OM1 5561   4.696   2.549   8.397  0.0000  0.0000  0.0000
 5562OM     OM1 5562   6.978   7.461   8.992  0.0000  0.0000  0.0000
 5563OM     OM1 5563   7.074   7.556   9.225  0.0000  0.0000  0.0000
 5564OM     OM1 5564   6.969   7.327   9.224  0.0000  0.0000  0.0000
 5565OM     OM1 5565   4.596   7.583   8.629  0.0000  0.0000  0.0000
 5566OM     OM1 5566   4.562   7.401   8.440  0.0000  0.0000  0.0000
 5567OM     OM1 5567   4.693   7.341   8.652  0.0000  0.0000  0.0000
 5568OM     OM1 5568   4.278   0.661   9.112  0.0000  0.0000  0.0000
 5569OM     OM1 5569   4.389   0.554   9.321  0.0000  0.0000  0.0000
 5570OM     OM1 5570   4.362   0.414   9.098  0.0000  0.0000  0.0000
 5571OM     OM1 5571   4.535   4.419   0.282  0.0000  0.0000  0.0000
 5572OM     OM1 5572   0.493   8.018   8.358  0.0000  0.0000  0.0000
 5573OM     OM1 5573   0.355   8.221   8.463  0.0000  0.0000  0.0000
 5574OM     OM1 5574   9.090   0.866   8.952  0.0000  0.0000  0.0000
 5575OM     OM1 5575   9.161   0.622   8.845  0.0000  0.0000  0.0000
 5576OM     OM1 5576   9.200   0.683   9.090  0.0000  0.0000  0.0000
 5577OM     OM1 5577   8.562   6.942   8.654  0.0000  0.0000  0.0000
 5578OM     OM1 5578   8.622   6.947   8.396  0.0000  0.0000  0.0000
 5579OM     OM1 5579   1.433   0.401   1.296  0.0000  0.0000  0.0000
 5580OM     OM1 5580   1.906   0.597   1.235  0.0000  0.0000  0.0000
 5581OM     OM1 5581   1.677   0.494   1.316  0.0000  0.0000  0.0000
 5582OM     OM1 5582   1.418   5.878   1.087  0.0000  0.0000  0.0000
 5583OM     OM1 5583   1.210   5.773   0.968  0.0000  0.0000  0.0000
 5584OM     OM1 5584   1.324   5.974   0.857  0.0000  0.0000  0.0000
 5585OM     OM1 5585   2.369   5.296   8.787  0.0000  0.0000  0.0000
 5586OM     OM1 5586   2.559   5.270   8.963  0.0000  0.0000  0.0000
 5587OM     OM1 5587   2.475   4.427   9.343  0.0000  0.0000  0.0000
 5588OM     OM1 5588   2.466   4.199   9.234  0.0000  0.0000  0.0000
 5589OM     OM1 5589   2.517   4.183   9.478  0.0000  0.0000  0.0000
 5590OM     OM1 5590   2.695   4.295   9.334  0.0000  0.0000  0.0000
 5591OM     OM1 5591   4.381   1.148   8.830  0.0000  0.0000  0.0000
 5592OM     OM1 5592   4.346   1.155   8.579  0.0000  0.0000  0.0000
 5593OM     OM1 5593   4.573   1.069   8.664  0.0000  0.0000  0.0000
 5594OM     OM1 5594   0.630   4.633   0.404  0.0000  0.0000  0.0000
 5595OM     OM1 5595   0.607   4.812   0.598  0.0000  0.0000  0.0000
 5596OM     OM1 5596   0.846   4.715   0.533  0.0000  0.0000  0.0000
 5597OM     OM1 5597   0.683   4.575   0.664  0.0000  0.0000  0.0000
 5598OM     OM1 5598   3.712   0.335   9.120  0.0000  0.0000  0.0000
 5599OM     OM1 5599   3.941   0.392   8.999  0.0000  0.0000  0.0000
 5600OM     OM1 5600   0.846   4.076   8.962  0.0000  0.0000  0.0000
 5601OM     OM1 5601   0.579   4.082   8.970  0.0000  0.0000  0.0000
 5602OM     OM1 5602   8.754   5.826   8.738  0.0000  0.0000  0.0000
 5603OM     OM1 5603   8.880   6.039   8.825  0.0000  0.0000  0.0000
 5604OM     OM1 5604   8.659   6.066   8.699  0.0000  0.0000  0.0000
 5605OM     OM1 5605   2.141   9.279   9.197  0.0000  0.0000  0.0000
 5606OM     OM1 5606   1.963   9.343   8.999  0.0000  0.0000  0.0000
 5607OM     OM1 5607   1.960   9.463   9.220  0.0000  0.0000  0.0000
 5608OM     OM1 5608   2.161   9.500   9.059  0.0000  0.0000  0.0000
 5609OM     OM1 5609   4.701   8.336   0.810  0.0000  0.0000  0.0000
 5610OM     OM1 5610   4.533   8.469   0.969  0.0000  0.0000  0.0000
 5611OM     OM1 5611   4.646   8.234   1.056  0.0000  0.0000  0.0000
 5612OM     OM1 5612   7.237   0.156   9.299  0.0000  0.0000  0.0000
 5613OM     OM1 5613   7.435   0.293   9.438  0.0000  0.0000  0.0000
 5614OM     OM1 5614   7.272   0.400   9.263  0.0000  0.0000  0.0000
 5615OM     OM1 5615   4.385   0.304   8.861  0.0000  0.0000  0.0000
 5616OM     OM1 5616   4.558   0.482   8.952  0.0000  0.0000  0.0000
 5617OM     OM1 5617   4.533   0.224   9.055  0.0000  0.0000  0.0000
 5618OM     OM1 5618   7.994   6.883   8.755  0.0000  0.0000  0.0000
 5619OM     OM1 5619   8.044   6.980   9.000  0.0000  0.0000  0.0000
 5620OM     OM1 5620   8.098   7.110   8.776  0.0000  0.0000  0.0000
 5621OM     OM1 5621   7.855   7.090   8.862  0.0000  0.0000  0.0000
 5622OM     OM1 5622   7.866   7.018   9.489  0.0000  0.0000  0.0000
 5623OM     OM1 5623   7.835   7.219   9.316  0.0000  0.0000  0.0000
 5624OM     OM1 5624   8.050   7.199   9.461  0.0000  0.0000  0.0000
 5625OM     OM1 5625   8.005   7.036   9.262  0.0000  0.0000  0.0000
 5626OM     OM1 5626   8.601   5.088   9.178  0.0000  0.0000  0.0000
 5627OM     OM1 5627   6.599   1.878   1.198  0.0000  0.0000  0.0000
 5628OM     OM1 5628   6.788   1.797   1.026  0.0000  0.0000  0.0000
 5629OM     OM1 5629   3.784   2.851   9.397  0.0000  0.0000  0.0000
 5630OM     OM1 5630   3.544   3.060   1.107  0.0000  0.0000  0.0000
 5631OM     OM1 5631   0.205   2.590   9.209  0.0000  0.0000  0.0000
 5632OM     OM1 5632   0.302   2.225   8.896  0.0000  0.0000  0.0000
 5633OM     OM1 5633   0.217   2.345   9.106  0.0000  0.0000  0.0000
 5634OM     OM1 5634   0.340   2.411   9.336  0.0000  0.0000  0.0000
 5635OM     OM1 5635   7.426   0.900   8.767  0.0000  0.0000  0.0000
 5636OM     OM1 5636   7.379   0.998   8.530  0.0000  0.0000  0.0000
 5637OM     OM1 5637   7.451   0.750   8.571  0.0000  0.0000  0.0000
 5638OM     OM1 5638   7.206   0.834   8.628  0.0000  0.0000  0.0000
 5639OM     OM1 5639   5.274   2.897   0.219  0.0000  0.0000  0.0000
 5640OM     OM1 5640   5.246   3.105   0.400  0.0000  0.0000  0.0000
 5641OM     OM1 5641   5.058   3.045   0.231  0.0000  0.0000  0.0000
 5642OM     OM1 5642   7.664   7.235   0.658  0.0000  0.0000  0.0000
 5643OM     OM1 5643   7.847   7.099   0.799  0.0000  0.0000  0.0000
 5644OM     OM1 5644   7.672   7.237   0.923  0.0000  0.0000  0.0000
 5645OM     OM1 5645   7.843   7.367   0.776  0.0000  0.0000  0.0000
 5646OM     OM1 5646   1.781   9.112   8.654  0.0000  0.0000  0.0000
 5647OM     OM1 5647   1.807   9.078   8.916  0.0000  0.0000  0.0000
 5648OM     OM1 5648   1.775   9.311   8.814  0.0000  0.0000  0.0000
 5649OM     OM1 5649   3.910   4.199   9.261  0.0000  0.0000  0.0000
 5650OM     OM1 5650   3.770   4.415   9.264  0.0000  0.0000  0.0000
 5651OM     OM1 5651   3.842   4.296   9.492  0.0000  0.0000  0.0000
 5652OM     OM1 5652   4.028   4.412   9.356  0.0000  0.0000  0.0000
 5653OM     OM1 5653   8.988   9.119   9.314  0.0000  0.0000  0.0000
 5654OM     OM1 5654   9.132   9.311   9.240  0.0000  0.0000  0.0000
 5655OM     OM1 5655   9.311   9.128   9.203  0.0000  0.0000  0.0000
 5656OM     OM1 5656   2.137   1.056   9.341  0.0000  0.0000  0.0000
 5657OM     OM1 5657   2.034   1.188   9.130  0.0000  0.0000  0.0000
 5658OM     OM1 5658   2.194   1.305   9.295  0.0000  0.0000  0.0000
 5659OM     OM1 5659   2.288   1.099   9.146  0.0000  0.0000  0.0000
 5660OM     OM1 5660   1.109   5.369   1.025  0.0000  0.0000  0.0000
 5661OM     OM1 5661   1.612   6.026   9.469  0.0000  0.0000  0.0000
 5662OM     OM1 5662   1.647   6.260   9.394  0.0000  0.0000  0.0000
 5663OM     OM1 5663   1.457   6.149   9.282  0.0000  0.0000  0.0000
 5664OM     OM1 5664   0.311   6.674   8.667  0.0000  0.0000  0.0000
 5665OM     OM1 5665   0.311   6.423   8.761  0.0000  0.0000  0.0000
 5666OM     OM1 5666   0.311   6.468   8.505  0.0000  0.0000  0.0000
 5667OM     OM1 5667   2.275   7.811   0.506  0.0000  0.0000  0.0000
 5668OM     OM1 5668   2.254   8.068   0.493  0.0000  0.0000  0.0000
 5669OM     OM1 5669   2.176   7.950   0.703  0.0000  0.0000  0.0000
 5670OM     OM1 5670   4.243   0.163   8.657  0.0000  0.0000  0.0000
 5671OM     OM1 5671   4.240   0.028   8.432  0.0000  0.0000  0.0000
 5672OM     OM1 5672   4.021   0.082   8.549  0.0000  0.0000  0.0000
 5673OM     OM1 5673   4.176   0.273   8.428  0.0000  0.0000  0.0000
 5674OM     OM1 5674   0.154   2.726   9.413  0.0000  0.0000  0.0000
 5675OM     OM1 5675   9.512   2.713   9.475  0.0000  0.0000  0.0000
 5676OM     OM1 5676   0.070   2.865   0.010  0.0000  0.0000  0.0000
 5677OM     OM1 5677   0.083   2.604   0.031  0.0000  0.0000  0.0000
 5678OM     OM1 5678   1.991   1.011   0.209  0.0000  0.0000  0.0000
 5679OM     OM1 5679   2.082   0.966   9.575  0.0000  0.0000  0.0000
 5680OM     OM1 5680   2.058   1.212   0.058  0.0000  0.0000  0.0000
 5681OM     OM1 5681   1.854   0.249   0.149  0.0000  0.0000  0.0000
 5682OM     OM1 5682   1.972   0.031   0.222  0.0000  0.0000  0.0000
 5683OM     OM1 5683   2.037   5.565   9.533  0.0000  0.0000  0.0000
 5684OM     OM1 5684   2.166   5.346   9.475  0.0000  0.0000  0.0000
 5685OM     OM1 5685   2.243   5.498   0.072  0.0000  0.0000  0.0000
 5686OM     OM1 5686   7.330   1.241   0.661  0.0000  0.0000  0.0000
 5687OM     OM1 5687   7.579   1.156   0.663  0.0000  0.0000  0.0000
 5688OM     OM1 5688   7.469   1.283   0.875  0.0000  0.0000  0.0000
 5689OM     OM1 5689   2.786   6.872   9.264  0.0000  0.0000  0.0000
 5690OM     OM1 5690   2.962   6.829   9.074  0.0000  0.0000  0.0000
 5691OM     OM1 5691   1.526   5.300   0.425  0.0000  0.0000  0.0000
 5692OM     OM1 5692   1.414   5.091   0.347  0.0000  0.0000  0.0000
 5693OM     OM1 5693   1.683   5.086   0.386  0.0000  0.0000  0.0000
 5694OM     OM1 5694   4.047   8.974   1.063  0.0000  0.0000  0.0000
 5695OM     OM1 5695   4.128   8.766   0.917  0.0000  0.0000  0.0000
 5696OM     OM1 5696   1.250   2.272   9.588  0.0000  0.0000  0.0000
 5697OM     OM1 5697   1.370   2.455   0.128  0.0000  0.0000  0.0000
 5698OM     OM1 5698   1.423   2.201   0.149  0.0000  0.0000  0.0000
 5699OM     OM1 5699   1.189   2.291   0.239  0.0000  0.0000  0.0000
 5700OM     OM1 5700   3.166   4.986   0.840  0.0000  0.0000  0.0000
 5701OM     OM1 5701   2.954   4.916   0.710  0.0000  0.0000  0.0000
 5702OM     OM1 5702   3.179   4.942   0.571  0.0000  0.0000  0.0000
 5703OM     OM1 5703   6.385   0.553   8.875  0.0000  0.0000  0.0000
 5704OM     OM1 5704   6.532   0.705   8.722  0.0000  0.0000  0.0000
 5705OM     OM1 5705   6.274   0.695   8.690  0.0000  0.0000  0.0000
 5706OM     OM1 5706   5.431   0.363   0.926  0.0000  0.0000  0.0000
 5707OM     OM1 5707   5.717   0.615   0.658  0.0000  0.0000  0.0000
 5708OM     OM1 5708   5.664   0.437   0.846  0.0000  0.0000  0.0000
 5709OM     OM1 5709   1.695   5.722   1.199  0.0000  0.0000  0.0000
 5710OM     OM1 5710   1.841   5.522   1.127  0.0000  0.0000  0.0000
 5711OM     OM1 5711   3.778   3.740   8.867  0.0000  0.0000  0.0000
 5712OM     OM1 5712   3.723   3.758   9.120  0.0000  0.0000  0.0000
 5713OM     OM1 5713   7.721   5.377   8.566  0.0000  0.0000  0.0000
 5714OM     OM1 5714   7.768   5.599   8.426  0.0000  0.0000  0.0000
 5715OM     OM1 5715   1.916   7.987   8.431  0.0000  0.0000  0.0000
 5716OM     OM1 5716   1.782   8.201   8.485  0.0000  0.0000  0.0000
 5717OM     OM1 5717   2.022   8.205   8.370  0.0000  0.0000  0.0000
 5718OM     OM1 5718   2.195   6.262   0.238  0.0000  0.0000  0.0000
 5719OM     OM1 5719   2.234   6.477   0.381  0.0000  0.0000  0.0000
 5720OM     OM1 5720   2.169   6.247   0.493  0.0000  0.0000  0.0000
 5721OM     OM1 5721   2.402   6.274   0.390  0.0000  0.0000  0.0000
 5722OM     OM1 5722   1.755   8.687   0.449  0.0000  0.0000  0.0000
 5723OM     OM1 5723   1.860   8.920   0.494  0.0000  0.0000  0.0000
 5724OM     OM1 5724   2.010   8.731   0.389  0.0000  0.0000  0.0000
 5725OM     OM1 5725   7.877   6.685   1.098  0.0000  0.0000  0.0000
 5726OM     OM1 5726   8.025   6.479   1.181  0.0000  0.0000  0.0000
 5727OM     OM1 5727   7.774   6.497   1.246  0.0000  0.0000  0.0000
 5728OM     OM1 5728   0.963   2.262   8.728  0.0000  0.0000  0.0000
 5729OM     OM1 5729   0.917   2.180   8.978  0.0000  0.0000  0.0000
 5730OM     OM1 5730   0.763   2.354   8.874  0.0000  0.0000  0.0000
 5731OM     OM1 5731   9.504   6.371   9.270  0.0000  0.0000  0.0000
 5732OM     OM1 5732   9.517   6.269   9.025  0.0000  0.0000  0.0000
 5733OM     OM1 5733   3.040   6.983   0.683  0.0000  0.0000  0.0000
 5734OM     OM1 5734   3.176   7.179   0.789  0.0000  0.0000  0.0000
 5735OM     OM1 5735   5.419   2.090   8.325  0.0000  0.0000  0.0000
 5736OM     OM1 5736   5.385   1.828   8.270  0.0000  0.0000  0.0000
 5737OM     OM1 5737   0.648   8.639   8.320  0.0000  0.0000  0.0000
 5738OM     OM1 5738   2.336   4.619   0.549  0.0000  0.0000  0.0000
 5739OM     OM1 5739   2.171   4.470   0.694  0.0000  0.0000  0.0000
 5740OM     OM1 5740   2.341   4.358   0.529  0.0000  0.0000  0.0000
 5741OM     OM1 5741   2.136   4.500   0.437  0.0000  0.0000  0.0000
 5742OM     OM1 5742   4.966   2.477   0.619  0.0000  0.0000  0.0000
 5743OM     OM1 5743   4.866   2.410   0.391  0.0000  0.0000  0.0000
 5744OM     OM1 5744   5.241   2.481   0.627  0.0000  0.0000  0.0000
 5745OM     OM1 5745   5.575   1.625   0.000  0.0000  0.0000  0.0000
 5746OM     OM1 5746   5.420   1.570   9.396  0.0000  0.0000  0.0000
 5747OM     OM1 5747   4.542   5.798   8.527  0.0000  0.0000  0.0000
 5748OM     OM1 5748   4.511   5.827   8.781  0.0000  0.0000  0.0000
 5749OM     OM1 5749   8.570   3.069   0.042  0.0000  0.0000  0.0000
 5750OM     OM1 5750   8.478   3.115   9.409  0.0000  0.0000  0.0000
 5751OM     OM1 5751   6.739   3.460   8.512  0.0000  0.0000  0.0000
 5752OM     OM1 5752   6.958   3.411   8.369  0.0000  0.0000  0.0000
 5753OM     OM1 5753   8.135   8.049   0.296  0.0000  0.0000  0.0000
 5754OM     OM1 5754   8.075   8.252   0.137  0.0000  0.0000  0.0000
 5755OM     OM1 5755   7.890   8.084   0.183  0.0000  0.0000  0.0000
 5756OM     OM1 5756   9.069   3.319   9.586  0.0000  0.0000  0.0000
 5757OM     OM1 5757   9.101   3.484   9.385  0.0000  0.0000  0.0000
 5758OM     OM1 5758   9.099   3.562   0.027  0.0000  0.0000  0.0000
 5759OM     OM1 5759   6.649   7.903   8.508  0.0000  0.0000  0.0000
 5760OM     OM1 5760   6.879   7.803   8.521  0.0000  0.0000  0.0000
 5761OM     OM1 5761   5.129   0.673   8.560  0.0000  0.0000  0.0000
 5762OM     OM1 5762   5.210   0.557   8.340  0.0000  0.0000  0.0000
 5763OM     OM1 5763   4.952   0.648   8.365  0.0000  0.0000  0.0000
 5764OM     OM1 5764   5.038   0.556   8.758  0.0000  0.0000  0.0000
 5765OM     OM1 5765   6.769   7.572   0.905  0.0000  0.0000  0.0000
 5766OM     OM1 5766   6.994   7.461   0.850  0.0000  0.0000  0.0000
 5767OM     OM1 5767   8.163   3.033   9.517  0.0000  0.0000  0.0000
 5768OM     OM1 5768   8.019   3.100   9.318  0.0000  0.0000  0.0000
 5769OM     OM1 5769   8.098   3.292   9.472  0.0000  0.0000  0.0000
 5770OM     OM1 5770   8.263   3.167   9.306  0.0000  0.0000  0.0000
 5771OM     OM1 5771   2.936   9.473   8.978  0.0000  0.0000  0.0000
 5772OM     OM1 5772   2.432   7.500   8.518  0.0000  0.0000  0.0000
 5773OM     OM1 5773   2.285   7.373   8.687  0.0000  0.0000  0.0000
 5774OM     OM1 5774   8.156   4.714   8.416  0.0000  0.0000  0.0000
 5775OM     OM1 5775   8.135   4.973   8.428  0.0000  0.0000  0.0000
 5776OM     OM1 5776   7.921   4.815   8.418  0.0000  0.0000  0.0000
 5777OM     OM1 5777   8.104   0.512   0.289  0.0000  0.0000  0.0000
 5778OM     OM1 5778   8.021   0.633   0.064  0.0000  0.0000  0.0000
 5779OM     OM1 5779   8.243   0.487   0.070  0.0000  0.0000  0.0000
 5780OM     OM1 5780   0.213   2.564   0.251  0.0000  0.0000  0.0000
 5781OM     OM1 5781   0.041   2.387   0.169  0.0000  0.0000  0.0000
 5782OM     OM1 5782   9.562   2.626   0.253  0.0000  0.0000  0.0000
 5783OM     OM1 5783   3.565   8.108   0.093  0.0000  0.0000  0.0000
 5784OM     OM1 5784   3.719   8.068   0.296  0.0000  0.0000  0.0000
 5785OM     OM1 5785   3.608   8.304   0.265  0.0000  0.0000  0.0000
 5786OM     OM1 5786   6.262   8.137   8.618  0.0000  0.0000  0.0000
 5787OM     OM1 5787   4.352   3.229   0.740  0.0000  0.0000  0.0000
 5788OM     OM1 5788   4.595   3.280   0.649  0.0000  0.0000  0.0000
 5789OM     OM1 5789   4.387   3.418   0.570  0.0000  0.0000  0.0000
 5790OM     OM1 5790   4.477   3.451   0.814  0.0000  0.0000  0.0000
 5791OM     OM1 5791   4.008   5.668   0.763  0.0000  0.0000  0.0000
 5792OM     OM1 5792   3.920   5.845   0.935  0.0000  0.0000  0.0000
 5793OM     OM1 5793   3.710   5.937   0.826  0.0000  0.0000  0.0000
 5794OM     OM1 5794   7.012   2.643   0.993  0.0000  0.0000  0.0000
 5795OM     OM1 5795   6.887   2.566   0.619  0.0000  0.0000  0.0000
 5796OM     OM1 5796   7.083   2.714   0.528  0.0000  0.0000  0.0000
 5797OM     OM1 5797   6.982   2.757   0.767  0.0000  0.0000  0.0000
 5798OM     OM1 5798   0.312   5.027   8.779  0.0000  0.0000  0.0000
 5799OM     OM1 5799   0.245   4.800   8.899  0.0000  0.0000  0.0000
 5800OM     OM1 5800   0.300   4.799   8.644  0.0000  0.0000  0.0000
 5801OM     OM1 5801   0.490   4.842   8.818  0.0000  0.0000  0.0000
 5802OM     OM1 5802   8.480   0.980   0.535  0.0000  0.0000  0.0000
 5803OM     OM1 5803   7.324   0.800   9.171  0.0000  0.0000  0.0000
 5804OM     OM1 5804   7.219   0.938   8.980  0.0000  0.0000  0.0000
 5805OM     OM1 5805   7.485   0.919   9.009  0.0000  0.0000  0.0000
 5806OM     OM1 5806   4.753   3.131   0.485  0.0000  0.0000  0.0000
 5807OM     OM1 5807   4.686   2.875   0.446  0.0000  0.0000  0.0000
 5808OM     OM1 5808   4.563   3.079   0.332  0.0000  0.0000  0.0000
 5809OM     OM1 5809   4.806   3.009   0.254  0.0000  0.0000  0.0000
 5810OM     OM1 5810   9.348   8.595   8.642  0.0000  0.0000  0.0000
 5811OM     OM1 5811   9.584   8.483   8.638  0.0000  0.0000  0.0000
 5812OM     OM1 5812   4.040   4.140   0.493  0.0000  0.0000  0.0000
 5813OM     OM1 5813   3.925   4.055   0.719  0.0000  0.0000  0.0000
 5814OM     OM1 5814   3.802   4.220   0.560  0.0000  0.0000  0.0000
 5815OM     OM1 5815   7.056   8.006   8.573  0.0000  0.0000  0.0000
 5816OM     OM1 5816   7.094   8.271   8.640  0.0000  0.0000  0.0000
 5817OM     OM1 5817   7.024   8.103   8.811  0.0000  0.0000  0.0000
 5818OM     OM1 5818   5.358   7.256   0.330  0.0000  0.0000  0.0000
 5819OM     OM1 5819   5.207   7.436   0.225  0.0000  0.0000  0.0000
 5820OM     OM1 5820   3.748   0.562   9.017  0.0000  0.0000  0.0000
 5821OM     OM1 5821   4.126   0.248   8.871  0.0000  0.0000  0.0000
 5822OM     OM1 5822   1.303   4.094   0.792  0.0000  0.0000  0.0000
 5823OM     OM1 5823   1.285   4.277   0.607  0.0000  0.0000  0.0000
 5824OM     OM1 5824   6.571   1.005   9.081  0.0000  0.0000  0.0000
 5825OM     OM1 5825   6.796   1.027   9.212  0.0000  0.0000  0.0000
 5826OM     OM1 5826   7.015   1.051   9.083  0.0000  0.0000  0.0000
 5827OM     OM1 5827   6.934   1.255   9.227  0.0000  0.0000  0.0000
 5828OM     OM1 5828   0.546   5.689   1.124  0.0000  0.0000  0.0000
 5829OM     OM1 5829   0.372   5.643   1.304  0.0000  0.0000  0.0000
 5830OM     OM1 5830   9.018   4.700   1.326  0.0000  0.0000  0.0000
 5831OM     OM1 5831   8.001   0.508   0.529  0.0000  0.0000  0.0000
 5832OM     OM1 5832   3.900   7.541   1.103  0.0000  0.0000  0.0000
 5833OM     OM1 5833   3.741   7.628   1.291  0.0000  0.0000  0.0000
 5834OM     OM1 5834   3.981   7.711   1.291  0.0000  0.0000  0.0000
 5835OM     OM1 5835   5.485   5.666   9.325  0.0000  0.0000  0.0000
 5836OM     OM1 5836   5.493   5.916   9.262  0.0000  0.0000  0.0000
 5837OM     OM1 5837   5.477   6.055   9.034  0.0000  0.0000  0.0000
 5838OM     OM1 5838   5.681   6.083   9.182  0.0000  0.0000  0.0000
 5839OM     OM1 5839   1.336   3.468   1.286  0.0000  0.0000  0.0000
 5840OM     OM1 5840   1.457   3.698   1.283  0.0000  0.0000  0.0000
 5841OM     OM1 5841   1.215   3.676   1.185  0.0000  0.0000  0.0000
 5842OM     OM1 5842   1.396   3.547   1.065  0.0000  0.0000  0.0000
 5843OM     OM1 5843   5.619   0.404   1.106  0.0000  0.0000  0.0000
 5844OM     OM1 5844   5.857   0.599   0.883  0.0000  0.0000  0.0000
 5845OM     OM1 5845   6.172   3.862   8.296  0.0000  0.0000  0.0000
 5846OM     OM1 5846   6.411   3.734   8.257  0.0000  0.0000  0.0000
 5847OM     OM1 5847   7.674   0.609   8.576  0.0000  0.0000  0.0000
 5848OM     OM1 5848   7.642   0.806   8.400  0.0000  0.0000  0.0000
 5849OM     OM1 5849   7.509   0.597   8.377  0.0000  0.0000  0.0000
 5850OM     OM1 5850   6.489   9.208   0.324  0.0000  0.0000  0.0000
 5851OM     OM1 5851   6.554   9.449   0.247  0.0000  0.0000  0.0000
 5852OM     OM1 5852   6.342   9.419   0.390  0.0000  0.0000  0.0000
 5853OM     OM1 5853   7.092   5.892   0.294  0.0000  0.0000  0.0000
 5854OM     OM1 5854   8.839   3.426   1.159  0.0000  0.0000  0.0000
 5855OM     OM1 5855   9.007   3.484   0.973  0.0000  0.0000  0.0000
 5856OM     OM1 5856   8.974   3.655   1.177  0.0000  0.0000  0.0000
 5857OM     OM1 5857   8.789   3.632   0.998  0.0000  0.0000  0.0000
 5858OM     OM1 5858   7.495   0.118   0.238  0.0000  0.0000  0.0000
 5859OM     OM1 5859   7.248   0.066   0.282  0.0000  0.0000  0.0000
 5860OM     OM1 5860   2.856   8.821   8.442  0.0000  0.0000  0.0000
 5861OM     OM1 5861   2.811   8.915   8.674  0.0000  0.0000  0.0000
 5862OM     OM1 5862   5.962   2.841   8.686  0.0000  0.0000  0.0000
 5863OM     OM1 5863   5.824   2.893   9.122  0.0000  0.0000  0.0000
 5864OM     OM1 5864   5.818   2.794   8.899  0.0000  0.0000  0.0000
 5865OM     OM1 5865   1.609   4.926   8.625  0.0000  0.0000  0.0000
 5866OM     OM1 5866   1.389   5.059   8.562  0.0000  0.0000  0.0000
 5867OM     OM1 5867   1.462   5.029   8.810  0.0000  0.0000  0.0000
 5868OM     OM1 5868   0.776   6.458   0.076  0.0000  0.0000  0.0000
 5869OM     OM1 5869   0.940   6.249   0.108  0.0000  0.0000  0.0000
 5870OM     OM1 5870   3.912   2.789   0.880  0.0000  0.0000  0.0000
 5871OM     OM1 5871   3.714   2.883   1.024  0.0000  0.0000  0.0000
 5872OM     OM1 5872   3.694   2.886   0.761  0.0000  0.0000  0.0000
 5873OM     OM1 5873   6.097   5.920   0.349  0.0000  0.0000  0.0000
 5874OM     OM1 5874   6.179   6.170   0.401  0.0000  0.0000  0.0000
 5875OM     OM1 5875   6.112   6.098   0.159  0.0000  0.0000  0.0000
 5876OM     OM1 5876   2.063   7.497   9.523  0.0000  0.0000  0.0000
 5877OM     OM1 5877   1.919   7.640   0.070  0.0000  0.0000  0.0000
 5878OM     OM1 5878   2.096   7.763   9.521  0.0000  0.0000  0.0000
 5879OM     OM1 5879   2.184   7.619   0.110  0.0000  0.0000  0.0000
 5880OM     OM1 5880   5.645   7.710   8.963  0.0000  0.0000  0.0000
 5881OM     OM1 5881   5.635   7.944   9.049  0.0000  0.0000  0.0000
 5882OM     OM1 5882   5.748   7.754   9.202  0.0000  0.0000  0.0000
 5883OM     OM1 5883   5.861   7.865   8.977  0.0000  0.0000  0.0000
 5884OM     OM1 5884   2.306   1.500   0.826  0.0000  0.0000  0.0000
 5885OM     OM1 5885   2.364   1.474   0.564  0.0000  0.0000  0.0000
 5886OM     OM1 5886   2.362   1.713   0.676  0.0000  0.0000  0.0000
 5887OM     OM1 5887   2.109   3.060   8.645  0.0000  0.0000  0.0000
 5888OM     OM1 5888   2.025   2.804   8.623  0.0000  0.0000  0.0000
 5889OM     OM1 5889   1.819   3.827   9.582  0.0000  0.0000  0.0000
 5890OM     OM1 5890   1.936   3.976   0.162  0.0000  0.0000  0.0000
 5891OM     OM1 5891   1.817   3.747   0.222  0.0000  0.0000  0.0000
 5892OM     OM1 5892   1.205   9.482   1.070  0.0000  0.0000  0.0000
 5893OM     OM1 5893   1.137   9.238   1.076  0.0000  0.0000  0.0000
 5894OM     OM1 5894   1.395   9.300   1.108  0.0000  0.0000  0.0000
 5895OM     OM1 5895   5.154   5.664   9.115  0.0000  0.0000  0.0000
 5896OM     OM1 5896   5.176   5.452   8.965  0.0000  0.0000  0.0000
 5897OM     OM1 5897   5.002   5.449   9.154  0.0000  0.0000  0.0000
 5898OM     OM1 5898   6.574   5.539   1.047  0.0000  0.0000  0.0000
 5899OM     OM1 5899   6.749   5.607   0.869  0.0000  0.0000  0.0000
 5900OM     OM1 5900   6.574   5.783   0.931  0.0000  0.0000  0.0000
 5901OM     OM1 5901   3.239   5.838   0.287  0.0000  0.0000  0.0000
 5902OM     OM1 5902   3.234   5.708   0.065  0.0000  0.0000  0.0000
 5903OM     OM1 5903   3.471   5.773   0.169  0.0000  0.0000  0.0000
 5904OM     OM1 5904   9.290   3.939   8.870  0.0000  0.0000  0.0000
 5905OM     OM1 5905   9.175   3.721   8.963  0.0000  0.0000  0.0000
 5906OM     OM1 5906   9.027   3.894   8.843  0.0000  0.0000  0.0000
 5907OM     OM1 5907   9.193   3.763   8.698  0.0000  0.0000  0.0000
 5908OM     OM1 5908   0.465   0.106   8.896  0.0000  0.0000  0.0000
 5909OM     OM1 5909   0.280   9.520   8.894  0.0000  0.0000  0.0000
 5910OM     OM1 5910   0.290   0.077   9.090  0.0000  0.0000  0.0000
 5911OM     OM1 5911   2.242   5.136   9.313  0.0000  0.0000  0.0000
 5912OM     OM1 5912   2.426   5.114   9.121  0.0000  0.0000  0.0000
 5913OM     OM1 5913   2.374   4.908   9.254  0.0000  0.0000  0.0000
 5914OM     OM1 5914   2.224   4.072   8.705  0.0000  0.0000  0.0000
 5915OM     OM1 5915   2.129   4.017   8.931  0.0000  0.0000  0.0000
 5916OM     OM1 5916   2.109   3.838   8.735  0.0000  0.0000  0.0000
 5917OM     OM1 5917   5.564   8.790   8.880  0.0000  0.0000  0.0000
 5918OM     OM1 5918   5.726   8.941   9.006  0.0000  0.0000  0.0000
 5919OM     OM1 5919   3.924   4.761   1.412  0.0000  0.0000  0.0000
 5920OM     OM1 5920   6.622   0.926   9.595  0.0000  0.0000  0.0000
 5921OM     OM1 5921   6.598   0.911   9.329  0.0000  0.0000  0.0000
 5922OM     OM1 5922   6.553   1.136   9.451  0.0000  0.0000  0.0000
 5923OM     OM1 5923   3.023   5.300   9.513  0.0000  0.0000  0.0000
 5924OM     OM1 5924   3.199   5.363   0.081  0.0000  0.0000  0.0000
 5925OM     OM1 5925   3.120   5.542   9.514  0.0000  0.0000  0.0000
 5926OM     OM1 5926   0.887   7.625   0.525  0.0000  0.0000  0.0000
 5927OM     OM1 5927   1.199   7.626   0.659  0.0000  0.0000  0.0000
 5928OM     OM1 5928   1.835   6.280   1.013  0.0000  0.0000  0.0000
 5929OM     OM1 5929   2.073   6.199   0.961  0.0000  0.0000  0.0000
 5930OM     OM1 5930   9.522   2.129   0.413  0.0000  0.0000  0.0000
 5931OM     OM1 5931   9.428   1.950   0.257  0.0000  0.0000  0.0000
 5932OM     OM1 5932   9.501   2.177   0.154  0.0000  0.0000  0.0000
 5933OM     OM1 5933   9.288   2.173   0.299  0.0000  0.0000  0.0000
 5934OM     OM1 5934   1.555   5.405   0.704  0.0000  0.0000  0.0000
 5935OM     OM1 5935   8.485   7.130   9.204  0.0000  0.0000  0.0000
 5936OM     OM1 5936   8.285   7.205   9.360  0.0000  0.0000  0.0000
 5937OM     OM1 5937   9.194   4.383   9.105  0.0000  0.0000  0.0000
 5938OM     OM1 5938   9.305   4.177   8.976  0.0000  0.0000  0.0000
 5939OM     OM1 5939   1.515   8.622   0.881  0.0000  0.0000  0.0000
 5940OM     OM1 5940   1.573   8.679   1.119  0.0000  0.0000  0.0000
 5941OM     OM1 5941   1.769   8.616   0.946  0.0000  0.0000  0.0000
 5942OM     OM1 5942   1.616   8.433   1.030  0.0000  0.0000  0.0000
 5943OM     OM1 5943   5.197   2.083   0.373  0.0000  0.0000  0.0000
 5944OM     OM1 5944   5.377   2.268   0.418  0.0000  0.0000  0.0000
 5945OM     OM1 5945   5.112   2.312   0.396  0.0000  0.0000  0.0000
 5946OM     OM1 5946   0.481   8.570   0.831  0.0000  0.0000  0.0000
 5947OM     OM1 5947   0.438   8.442   0.609  0.0000  0.0000  0.0000
 5948OM     OM1 5948   0.241   8.468   0.785  0.0000  0.0000  0.0000
 5949OM     OM1 5949   1.389   7.644   0.403  0.0000  0.0000  0.0000
 5950OM     OM1 5950   1.418   7.901   0.386  0.0000  0.0000  0.0000
 5951OM     OM1 5951   1.618   7.740   0.453  0.0000  0.0000  0.0000
 5952OM     OM1 5952   1.412   7.775   0.619  0.0000  0.0000  0.0000
 5953OM     OM1 5953   4.763   9.464   0.250  0.0000  0.0000  0.0000
 5954OM     OM1 5954   4.896   0.079   0.318  0.0000  0.0000  0.0000
 5955OM     OM1 5955   4.799   9.540   0.492  0.0000  0.0000  0.0000
 5956OM     OM1 5956   4.629   0.061   0.340  0.0000  0.0000  0.0000
 5957OM     OM1 5957   7.968   0.294   9.465  0.0000  0.0000  0.0000
 5958OM     OM1 5958   7.887   0.348   0.092  0.0000  0.0000  0.0000
 5959OM     OM1 5959   7.854   0.522   9.507  0.0000  0.0000  0.0000
 5960OM     OM1 5960   7.700   0.319   9.508  0.0000  0.0000  0.0000
 5961OM     OM1 5961   3.485   5.876   1.120  0.0000  0.0000  0.0000
 5962OM     OM1 5962   3.396   5.693   0.960  0.0000  0.0000  0.0000
 5963OM     OM1 5963   2.588   6.859   1.112  0.0000  0.0000  0.0000
 5964OM     OM1 5964   2.704   7.161   1.196  0.0000  0.0000  0.0000
 5965OM     OM1 5965   2.760   6.932   1.287  0.0000  0.0000  0.0000
 5966OM     OM1 5966   3.897   1.638   0.193  0.0000  0.0000  0.0000
 5967OM     OM1 5967   4.055   1.649   0.405  0.0000  0.0000  0.0000
 5968OM     OM1 5968   8.084   3.912   1.067  0.0000  0.0000  0.0000
 5969OM     OM1 5969   8.212   3.703   1.182  0.0000  0.0000  0.0000
 5970OM     OM1 5970   3.401   4.669   8.696  0.0000  0.0000  0.0000
 5971OM     OM1 5971   3.531   4.467   8.813  0.0000  0.0000  0.0000
 5972OM     OM1 5972   3.325   4.415   8.669  0.0000  0.0000  0.0000
 5973OM     OM1 5973   3.445   4.802   8.898  0.0000  0.0000  0.0000
 5974OM     OM1 5974   5.592   9.026   1.411  0.0000  0.0000  0.0000
 5975OM     OM1 5975   5.821   9.107   1.314  0.0000  0.0000  0.0000
 5976OM     OM1 5976   3.561   5.599   0.782  0.0000  0.0000  0.0000
 5977OM     OM1 5977   3.790   5.627   0.901  0.0000  0.0000  0.0000
 5978OM     OM1 5978   4.680   4.764   0.864  0.0000  0.0000  0.0000
 5979OM     OM1 5979   4.787   5.167   1.064  0.0000  0.0000  0.0000
 5980OM     OM1 5980   4.826   4.911   1.013  0.0000  0.0000  0.0000
 5981OM     OM1 5981   4.616   4.802   1.118  0.0000  0.0000  0.0000
 5982OM     OM1 5982   1.820   8.908   1.079  0.0000  0.0000  0.0000
 5983OM     OM1 5983   1.963   9.085   0.942  0.0000  0.0000  0.0000
 5984OM     OM1 5984   3.560   4.199   0.454  0.0000  0.0000  0.0000
 5985OM     OM1 5985   3.727   4.368   0.356  0.0000  0.0000  0.0000
 5986OM     OM1 5986   3.634   4.411   0.602  0.0000  0.0000  0.0000
 5987OM     OM1 5987   6.700   3.662   8.999  0.0000  0.0000  0.0000
 5988OM     OM1 5988   6.739   3.908   9.067  0.0000  0.0000  0.0000
 5989OM     OM1 5989   7.040   7.611   0.630  0.0000  0.0000  0.0000
 5990OM     OM1 5990   7.137   7.764   0.449  0.0000  0.0000  0.0000
 5991OM     OM1 5991   6.152   2.945   1.190  0.0000  0.0000  0.0000
 5992OM     OM1 5992   6.377   3.071   1.141  0.0000  0.0000  0.0000
 5993OM     OM1 5993   1.237   5.609   9.134  0.0000  0.0000  0.0000
 5994OM     OM1 5994   1.106   5.535   8.922  0.0000  0.0000  0.0000
 5995OM     OM1 5995   1.364   5.481   8.948  0.0000  0.0000  0.0000
 5996OM     OM1 5996   1.294   5.726   8.906  0.0000  0.0000  0.0000
 5997OM     OM1 5997   5.776   3.271   1.425  0.0000  0.0000  0.0000
 5998OM     OM1 5998   5.837   3.013   1.431  0.0000  0.0000  0.0000
 5999OM     OM1 5999   4.824   6.816   0.233  0.0000  0.0000  0.0000
 6000OM     OM1 6000   2.641   3.422   1.347  0.0000  0.0000  0.0000
 6001OM     OM1 6001   2.461   3.598   1.296  0.0000  0.0000  0.0000
 6002OM     OM1 6002   5.855   0.826   9.034  0.0000  0.0000  0.0000
 6003OM     OM1 6003   5.642   0.943   9.132  0.0000  0.0000  0.0000
 6004OM     OM1 6004   5.648   0.687   9.109  0.0000  0.0000  0.0000
 6005OM     OM1 6005   3.952   7.087   8.428  0.0000  0.0000  0.0000
 6006OM     OM1 6006   3.932   6.821   8.440  0.0000  0.0000  0.0000
 6007OM     OM1 6007   4.921   3.311   9.455  0.0000  0.0000  0.0000
 6008OM     OM1 6008   4.942   3.455   0.070  0.0000  0.0000  0.0000
 6009OM     OM1 6009   4.886   3.205   0.099  0.0000  0.0000  0.0000
 6010OM     OM1 6010   5.115   3.266   0.016  0.0000  0.0000  0.0000
 6011OM     OM1 6011   9.373   4.174   9.508  0.0000  0.0000  0.0000
 6012OM     OM1 6012   9.340   3.924   9.562  0.0000  0.0000  0.0000
 6013OM     OM1 6013   8.421   9.472   8.435  0.0000  0.0000  0.0000
 6014OM     OM1 6014   8.674   9.399   8.438  0.0000  0.0000  0.0000
 6015OM     OM1 6015   8.503   9.303   8.610  0.0000  0.0000  0.0000
 6016OM     OM1 6016   5.286   4.688   0.801  0.0000  0.0000  0.0000
 6017OM     OM1 6017   5.290   4.422   0.771  0.0000  0.0000  0.0000
 6018OM     OM1 6018   5.353   4.584   0.571  0.0000  0.0000  0.0000
 6019OM     OM1 6019   5.106   4.555   0.656  0.0000  0.0000  0.0000
 6020OM     OM1 6020   6.948   8.662   9.023  0.0000  0.0000  0.0000
 6021OM     OM1 6021   7.136   8.749   9.186  0.0000  0.0000  0.0000
 6022OM     OM1 6022   2.614   2.373   9.523  0.0000  0.0000  0.0000
 6023OM     OM1 6023   2.512   2.606   9.553  0.0000  0.0000  0.0000
 6024OM     OM1 6024   2.728   2.531   0.084  0.0000  0.0000  0.0000
 6025OM     OM1 6025   2.731   2.573   9.417  0.0000  0.0000  0.0000
 6026OM     OM1 6026   4.262   5.531   8.258  0.0000  0.0000  0.0000
 6027OM     OM1 6027   4.362   5.741   8.367  0.0000  0.0000  0.0000
 6028OM     OM1 6028   4.309   0.969   1.002  0.0000  0.0000  0.0000
 6029OM     OM1 6029   4.193   0.926   0.776  0.0000  0.0000  0.0000
 6030OM     OM1 6030   4.431   0.821   0.829  0.0000  0.0000  0.0000
 6031OM     OM1 6031   7.405   3.657   1.294  0.0000  0.0000  0.0000
 6032OM     OM1 6032   7.586   3.818   1.268  0.0000  0.0000  0.0000
 6033OM     OM1 6033   2.693   2.770   0.609  0.0000  0.0000  0.0000
 6034OM     OM1 6034   2.905   2.646   0.669  0.0000  0.0000  0.0000
 6035OM     OM1 6035   3.303   5.684   9.282  0.0000  0.0000  0.0000
 6036OM     OM1 6036   3.546   5.740   9.361  0.0000  0.0000  0.0000
 6037OM     OM1 6037   3.511   5.595   9.145  0.0000  0.0000  0.0000
 6038OM     OM1 6038   4.904   8.413   8.278  0.0000  0.0000  0.0000
 6039OM     OM1 6039   6.995   9.371   8.602  0.0000  0.0000  0.0000
 6040OM     OM1 6040   6.963   9.511   8.813  0.0000  0.0000  0.0000
 6041OM     OM1 6041   7.056   9.275   8.844  0.0000  0.0000  0.0000
 6042OM     OM1 6042   6.812   9.292   8.781  0.0000  0.0000  0.0000
 6043OM     OM1 6043   4.985   1.290   0.067  0.0000  0.0000  0.0000
 6044OM     OM1 6044   4.801   1.319   9.473  0.0000  0.0000  0.0000
 6045OM     OM1 6045   4.836   1.499   0.041  0.0000  0.0000  0.0000
 6046OM     OM1 6046   4.729   1.260   0.109  0.0000  0.0000  0.0000
 6047OM     OM1 6047   4.763   6.040   0.286  0.0000  0.0000  0.0000
 6048OM     OM1 6048   4.831   5.862   0.120  0.0000  0.0000  0.0000
 6049OM     OM1 6049   4.720   5.798   0.351  0.0000  0.0000  0.0000
 6050OM     OM1 6050   1.503   9.496   9.147  0.0000  0.0000  0.0000
 6051OM     OM1 6051   4.383   1.053   1.241  0.0000  0.0000  0.0000
 6052OM     OM1 6052   6.681   6.020   0.851  0.0000  0.0000  0.0000
 6053OM     OM1 6053   6.782   6.262   0.900  0.0000  0.0000  0.0000
 6054OM     OM1 6054   6.932   6.048   0.903  0.0000  0.0000  0.0000
 6055OM     OM1 6055   6.627   8.607   8.657  0.0000  0.0000  0.0000
 6056OM     OM1 6056   6.769   8.634   8.460  0.0000  0.0000  0.0000
 6057OM     OM1 6057   6.528   8.709   8.428  0.0000  0.0000  0.0000
 6058OM     OM1 6058   0.977   7.274   9.511  0.0000  0.0000  0.0000
 6059OM     OM1 6059   0.969   7.513   9.407  0.0000  0.0000  0.0000
 6060OM     OM1 6060   0.757   7.353   9.395  0.0000  0.0000  0.0000
 6061OM     OM1 6061   2.455   9.355   0.089  0.0000  0.0000  0.0000
 6062OM     OM1 6062   3.824   8.179   0.499  0.0000  0.0000  0.0000
 6063OM     OM1 6063   4.005   8.248   0.666  0.0000  0.0000  0.0000
 6064OM     OM1 6064   3.967   8.399   0.456  0.0000  0.0000  0.0000
 6065OM     OM1 6065   7.482   7.694   9.190  0.0000  0.0000  0.0000
 6066OM     OM1 6066   7.496   7.941   9.118  0.0000  0.0000  0.0000
 6067OM     OM1 6067   7.583   7.866   9.356  0.0000  0.0000  0.0000
 6068OM     OM1 6068   7.072   5.165   0.056  0.0000  0.0000  0.0000
 6069OM     OM1 6069   7.216   5.363   9.535  0.0000  0.0000  0.0000
 6070OM     OM1 6070   4.550   7.842   8.570  0.0000  0.0000  0.0000
 6071OM     OM1 6071   4.351   7.995   8.576  0.0000  0.0000  0.0000
 6072OM     OM1 6072   4.571   8.052   8.714  0.0000  0.0000  0.0000
 6073OM     OM1 6073   4.566   8.083   8.456  0.0000  0.0000  0.0000
 6074OM     OM1 6074   6.278   2.691   9.070  0.0000  0.0000  0.0000
 6075OM     OM1 6075   6.063   2.816   9.049  0.0000  0.0000  0.0000
 6076OM     OM1 6076   7.086   3.175   0.946  0.0000  0.0000  0.0000
 6077OM     OM1 6077   6.851   3.226   1.029  0.0000  0.0000  0.0000
 6078OM     OM1 6078   6.975   3.422   0.895  0.0000  0.0000  0.0000
 6079OM     OM1 6079   2.686   6.402   1.161  0.0000  0.0000  0.0000
 6080OM     OM1 6080   2.910   6.558   1.188  0.0000  0.0000  0.0000
 6081OM     OM1 6081   0.357   4.873   0.625  0.0000  0.0000  0.0000
 6082OM     OM1 6082   0.526   4.954   0.809  0.0000  0.0000  0.0000
 6083OM     OM1 6083   0.535   5.053   0.561  0.0000  0.0000  0.0000
 6084OM     OM1 6084   0.404   2.685   0.120  0.0000  0.0000  0.0000
 6085OM     OM1 6085   0.651   2.705   0.044  0.0000  0.0000  0.0000
 6086OM     OM1 6086   0.474   2.531   9.533  0.0000  0.0000  0.0000
 6087OM     OM1 6087   0.477   2.786   9.486  0.0000  0.0000  0.0000
 6088OM     OM1 6088   4.756   9.244   1.282  0.0000  0.0000  0.0000
 6089OM     OM1 6089   4.919   9.018   1.295  0.0000  0.0000  0.0000
 6090OM     OM1 6090   9.489   2.799   9.040  0.0000  0.0000  0.0000
 6091OM     OM1 6091   0.031   3.000   8.973  0.0000  0.0000  0.0000
 6092OM     OM1 6092   0.098   2.832   9.177  0.0000  0.0000  0.0000
 6093OM     OM1 6093   0.129   2.765   8.935  0.0000  0.0000  0.0000
 6094OM     OM1 6094   3.195   8.691   9.247  0.0000  0.0000  0.0000
 6095OM     OM1 6095   3.452   8.714   9.173  0.0000  0.0000  0.0000
 6096OM     OM1 6096   3.310   8.520   9.088  0.0000  0.0000  0.0000
 6097OM     OM1 6097   2.368   1.421   8.606  0.0000  0.0000  0.0000
 6098OM     OM1 6098   2.212   1.296   8.779  0.0000  0.0000  0.0000
 6099OM     OM1 6099   6.944   9.101   1.297  0.0000  0.0000  0.0000
 6100OM     OM1 6100   6.776   9.307   1.291  0.0000  0.0000  0.0000
 6101OM     OM1 6101   7.031   9.339   1.261  0.0000  0.0000  0.0000
 6102OM     OM1 6102   5.660   0.686   9.371  0.0000  0.0000  0.0000
 6103OM     OM1 6103   5.714   0.472   9.252  0.0000  0.0000  0.0000
 6104OM     OM1 6104   2.843   5.271   9.329  0.0000  0.0000  0.0000
 6105OM     OM1 6105   2.605   5.276   9.221  0.0000  0.0000  0.0000
 6106OM     OM1 6106   2.794   5.402   9.111  0.0000  0.0000  0.0000
 6107OM     OM1 6107   2.713   5.493   9.344  0.0000  0.0000  0.0000
 6108OM     OM1 6108   0.336   2.902   8.312  0.0000  0.0000  0.0000
 6109OM     OM1 6109   0.245   3.063   8.494  0.0000  0.0000  0.0000
 6110OM     OM1 6110   0.472   3.117   8.369  0.0000  0.0000  0.0000
 6111OM     OM1 6111   8.088   1.987   0.313  0.0000  0.0000  0.0000
 6112OM     OM1 6112   8.497   2.225   0.456  0.0000  0.0000  0.0000
 6113OM     OM1 6113   8.296   2.062   0.463  0.0000  0.0000  0.0000
 6114OM     OM1 6114   8.528   5.255   0.757  0.0000  0.0000  0.0000
 6115OM     OM1 6115   8.687   5.581   0.542  0.0000  0.0000  0.0000
 6116OM     OM1 6116   7.784   7.787   8.293  0.0000  0.0000  0.0000
 6117OM     OM1 6117   7.590   7.918   8.425  0.0000  0.0000  0.0000
 6118OM     OM1 6118   3.643   4.839   9.448  0.0000  0.0000  0.0000
 6119OM     OM1 6119   3.219   1.703   0.838  0.0000  0.0000  0.0000
 6120OM     OM1 6120   3.391   1.520   0.912  0.0000  0.0000  0.0000
 6121OM     OM1 6121   3.478   1.748   0.828  0.0000  0.0000  0.0000
 6122OM     OM1 6122   1.465   1.634   1.214  0.0000  0.0000  0.0000
 6123OM     OM1 6123   1.484   1.375   1.211  0.0000  0.0000  0.0000
 6124OM     OM1 6124   3.940   6.853   1.000  0.0000  0.0000  0.0000
 6125OM     OM1 6125   3.935   6.608   1.065  0.0000  0.0000  0.0000
 6126OM     OM1 6126   4.011   6.785   1.237  0.0000  0.0000  0.0000
 6127OM     OM1 6127   4.165   6.706   1.034  0.0000  0.0000  0.0000
 6128OM     OM1 6128   9.593   3.057   9.459  0.0000  0.0000  0.0000
 6129OM     OM1 6129   4.664   6.807   0.961  0.0000  0.0000  0.0000
 6130OM     OM1 6130   4.807   6.873   1.189  0.0000  0.0000  0.0000
 6131OM     OM1 6131   4.558   6.866   1.186  0.0000  0.0000  0.0000
 6132OM     OM1 6132   1.028   9.375   9.211  0.0000  0.0000  0.0000
 6133OM     OM1 6133   0.893   9.217   9.369  0.0000  0.0000  0.0000
 6134OM     OM1 6134   1.147   9.182   9.346  0.0000  0.0000  0.0000
 6135OM     OM1 6135   0.948   9.118   8.949  0.0000  0.0000  0.0000
 6136OM     OM1 6136   0.810   9.431   9.074  0.0000  0.0000  0.0000
 6137OM     OM1 6137   5.441   8.595   0.656  0.0000  0.0000  0.0000
 6138OM     OM1 6138   5.302   8.680   0.853  0.0000  0.0000  0.0000
 6139OM     OM1 6139   5.397   8.853   0.680  0.0000  0.0000  0.0000
 6140OM     OM1 6140   5.202   8.693   0.612  0.0000  0.0000  0.0000
 6141OM     OM1 6141   6.106   1.176   0.706  0.0000  0.0000  0.0000
 6142OM     OM1 6142   6.180   1.413   0.652  0.0000  0.0000  0.0000
 6143OM     OM1 6143   6.004   1.300   0.488  0.0000  0.0000  0.0000
 6144OM     OM1 6144   6.735   5.146   8.507  0.0000  0.0000  0.0000
 6145OM     OM1 6145   4.064   8.510   8.459  0.0000  0.0000  0.0000
 6146OM     OM1 6146   4.155   8.423   8.687  0.0000  0.0000  0.0000
 6147OM     OM1 6147   4.325   8.441   8.494  0.0000  0.0000  0.0000
 6148OM     OM1 6148   8.325   7.634   1.262  0.0000  0.0000  0.0000
 6149OM     OM1 6149   8.200   7.419   1.220  0.0000  0.0000  0.0000
 6150OM     OM1 6150   7.485   6.974   1.181  0.0000  0.0000  0.0000
 6151OM     OM1 6151   7.415   6.727   1.214  0.0000  0.0000  0.0000
 6152OM     OM1 6152   7.235   6.918   1.170  0.0000  0.0000  0.0000
 6153OM     OM1 6153   7.385   6.854   0.976  0.0000  0.0000  0.0000
 6154OM     OM1 6154   0.411   6.243   8.927  0.0000  0.0000  0.0000
 6155OM     OM1 6155   8.075   9.324   9.496  0.0000  0.0000  0.0000
 6156OM     OM1 6156   7.878   9.326   9.336  0.0000  0.0000  0.0000
 6157OM     OM1 6157   8.095   9.193   9.258  0.0000  0.0000  0.0000
 6158OM     OM1 6158   6.876   4.399   0.146  0.0000  0.0000  0.0000
 6159OM     OM1 6159   6.673   4.345   9.587  0.0000  0.0000  0.0000
 6160OM     OM1 6160   8.669   0.152   9.181  0.0000  0.0000  0.0000
 6161OM     OM1 6161   8.720   9.472   9.217  0.0000  0.0000  0.0000
 6162OM     OM1 6162   8.938   9.562   9.135  0.0000  0.0000  0.0000
 6163OM     OM1 6163   4.576   3.437   8.447  0.0000  0.0000  0.0000
 6164OM     OM1 6164   4.317   3.416   8.490  0.0000  0.0000  0.0000
 6165OM     OM1 6165   0.895   0.965   8.977  0.0000  0.0000  0.0000
 6166OM     OM1 6166   0.764   0.870   9.178  0.0000  0.0000  0.0000
 6167OM     OM1 6167   4.619   9.300   0.832  0.0000  0.0000  0.0000
 6168OM     OM1 6168   4.393   0.071   0.994  0.0000  0.0000  0.0000
 6169OM     OM1 6169   4.211   9.564   0.831  0.0000  0.0000  0.0000
 6170OM     OM1 6170   4.443   9.473   0.836  0.0000  0.0000  0.0000
 6171OM     OM1 6171   3.910   9.498   8.695  0.0000  0.0000  0.0000
 6172OM     OM1 6172   3.843   9.521   8.440  0.0000  0.0000  0.0000
 6173OM     OM1 6173   4.755   8.202   8.321  0.0000  0.0000  0.0000
 6174OM     OM1 6174   5.004   8.230   8.430  0.0000  0.0000  0.0000
 6175OM     OM1 6175   1.242   9.569   0.399  0.0000  0.0000  0.0000
 6176OM     OM1 6176   1.243   9.531   9.602  0.0000  0.0000  0.0000
 6177OM     OM1 6177   1.436   0.112   0.003  0.0000  0.0000  0.0000
 6178OM     OM1 6178   1.069   0.132   0.427  0.0000  0.0000  0.0000
 6179OM     OM1 6179   8.812   7.319   8.713  0.0000  0.0000  0.0000
 6180OM     OM1 6180   8.980   7.508   8.751  0.0000  0.0000  0.0000
 6181OM     OM1 6181   3.983   3.461   9.329  0.0000  0.0000  0.0000
 6182OM     OM1 6182   4.194   3.524   9.198  0.0000  0.0000  0.0000
 6183OM     OM1 6183   4.043   3.341   9.094  0.0000  0.0000  0.0000
 6184OM     OM1 6184   4.176   3.284   9.311  0.0000  0.0000  0.0000
 6185OM     OM1 6185   9.156   4.383   1.207  0.0000  0.0000  0.0000
 6186OM     OM1 6186   9.365   4.528   1.261  0.0000  0.0000  0.0000
 6187OM     OM1 6187   9.319   4.298   1.385  0.0000  0.0000  0.0000
 6188OM     OM1 6188   4.781   4.670   0.382  0.0000  0.0000  0.0000
 6189OM     OM1 6189   4.844   4.601   0.624  0.0000  0.0000  0.0000
 6190OM     OM1 6190   4.654   4.766   0.599  0.0000  0.0000  0.0000
 6191OM     OM1 6191   4.612   4.525   0.510  0.0000  0.0000  0.0000
 6192OM     OM1 6192   8.771   8.858   8.416  0.0000  0.0000  0.0000
 6193OM     OM1 6193   7.392   4.709   8.988  0.0000  0.0000  0.0000
 6194OM     OM1 6194   7.580   4.864   8.920  0.0000  0.0000  0.0000
 6195OM     OM1 6195   7.327   4.927   8.856  0.0000  0.0000  0.0000
 6196OM     OM1 6196   7.402   4.953   9.098  0.0000  0.0000  0.0000
 6197OM     OM1 6197   0.217   2.675   8.257  0.0000  0.0000  0.0000
 6198OM     OM1 6198   0.137   2.496   8.429  0.0000  0.0000  0.0000
 6199OM     OM1 6199   9.568   5.924   8.428  0.0000  0.0000  0.0000
 6200OM     OM1 6200   0.015   7.538   8.566  0.0000  0.0000  0.0000
 6201OM     OM1 6201   0.178   7.603   8.377  0.0000  0.0000  0.0000
 6202OM     OM1 6202   0.072   7.778   8.562  0.0000  0.0000  0.0000
 6203OM     OM1 6203   6.288   2.379   0.291  0.0000  0.0000  0.0000
 6204OM     OM1 6204   6.214   2.506   0.519  0.0000  0.0000  0.0000
 6205OM     OM1 6205   7.786   8.147   9.282  0.0000  0.0000  0.0000
 6206OM     OM1 6206   7.791   8.171   9.558  0.0000  0.0000  0.0000
 6207OM     OM1 6207   7.640   8.315   9.398  0.0000  0.0000  0.0000
 6208OM     OM1 6208   3.700   8.770   0.046  0.0000  0.0000  0.0000
 6209OM     OM1 6209   3.784   8.822   9.402  0.0000  0.0000  0.0000
 6210OM     OM1 6210   6.349   4.195   9.153  0.0000  0.0000  0.0000
 6211OM     OM1 6211   6.241   4.251   9.386  0.0000  0.0000  0.0000
 6212OM     OM1 6212   6.097   4.239   9.164  0.0000  0.0000  0.0000
 6213OM     OM1 6213   6.190   4.020   9.257  0.0000  0.0000  0.0000
 6214OM     OM1 6214   3.609   1.482   1.030  0.0000  0.0000  0.0000
 6215OM     OM1 6215   2.680   4.569   0.604  0.0000  0.0000  0.0000
 6216OM     OM1 6216   2.912   4.458   0.523  0.0000  0.0000  0.0000
 6217OM     OM1 6217   2.775   4.360   0.718  0.0000  0.0000  0.0000
 6218OM     OM1 6218   2.428   4.034   8.548  0.0000  0.0000  0.0000
 6219OM     OM1 6219   2.528   3.973   8.309  0.0000  0.0000  0.0000
 6220OM     OM1 6220   0.688   0.010   8.940  0.0000  0.0000  0.0000
 6221OM     OM1 6221   8.993   7.761   0.258  0.0000  0.0000  0.0000
 6222OM     OM1 6222   9.168   7.573   0.279  0.0000  0.0000  0.0000
 6223OM     OM1 6223   8.183   2.534   8.548  0.0000  0.0000  0.0000
 6224OM     OM1 6224   8.044   2.660   8.346  0.0000  0.0000  0.0000
 6225OM     OM1 6225   8.297   2.696   8.368  0.0000  0.0000  0.0000
 6226OM     OM1 6226   1.151   5.207   9.390  0.0000  0.0000  0.0000
 6227OM     OM1 6227   1.158   4.956   9.461  0.0000  0.0000  0.0000
 6228OM     OM1 6228   1.303   5.113   9.587  0.0000  0.0000  0.0000
 6229OM     OM1 6229   7.184   4.035   1.302  0.0000  0.0000  0.0000
 6230OM     OM1 6230   7.961   5.550   1.215  0.0000  0.0000  0.0000
 6231OM     OM1 6231   7.996   5.787   1.116  0.0000  0.0000  0.0000
 6232OM     OM1 6232   7.757   5.714   1.190  0.0000  0.0000  0.0000
 6233OM     OM1 6233   0.105   3.638   8.269  0.0000  0.0000  0.0000
 6234OM     OM1 6234   8.171   9.324   8.804  0.0000  0.0000  0.0000
 6235OM     OM1 6235   8.211   0.032   8.415  0.0000  0.0000  0.0000
 6236OM     OM1 6236   0.223   1.869   8.609  0.0000  0.0000  0.0000
 6237OM     OM1 6237   0.378   1.918   8.817  0.0000  0.0000  0.0000
 6238OM     OM1 6238   0.367   2.077   8.592  0.0000  0.0000  0.0000
 6239OM     OM1 6239   7.149   8.534   8.599  0.0000  0.0000  0.0000
 6240OM     OM1 6240   7.326   8.477   8.763  0.0000  0.0000  0.0000
 6241OM     OM1 6241   7.384   8.629   8.541  0.0000  0.0000  0.0000
 6242OM     OM1 6242   7.254   8.723   8.744  0.0000  0.0000  0.0000
 6243OM     OM1 6243   5.413   8.006   1.015  0.0000  0.0000  0.0000
 6244OM     OM1 6244   5.581   7.816   0.942  0.0000  0.0000  0.0000
 6245OM     OM1 6245   7.485   5.840   0.699  0.0000  0.0000  0.0000
 6246OM     OM1 6246   6.477   4.532   8.807  0.0000  0.0000  0.0000
 6247OM     OM1 6247   6.717   4.509   8.884  0.0000  0.0000  0.0000
 6248OM     OM1 6248   3.808   3.547   9.503  0.0000  0.0000  0.0000
 6249OM     OM1 6249   3.668   3.355   9.401  0.0000  0.0000  0.0000
 6250OM     OM1 6250   3.659   3.393   0.053  0.0000  0.0000  0.0000
 6251OM     OM1 6251   5.707   1.123   1.282  0.0000  0.0000  0.0000
 6252OM     OM1 6252   4.945   8.684   0.515  0.0000  0.0000  0.0000
 6253OM     OM1 6253   4.725   8.774   0.629  0.0000  0.0000  0.0000
 6254OM     OM1 6254   4.783   8.524   0.637  0.0000  0.0000  0.0000
 6255OM     OM1 6255   9.392   3.321   0.662  0.0000  0.0000  0.0000
 6256OM     OM1 6256   9.571   3.556   0.512  0.0000  0.0000  0.0000
 6257OM     OM1 6257   9.464   3.284   0.414  0.0000  0.0000  0.0000
 6258OM     OM1 6258   0.035   3.330   0.603  0.0000  0.0000  0.0000
 6259OM     OM1 6259   5.470   8.791   0.035  0.0000  0.0000  0.0000
 6260OM     OM1 6260   5.531   8.754   9.385  0.0000  0.0000  0.0000
 6261OM     OM1 6261   5.716   8.844   9.555  0.0000  0.0000  0.0000
 6262OM     OM1 6262   0.975   3.567   1.130  0.0000  0.0000  0.0000
 6263OM     OM1 6263   0.737   3.622   1.216  0.0000  0.0000  0.0000
 6264OM     OM1 6264   0.760   3.426   1.047  0.0000  0.0000  0.0000
 6265OM     OM1 6265   2.584   9.208   1.137  0.0000  0.0000  0.0000
 6266OM     OM1 6266   9.217   7.298   8.552  0.0000  0.0000  0.0000
 6267OM     OM1 6267   7.152   5.462   8.283  0.0000  0.0000  0.0000
 6268OM     OM1 6268   7.665   2.360   0.319  0.0000  0.0000  0.0000
 6269OM     OM1 6269   7.406   2.388   0.293  0.0000  0.0000  0.0000
 6270OM     OM1 6270   7.516   2.345   0.526  0.0000  0.0000  0.0000
 6271OM     OM1 6271   7.503   2.151   0.339  0.0000  0.0000  0.0000
 6272OM     OM1 6272   5.351   0.236   8.601  0.0000  0.0000  0.0000
 6273OM     OM1 6273   5.215   0.086   8.760  0.0000  0.0000  0.0000
 6274OM     OM1 6274   5.105   0.315   8.667  0.0000  0.0000  0.0000
 6275OM     OM1 6275   4.910   0.349   8.832  0.0000  0.0000  0.0000
 6276OM     OM1 6276   8.332   5.874   8.563  0.0000  0.0000  0.0000
 6277OM     OM1 6277   8.517   6.031   8.481  0.0000  0.0000  0.0000
 6278OM     OM1 6278   1.508   2.119   9.341  0.0000  0.0000  0.0000
 6279OM     OM1 6279   1.569   2.264   9.128  0.0000  0.0000  0.0000
 6280OM     OM1 6280   1.571   1.996   9.131  0.0000  0.0000  0.0000
 6281OM     OM1 6281   1.356   2.131   9.113  0.0000  0.0000  0.0000
 6282OM     OM1 6282   9.483   9.057   0.704  0.0000  0.0000  0.0000
 6283OM     OM1 6283   4.080   4.014   0.260  0.0000  0.0000  0.0000
 6284OM     OM1 6284   4.038   3.889   0.485  0.0000  0.0000  0.0000
 6285OM     OM1 6285   4.266   4.012   0.445  0.0000  0.0000  0.0000
 6286OM     OM1 6286   5.977   7.121   9.146  0.0000  0.0000  0.0000
 6287OM     OM1 6287   6.221   7.220   9.134  0.0000  0.0000  0.0000
 6288OM     OM1 6288   5.601   6.830   0.437  0.0000  0.0000  0.0000
 6289OM     OM1 6289   5.522   6.888   0.201  0.0000  0.0000  0.0000
 6290OM     OM1 6290   6.321   7.504   0.084  0.0000  0.0000  0.0000
 6291OM     OM1 6291   6.138   7.337   0.177  0.0000  0.0000  0.0000
 6292OM     OM1 6292   6.242   5.721   0.423  0.0000  0.0000  0.0000
 6293OM     OM1 6293   6.170   5.755   0.175  0.0000  0.0000  0.0000
 6294OM     OM1 6294   5.996   5.672   0.363  0.0000  0.0000  0.0000
 6295OM     OM1 6295   4.694   3.485   0.156  0.0000  0.0000  0.0000
 6296OM     OM1 6296   4.878   3.587   0.298  0.0000  0.0000  0.0000
 6297OM     OM1 6297   7.611   4.182   0.375  0.0000  0.0000  0.0000
 6298OM     OM1 6298   7.717   4.014   0.198  0.0000  0.0000  0.0000
 6299OM     OM1 6299   7.571   4.211   0.122  0.0000  0.0000  0.0000
 6300OM     OM1 6300   7.814   4.251   0.227  0.0000  0.0000  0.0000
 6301OM     OM1 6301   5.833   1.931   1.006  0.0000  0.0000  0.0000
 6302OM     OM1 6302   5.705   2.071   1.186  0.0000  0.0000  0.0000
 6303OM     OM1 6303   5.807   1.854   1.260  0.0000  0.0000  0.0000
 6304OM     OM1 6304   9.152   8.384   9.502  0.0000  0.0000  0.0000
 6305OM     OM1 6305   8.951   8.287   0.042  0.0000  0.0000  0.0000
 6306OM     OM1 6306   5.269   1.222   1.121  0.0000  0.0000  0.0000
 6307OM     OM1 6307   5.484   1.379   1.139  0.0000  0.0000  0.0000
 6308OM     OM1 6308   5.459   1.157   0.981  0.0000  0.0000  0.0000
 6309OM     OM1 6309   2.136   3.406   8.503  0.0000  0.0000  0.0000
 6310OM     OM1 6310   2.215   3.267   8.293  0.0000  0.0000  0.0000
 6311OM     OM1 6311   6.691   7.167   0.017  0.0000  0.0000  0.0000
 6312OM     OM1 6312   6.815   7.197   9.389  0.0000  0.0000  0.0000
 6313OM     OM1 6313   6.623   7.365   9.455  0.0000  0.0000  0.0000
 6314OM     OM1 6314   6.269   5.874   1.338  0.0000  0.0000  0.0000
 6315OM     OM1 6315   6.431   6.066   1.298  0.0000  0.0000  0.0000
 6316OM     OM1 6316   5.330   6.721   0.140  0.0000  0.0000  0.0000
 6317OM     OM1 6317   5.325   6.501   0.003  0.0000  0.0000  0.0000
 6318OM     OM1 6318   5.508   6.532   0.165  0.0000  0.0000  0.0000
 6319OM     OM1 6319   4.337   8.239   9.116  0.0000  0.0000  0.0000
 6320OM     OM1 6320   4.483   8.398   8.953  0.0000  0.0000  0.0000
 6321OM     OM1 6321   4.262   8.273   8.872  0.0000  0.0000  0.0000
 6322OM     OM1 6322   4.488   8.143   8.935  0.0000  0.0000  0.0000
 6323OM     OM1 6323   9.475   2.470   9.429  0.0000  0.0000  0.0000
 6324OM     OM1 6324   9.423   2.641   9.233  0.0000  0.0000  0.0000
 6325OM     OM1 6325   8.100   8.238   0.768  0.0000  0.0000  0.0000
 6326OM     OM1 6326   7.949   8.068   0.641  0.0000  0.0000  0.0000
 6327OM     OM1 6327   8.171   8.124   0.535  0.0000  0.0000  0.0000
 6328OM     OM1 6328   2.608   7.729   0.941  0.0000  0.0000  0.0000
 6329OM     OM1 6329   2.447   7.579   0.800  0.0000  0.0000  0.0000
 6330OM     OM1 6330   2.688   7.502   0.823  0.0000  0.0000  0.0000
 6331OM     OM1 6331   8.092   8.957   9.562  0.0000  0.0000  0.0000
 6332OM     OM1 6332   8.126   8.769   9.392  0.0000  0.0000  0.0000
 6333OM     OM1 6333   8.337   8.879   9.528  0.0000  0.0000  0.0000
 6334OM     OM1 6334   8.232   8.995   9.339  0.0000  0.0000  0.0000
 6335OM     OM1 6335   2.003   5.849   8.273  0.0000  0.0000  0.0000
 6336OM     OM1 6336   6.161   1.754   0.682  0.0000  0.0000  0.0000
 6337OM     OM1 6337   6.362   1.602   0.630  0.0000  0.0000  0.0000
 6338OM     OM1 6338   5.564   1.725   0.696  0.0000  0.0000  0.0000
 6339OM     OM1 6339   5.576   1.552   0.503  0.0000  0.0000  0.0000
 6340OM     OM1 6340   9.587   5.991   0.797  0.0000  0.0000  0.0000
 6341OM     OM1 6341   9.430   5.971   1.009  0.0000  0.0000  0.0000
 6342OM     OM1 6342   9.572   5.761   0.922  0.0000  0.0000  0.0000
 6343OM     OM1 6343   1.142   3.987   8.718  0.0000  0.0000  0.0000
 6344OM     OM1 6344   1.114   4.127   8.928  0.0000  0.0000  0.0000
 6345OM     OM1 6345   1.066   3.773   8.850  0.0000  0.0000  0.0000
 6346OM     OM1 6346   2.177   1.297   0.522  0.0000  0.0000  0.0000
 6347OM     OM1 6347   2.057   1.083   0.455  0.0000  0.0000  0.0000
 6348OM     OM1 6348   2.117   1.119   0.705  0.0000  0.0000  0.0000
 6349OM     OM1 6349   1.925   1.264   0.600  0.0000  0.0000  0.0000
 6350OM     OM1 6350   7.589   8.398   8.238  0.0000  0.0000  0.0000
 6351OM     OM1 6351   7.507   8.634   8.314  0.0000  0.0000  0.0000
 6352OM     OM1 6352   6.873   5.554   9.033  0.0000  0.0000  0.0000
 6353OM     OM1 6353   6.995   5.329   8.982  0.0000  0.0000  0.0000
 6354OM     OM1 6354   6.819   9.500   9.345  0.0000  0.0000  0.0000
 6355OM     OM1 6355   6.761   9.260   9.422  0.0000  0.0000  0.0000
 6356OM     OM1 6356   6.797   9.122   8.978  0.0000  0.0000  0.0000
 6357OM     OM1 6357   5.235   8.881   0.096  0.0000  0.0000  0.0000
 6358OM     OM1 6358   1.706   7.634   0.224  0.0000  0.0000  0.0000
 6359OM     OM1 6359   1.826   7.581   0.456  0.0000  0.0000  0.0000
 6360OM     OM1 6360   0.931   4.315   8.952  0.0000  0.0000  0.0000
 6361OM     OM1 6361   0.890   4.283   8.645  0.0000  0.0000  0.0000
 6362OM     OM1 6362   1.046   4.540   8.932  0.0000  0.0000  0.0000
 6363OM     OM1 6363   0.830   4.486   8.784  0.0000  0.0000  0.0000
 6364OM     OM1 6364   6.122   5.047   8.396  0.0000  0.0000  0.0000
 6365OM     OM1 6365   5.920   5.155   8.533  0.0000  0.0000  0.0000
 6366OM     OM1 6366   5.889   4.921   8.431  0.0000  0.0000  0.0000
 6367OM     OM1 6367   6.059   4.940   8.619  0.0000  0.0000  0.0000
 6368OM     OM1 6368   3.619   7.991   8.665  0.0000  0.0000  0.0000
 6369OM     OM1 6369   3.691   8.226   8.615  0.0000  0.0000  0.0000
 6370OM     OM1 6370   3.768   8.111   8.853  0.0000  0.0000  0.0000
 6371OM     OM1 6371   7.386   6.831   9.057  0.0000  0.0000  0.0000
 6372OM     OM1 6372   7.569   7.019   9.038  0.0000  0.0000  0.0000
 6373OM     OM1 6373   7.484   6.886   8.825  0.0000  0.0000  0.0000
 6374OM     OM1 6374   6.526   7.586   9.559  0.0000  0.0000  0.0000
 6375OM     OM1 6375   6.762   7.581   9.455  0.0000  0.0000  0.0000
 6376OM     OM1 6376   3.349   5.152   0.897  0.0000  0.0000  0.0000
 6377OM     OM1 6377   3.103   5.228   0.857  0.0000  0.0000  0.0000
 6378OM     OM1 6378   7.151   8.361   8.416  0.0000  0.0000  0.0000
 6379OM     OM1 6379   7.220   8.522   8.228  0.0000  0.0000  0.0000
 6380OM     OM1 6380   7.349   8.296   8.262  0.0000  0.0000  0.0000
 6381OM     OM1 6381   4.555   1.112   0.242  0.0000  0.0000  0.0000
 6382OM     OM1 6382   5.472   0.508   8.376  0.0000  0.0000  0.0000
 6383OM     OM1 6383   1.749   5.432   8.275  0.0000  0.0000  0.0000
 6384OM     OM1 6384   1.943   5.603   8.289  0.0000  0.0000  0.0000
 6385OM     OM1 6385   7.200   3.499   8.312  0.0000  0.0000  0.0000
 6386OM     OM1 6386   7.268   3.735   8.232  0.0000  0.0000  0.0000
 6387OM     OM1 6387   4.259   2.493   0.252  0.0000  0.0000  0.0000
 6388OM     OM1 6388   4.311   2.335   0.052  0.0000  0.0000  0.0000
 6389OM     OM1 6389   4.500   2.499   0.121  0.0000  0.0000  0.0000
 6390OM     OM1 6390   4.434   2.302   0.275  0.0000  0.0000  0.0000
 6391OM     OM1 6391   9.371   1.004   0.034  0.0000  0.0000  0.0000
 6392OM     OM1 6392   9.551   0.890   9.501  0.0000  0.0000  0.0000
 6393OM     OM1 6393   9.450   1.107   9.405  0.0000  0.0000  0.0000
 6394OM     OM1 6394   9.294   0.902   9.412  0.0000  0.0000  0.0000
 6395OM     OM1 6395   5.087   0.609   1.134  0.0000  0.0000  0.0000
 6396OM     OM1 6396   5.269   0.549   1.296  0.0000  0.0000  0.0000
 6397OM     OM1 6397   5.140   0.354   1.179  0.0000  0.0000  0.0000
 6398OM     OM1 6398   1.453   5.840   9.547  0.0000  0.0000  0.0000
 6399OM     OM1 6399   1.667   5.781   9.414  0.0000  0.0000  0.0000
 6400OM     OM1 6400   1.266   5.653   0.005  0.0000  0.0000  0.0000
 6401OM     OM1 6401   8.578   8.650   8.826  0.0000  0.0000  0.0000
 6402OM     OM1 6402   8.195   8.553   8.960  0.0000  0.0000  0.0000
 6403OM     OM1 6403   8.185   8.624   8.725  0.0000  0.0000  0.0000
 6404OM     OM1 6404   7.496   8.857   8.462  0.0000  0.0000  0.0000
 6405OM     OM1 6405   7.519   9.122   8.513  0.0000  0.0000  0.0000
 6406OM     OM1 6406   7.726   8.961   8.512  0.0000  0.0000  0.0000
 6407OM     OM1 6407   1.789   3.470   8.645  0.0000  0.0000  0.0000
 6408OM     OM1 6408   1.586   3.308   8.667  0.0000  0.0000  0.0000
 6409OM     OM1 6409   0.053   0.822   0.125  0.0000  0.0000  0.0000
 6410OM     OM1 6410   5.850   8.919   0.557  0.0000  0.0000  0.0000
 6411OM     OM1 6411   5.664   8.882   0.380  0.0000  0.0000  0.0000
 6412OM     OM1 6412   7.203   2.322   8.957  0.0000  0.0000  0.0000
 6413OM     OM1 6413   7.223   2.440   8.724  0.0000  0.0000  0.0000
 6414OM     OM1 6414   7.439   2.400   8.866  0.0000  0.0000  0.0000
 6415OM     OM1 6415   7.646   2.378   8.417  0.0000  0.0000  0.0000
 6416OM     OM1 6416   2.050   0.567   1.016  0.0000  0.0000  0.0000
 6417OM     OM1 6417   2.333   0.314   1.184  0.0000  0.0000  0.0000
 6418OM     OM1 6418   2.269   0.428   0.965  0.0000  0.0000  0.0000
 6419OM     OM1 6419   0.870   1.566   0.059  0.0000  0.0000  0.0000
 6420OM     OM1 6420   0.804   1.671   9.425  0.0000  0.0000  0.0000
 6421OM     OM1 6421   0.991   3.755   9.396  0.0000  0.0000  0.0000
 6422OM     OM1 6422   1.243   3.755   9.352  0.0000  0.0000  0.0000
 6423OM     OM1 6423   2.226   4.956   8.431  0.0000  0.0000  0.0000
 6424OM     OM1 6424   6.303   2.369   1.041  0.0000  0.0000  0.0000
 6425OM     OM1 6425   6.070   2.397   1.156  0.0000  0.0000  0.0000
 6426OM     OM1 6426   6.085   2.233   0.960  0.0000  0.0000  0.0000
 6427OM     OM1 6427   6.211   2.189   1.196  0.0000  0.0000  0.0000
 6428OM     OM1 6428   2.649   9.221   9.291  0.0000  0.0000  0.0000
 6429OM     OM1 6429   2.697   9.025   9.442  0.0000  0.0000  0.0000
 6430OM     OM1 6430   8.099   7.645   0.343  0.0000  0.0000  0.0000
 6431OM     OM1 6431   8.209   7.859   0.463  0.0000  0.0000  0.0000
 6432OM     OM1 6432   3.500   9.045   0.171  0.0000  0.0000  0.0000
 6433OM     OM1 6433   3.321   9.231   0.169  0.0000  0.0000  0.0000
 6434OM     OM1 6434   7.800   8.782   8.684  0.0000  0.0000  0.0000
 6435OM     OM1 6435   7.975   8.949   8.595  0.0000  0.0000  0.0000
 6436OM     OM1 6436   7.779   9.040   8.748  0.0000  0.0000  0.0000
 6437OM     OM1 6437   8.236   8.934   8.542  0.0000  0.0000  0.0000
 6438OM     OM1 6438   6.010   5.174   9.346  0.0000  0.0000  0.0000
 6439OM     OM1 6439   5.910   5.384   9.227  0.0000  0.0000  0.0000
 6440OM     OM1 6440   7.077   2.791   8.262  0.0000  0.0000  0.0000
 6441OM     OM1 6441   7.180   2.991   8.402  0.0000  0.0000  0.0000
 6442OM     OM1 6442   6.994   2.850   8.503  0.0000  0.0000  0.0000
 6443OM     OM1 6443   6.199   8.420   1.000  0.0000  0.0000  0.0000
 6444OM     OM1 6444   6.146   8.612   0.821  0.0000  0.0000  0.0000
 6445OM     OM1 6445   6.232   8.362   0.750  0.0000  0.0000  0.0000
 6446OM     OM1 6446   5.995   8.404   0.832  0.0000  0.0000  0.0000
 6447OM     OM1 6447   1.291   6.391   1.001  0.0000  0.0000  0.0000
 6448OM     OM1 6448   1.138   6.409   1.207  0.0000  0.0000  0.0000
 6449OM     OM1 6449   1.400   6.338   1.218  0.0000  0.0000  0.0000
 6450OM     OM1 6450   6.403   3.130   0.894  0.0000  0.0000  0.0000
 6451OM     OM1 6451   6.598   3.190   1.069  0.0000  0.0000  0.0000
 6452OM     OM1 6452   6.386   3.323   1.067  0.0000  0.0000  0.0000
 6453OM     OM1 6453   3.360   5.849   8.878  0.0000  0.0000  0.0000
 6454OM     OM1 6454   3.402   6.091   8.839  0.0000  0.0000  0.0000
 6455OM     OM1 6455   3.612   5.947   8.886  0.0000  0.0000  0.0000
 6456OM     OM1 6456   1.746   2.325   0.447  0.0000  0.0000  0.0000
 6457OM     OM1 6457   1.722   2.590   0.486  0.0000  0.0000  0.0000
 6458OM     OM1 6458   1.523   2.416   0.535  0.0000  0.0000  0.0000
 6459OM     OM1 6459   1.744   2.427   0.682  0.0000  0.0000  0.0000
 6460OM     OM1 6460   4.027   0.841   8.712  0.0000  0.0000  0.0000
 6461OM     OM1 6461   3.894   0.719   8.882  0.0000  0.0000  0.0000
 6462OM     OM1 6462   4.140   0.813   8.949  0.0000  0.0000  0.0000
 6463OM     OM1 6463   4.108   0.607   8.802  0.0000  0.0000  0.0000
 6464OM     OM1 6464   3.160   2.612   0.664  0.0000  0.0000  0.0000
 6465OM     OM1 6465   3.314   2.453   0.498  0.0000  0.0000  0.0000
 6466OM     OM1 6466   3.168   2.642   0.420  0.0000  0.0000  0.0000
 6467OM     OM1 6467   7.694   3.654   8.451  0.0000  0.0000  0.0000
 6468OM     OM1 6468   7.053   3.151   9.292  0.0000  0.0000  0.0000
 6469OM     OM1 6469   6.950   2.865   9.069  0.0000  0.0000  0.0000
 6470OM     OM1 6470   7.135   2.974   9.465  0.0000  0.0000  0.0000
 6471OM     OM1 6471   7.121   6.432   9.108  0.0000  0.0000  0.0000
 6472OM     OM1 6472   6.932   6.296   9.227  0.0000  0.0000  0.0000
 6473OM     OM1 6473   3.706   7.309   0.708  0.0000  0.0000  0.0000
 6474OM     OM1 6474   3.859   7.432   0.870  0.0000  0.0000  0.0000
 6475OM     OM1 6475   3.593   7.467   0.894  0.0000  0.0000  0.0000
 6476OM     OM1 6476   4.991   2.759   9.466  0.0000  0.0000  0.0000
 6477OM     OM1 6477   4.810   2.921   9.394  0.0000  0.0000  0.0000
 6478OM     OM1 6478   4.936   2.973   0.016  0.0000  0.0000  0.0000
 6479OM     OM1 6479   2.833   6.590   9.522  0.0000  0.0000  0.0000
 6480OM     OM1 6480   3.035   9.530   1.042  0.0000  0.0000  0.0000
 6481OM     OM1 6481   3.056   9.272   1.058  0.0000  0.0000  0.0000
 6482OM     OM1 6482   2.922   9.367   0.864  0.0000  0.0000  0.0000
 6483OM     OM1 6483   1.678   6.531   9.267  0.0000  0.0000  0.0000
 6484OM     OM1 6484   1.864   6.359   9.277  0.0000  0.0000  0.0000
 6485OM     OM1 6485   1.916   6.624   9.237  0.0000  0.0000  0.0000
 6486OM     OM1 6486   1.462   8.415   1.303  0.0000  0.0000  0.0000
 6487OM     OM1 6487   1.413   8.285   1.085  0.0000  0.0000  0.0000
 6488OM     OM1 6488   1.643   8.183   1.124  0.0000  0.0000  0.0000
 6489OM     OM1 6489   6.567   6.605   8.416  0.0000  0.0000  0.0000
 6490OM     OM1 6490   5.094   2.246   0.989  0.0000  0.0000  0.0000
 6491OM     OM1 6491   4.854   2.343   0.949  0.0000  0.0000  0.0000
 6492OM     OM1 6492   4.947   1.998   1.301  0.0000  0.0000  0.0000
 6493OM     OM1 6493   7.546   3.611   0.812  0.0000  0.0000  0.0000
 6494OM     OM1 6494   7.503   3.698   1.052  0.0000  0.0000  0.0000
 6495OM     OM1 6495   7.660   3.836   0.911  0.0000  0.0000  0.0000
 6496OM     OM1 6496   7.742   3.608   0.993  0.0000  0.0000  0.0000
 6497OM     OM1 6497   3.451   8.795   8.478  0.0000  0.0000  0.0000
 6498OM     OM1 6498   3.608   8.993   8.552  0.0000  0.0000  0.0000
 6499OM     OM1 6499   3.402   8.903   8.703  0.0000  0.0000  0.0000
 6500OM     OM1 6500   3.367   9.048   8.491  0.0000  0.0000  0.0000
 6501OM     OM1 6501   6.752   0.855   8.766  0.0000  0.0000  0.0000
 6502OM     OM1 6502   6.515   0.932   8.838  0.0000  0.0000  0.0000
 6503OM     OM1 6503   4.922   9.065   0.511  0.0000  0.0000  0.0000
 6504OM     OM1 6504   5.108   8.890   0.471  0.0000  0.0000  0.0000
 6505OM     OM1 6505   7.314   4.636   9.433  0.0000  0.0000  0.0000
 6506OM     OM1 6506   7.554   4.733   9.353  0.0000  0.0000  0.0000
 6507OM     OM1 6507   8.220   0.381   8.607  0.0000  0.0000  0.0000
 6508OM     OM1 6508   0.720   2.463   9.099  0.0000  0.0000  0.0000
 6509OM     OM1 6509   0.830   2.338   9.296  0.0000  0.0000  0.0000
 6510OM     OM1 6510   0.602   2.459   9.327  0.0000  0.0000  0.0000
 6511OM     OM1 6511   0.830   2.595   9.305  0.0000  0.0000  0.0000
 6512OM     OM1 6512   3.980   8.110   0.307  0.0000  0.0000  0.0000
 6513OM     OM1 6513   1.927   9.318   0.844  0.0000  0.0000  0.0000
 6514OM     OM1 6514   2.159   9.259   0.971  0.0000  0.0000  0.0000
 6515OM     OM1 6515   5.134   6.061   1.128  0.0000  0.0000  0.0000
 6516OM     OM1 6516   5.105   6.048   0.880  0.0000  0.0000  0.0000
 6517OM     OM1 6517   2.213   1.133   8.357  0.0000  0.0000  0.0000
 6518OM     OM1 6518   2.100   1.268   8.551  0.0000  0.0000  0.0000
 6519OM     OM1 6519   2.462   1.110   8.289  0.0000  0.0000  0.0000
 6520OM     OM1 6520   6.656   6.656   0.132  0.0000  0.0000  0.0000
 6521OM     OM1 6521   6.786   6.676   9.516  0.0000  0.0000  0.0000
 6522OM     OM1 6522   7.098   2.387   1.047  0.0000  0.0000  0.0000
 6523OM     OM1 6523   7.108   2.141   0.924  0.0000  0.0000  0.0000
 6524OM     OM1 6524   6.906   2.298   0.909  0.0000  0.0000  0.0000
 6525OM     OM1 6525   0.702   4.673   8.369  0.0000  0.0000  0.0000
 6526OM     OM1 6526   6.953   0.374   1.157  0.0000  0.0000  0.0000
 6527OM     OM1 6527   0.813   5.667   9.256  0.0000  0.0000  0.0000
 6528OM     OM1 6528   0.698   5.631   9.024  0.0000  0.0000  0.0000
 6529OM     OM1 6529   0.621   5.821   9.172  0.0000  0.0000  0.0000
 6530OM     OM1 6530   6.646   5.660   9.075  0.0000  0.0000  0.0000
 6531OM     OM1 6531   6.491   5.860   9.102  0.0000  0.0000  0.0000
 6532OM     OM1 6532   6.778   2.382   8.538  0.0000  0.0000  0.0000
 6533OM     OM1 6533   6.869   2.164   8.442  0.0000  0.0000  0.0000
 6534OM     OM1 6534   6.956   2.234   8.672  0.0000  0.0000  0.0000
 6535OM     OM1 6535   7.025   2.374   8.461  0.0000  0.0000  0.0000
 6536OM     OM1 6536   0.219   1.641   0.589  0.0000  0.0000  0.0000
 6537OM     OM1 6537   0.172   1.426   0.739  0.0000  0.0000  0.0000
 6538OM     OM1 6538   8.794   4.837   1.301  0.0000  0.0000  0.0000
 6539OM     OM1 6539   8.849   4.636   1.139  0.0000  0.0000  0.0000
 6540OM     OM1 6540   3.311   3.162   9.444  0.0000  0.0000  0.0000
 6541OM     OM1 6541   3.242   3.214   9.195  0.0000  0.0000  0.0000
 6542OM     OM1 6542   3.501   3.208   9.267  0.0000  0.0000  0.0000
 6543OM     OM1 6543   3.349   3.402   9.331  0.0000  0.0000  0.0000
 6544OM     OM1 6544   0.092   3.793   0.668  0.0000  0.0000  0.0000
 6545OM     OM1 6545   0.061   3.998   0.530  0.0000  0.0000  0.0000
 6546OM     OM1 6546   0.279   4.010   0.663  0.0000  0.0000  0.0000
 6547OM     OM1 6547   4.984   7.663   8.581  0.0000  0.0000  0.0000
 6548OM     OM1 6548   4.776   7.776   8.676  0.0000  0.0000  0.0000
 6549OM     OM1 6549   5.002   7.919   8.638  0.0000  0.0000  0.0000
 6550OM     OM1 6550   5.060   5.992   0.110  0.0000  0.0000  0.0000
 6551OM     OM1 6551   5.175   6.199   0.203  0.0000  0.0000  0.0000
 6552OM     OM1 6552   4.973   6.182   0.368  0.0000  0.0000  0.0000
 6553OM     OM1 6553   3.129   5.790   9.440  0.0000  0.0000  0.0000
 6554OM     OM1 6554   2.974   5.719   0.040  0.0000  0.0000  0.0000
 6555OM     OM1 6555   0.138   8.667   0.671  0.0000  0.0000  0.0000
 6556OM     OM1 6556   6.299   0.394   1.029  0.0000  0.0000  0.0000
 6557OM     OM1 6557   6.116   0.205   1.098  0.0000  0.0000  0.0000
 6558OM     OM1 6558   8.047   1.047   1.317  0.0000  0.0000  0.0000
 6559OM     OM1 6559   7.423   8.542   0.803  0.0000  0.0000  0.0000
 6560OM     OM1 6560   7.466   8.602   1.052  0.0000  0.0000  0.0000
 6561OM     OM1 6561   7.472   8.349   0.986  0.0000  0.0000  0.0000
 6562OM     OM1 6562   7.660   8.509   0.905  0.0000  0.0000  0.0000
 6563OM     OM1 6563   2.076   3.036   0.847  0.0000  0.0000  0.0000
 6564OM     OM1 6564   2.319   2.951   0.793  0.0000  0.0000  0.0000
 6565OM     OM1 6565   2.114   2.835   0.685  0.0000  0.0000  0.0000
 6566OM     OM1 6566   2.532   3.230   8.526  0.0000  0.0000  0.0000
 6567OM     OM1 6567   2.675   3.053   8.388  0.0000  0.0000  0.0000
 6568OM     OM1 6568   2.414   3.108   8.330  0.0000  0.0000  0.0000
 6569OM     OM1 6569   2.429   1.643   1.200  0.0000  0.0000  0.0000
 6570OM     OM1 6570   2.678   1.722   1.131  0.0000  0.0000  0.0000
 6571OM     OM1 6571   6.322   1.119   0.861  0.0000  0.0000  0.0000
 6572OM     OM1 6572   1.445   7.415   8.292  0.0000  0.0000  0.0000
 6573OM     OM1 6573   1.421   7.253   8.506  0.0000  0.0000  0.0000
 6574OM     OM1 6574   1.594   7.645   8.347  0.0000  0.0000  0.0000
 6575OM     OM1 6575   2.548   9.482   0.540  0.0000  0.0000  0.0000
 6576OM     OM1 6576   2.484   0.019   0.329  0.0000  0.0000  0.0000
 6577OM     OM1 6577   2.704   0.068   0.452  0.0000  0.0000  0.0000
 6578OM     OM1 6578   9.542   5.138   8.918  0.0000  0.0000  0.0000
 6579OM     OM1 6579   0.002   5.362   9.025  0.0000  0.0000  0.0000
 6580OM     OM1 6580   0.181   5.200   8.923  0.0000  0.0000  0.0000
 6581OM     OM1 6581   7.918   8.229   8.339  0.0000  0.0000  0.0000
 6582OM     OM1 6582   8.550   9.160   8.826  0.0000  0.0000  0.0000
 6583OM     OM1 6583   8.702   9.077   9.019  0.0000  0.0000  0.0000
 6584OM     OM1 6584   8.766   9.015   8.784  0.0000  0.0000  0.0000
 6585OM     OM1 6585   8.556   8.903   8.881  0.0000  0.0000  0.0000
 6586OM     OM1 6586   4.529   6.197   0.193  0.0000  0.0000  0.0000
 6587OM     OM1 6587   4.726   6.283   0.345  0.0000  0.0000  0.0000
 6588OM     OM1 6588   6.034   5.553   0.588  0.0000  0.0000  0.0000
 6589OM     OM1 6589   6.177   5.615   0.792  0.0000  0.0000  0.0000
 6590OM     OM1 6590   6.014   5.650   0.983  0.0000  0.0000  0.0000
 6591OM     OM1 6591   6.143   5.860   0.903  0.0000  0.0000  0.0000
 6592OM     OM1 6592   2.355   8.968   0.738  0.0000  0.0000  0.0000
 6593OM     OM1 6593   2.361   8.735   0.835  0.0000  0.0000  0.0000
 6594OM     OM1 6594   0.259   0.641   1.202  0.0000  0.0000  0.0000
 6595OM     OM1 6595   0.015   0.556   1.214  0.0000  0.0000  0.0000
 6596OM     OM1 6596   0.177   0.475   1.017  0.0000  0.0000  0.0000
 6597OM     OM1 6597   0.920   4.356   0.037  0.0000  0.0000  0.0000
 6598OM     OM1 6598   0.910   4.627   0.049  0.0000  0.0000  0.0000
 6599OM     OM1 6599   1.030   4.495   0.225  0.0000  0.0000  0.0000
 6600OM     OM1 6600   7.346   8.822   1.143  0.0000  0.0000  0.0000
 6601OM     OM1 6601   7.605   8.805   1.141  0.0000  0.0000  0.0000
 6602OM     OM1 6602   3.611   1.785   9.435  0.0000  0.0000  0.0000
 6603OM     OM1 6603   3.677   1.660   0.039  0.0000  0.0000  0.0000
 6604OM     OM1 6604   3.439   1.769   0.029  0.0000  0.0000  0.0000
 6605OM     OM1 6605   3.500   1.555   9.489  0.0000  0.0000  0.0000
 6606OM     OM1 6606   2.936   6.830   0.501  0.0000  0.0000  0.0000
 6607OM     OM1 6607   2.822   7.071   0.573  0.0000  0.0000  0.0000
 6608OM     OM1 6608   3.737   1.041   9.078  0.0000  0.0000  0.0000
 6609OM     OM1 6609   3.634   0.850   9.234  0.0000  0.0000  0.0000
 6610OM     OM1 6610   3.872   0.827   9.145  0.0000  0.0000  0.0000
 6611OM     OM1 6611   3.676   0.807   8.982  0.0000  0.0000  0.0000
 6612OM     OM1 6612   0.872   2.603   0.767  0.0000  0.0000  0.0000
 6613OM     OM1 6613   0.979   2.427   0.928  0.0000  0.0000  0.0000
 6614OM     OM1 6614   1.072   2.653   0.940  0.0000  0.0000  0.0000
 6615OM     OM1 6615   6.142   5.687   1.247  0.0000  0.0000  0.0000
 6616OM     OM1 6616   6.269   5.670   1.033  0.0000  0.0000  0.0000
 6617OM     OM1 6617   6.215   5.455   1.171  0.0000  0.0000  0.0000
 6618OM     OM1 6618   9.169   6.846   0.178  0.0000  0.0000  0.0000
 6619OM     OM1 6619   9.082   7.081   0.233  0.0000  0.0000  0.0000
 6620OM     OM1 6620   0.730   0.876   8.789  0.0000  0.0000  0.0000
 6621OM     OM1 6621   0.715   0.926   8.529  0.0000  0.0000  0.0000
 6622OM     OM1 6622   0.657   1.068   8.930  0.0000  0.0000  0.0000
 6623OM     OM1 6623   7.179   7.210   0.692  0.0000  0.0000  0.0000
 6624OM     OM1 6624   7.162   7.336   0.456  0.0000  0.0000  0.0000
 6625OM     OM1 6625   7.809   3.852   9.010  0.0000  0.0000  0.0000
 6626OM     OM1 6626   7.917   4.089   8.976  0.0000  0.0000  0.0000
 6627OM     OM1 6627   7.681   4.045   8.881  0.0000  0.0000  0.0000
 6628OM     OM1 6628   7.714   4.063   9.137  0.0000  0.0000  0.0000
 6629OM     OM1 6629   3.784   3.293   0.257  0.0000  0.0000  0.0000
 6630OM     OM1 6630   3.688   3.135   0.088  0.0000  0.0000  0.0000
 6631OM     OM1 6631   3.240   5.714   8.696  0.0000  0.0000  0.0000
 6632OM     OM1 6632   3.311   5.573   8.487  0.0000  0.0000  0.0000
 6633OM     OM1 6633   2.566   9.236   8.803  0.0000  0.0000  0.0000
 6634OM     OM1 6634   2.583   8.982   8.773  0.0000  0.0000  0.0000
 6635OM     OM1 6635   2.479   9.066   8.992  0.0000  0.0000  0.0000
 6636OM     OM1 6636   4.409   6.697   1.072  0.0000  0.0000  0.0000
 6637OM     OM1 6637   4.298   6.505   0.926  0.0000  0.0000  0.0000
 6638OM     OM1 6638   4.254   6.515   1.182  0.0000  0.0000  0.0000
 6639OM     OM1 6639   1.069   6.732   8.290  0.0000  0.0000  0.0000
 6640OM     OM1 6640   4.362   3.542   1.026  0.0000  0.0000  0.0000
 6641OM     OM1 6641   4.245   3.306   1.057  0.0000  0.0000  0.0000
 6642OM     OM1 6642   4.288   3.469   1.267  0.0000  0.0000  0.0000
 6643OM     OM1 6643   1.265   6.037   8.306  0.0000  0.0000  0.0000
 6644OM     OM1 6644   4.899   0.020   8.449  0.0000  0.0000  0.0000
 6645OM     OM1 6645   5.129   0.116   8.518  0.0000  0.0000  0.0000
 6646OM     OM1 6646   4.971   0.243   8.339  0.0000  0.0000  0.0000
 6647OM     OM1 6647   6.171   9.559   1.085  0.0000  0.0000  0.0000
 6648OM     OM1 6648   4.616   1.519   8.435  0.0000  0.0000  0.0000
 6649OM     OM1 6649   4.384   1.602   8.375  0.0000  0.0000  0.0000
 6650OM     OM1 6650   4.583   1.756   8.311  0.0000  0.0000  0.0000
 6651OM     OM1 6651   2.518   2.812   0.436  0.0000  0.0000  0.0000
 6652OM     OM1 6652   2.630   2.601   0.320  0.0000  0.0000  0.0000
 6653OM     OM1 6653   2.376   2.601   0.377  0.0000  0.0000  0.0000
 6654OM     OM1 6654   2.473   2.756   0.189  0.0000  0.0000  0.0000
 6655OM     OM1 6655   3.288   2.950   8.575  0.0000  0.0000  0.0000
 6656OM     OM1 6656   3.265   2.704   8.664  0.0000  0.0000  0.0000
 6657OM     OM1 6657   3.324   2.910   8.824  0.0000  0.0000  0.0000
 6658OM     OM1 6658   1.522   5.324   8.272  0.0000  0.0000  0.0000
 6659OM     OM1 6659   6.724   2.132   0.111  0.0000  0.0000  0.0000
 6660OM     OM1 6660   6.518   2.287   0.184  0.0000  0.0000  0.0000
 6661OM     OM1 6661   6.691   2.203   0.353  0.0000  0.0000  0.0000
 6662OM     OM1 6662   5.188   3.305   0.266  0.0000  0.0000  0.0000
 6663OM     OM1 6663   5.184   3.327   0.546  0.0000  0.0000  0.0000
 6664OM     OM1 6664   7.093   2.531   8.261  0.0000  0.0000  0.0000
 6665OM     OM1 6665   7.242   2.507   8.475  0.0000  0.0000  0.0000
 6666OM     OM1 6666   3.493   6.272   8.338  0.0000  0.0000  0.0000
 6667OM     OM1 6667   3.444   6.200   8.596  0.0000  0.0000  0.0000
 6668OM     OM1 6668   2.730   1.601   9.134  0.0000  0.0000  0.0000
 6669OM     OM1 6669   2.945   1.648   9.275  0.0000  0.0000  0.0000
 6670OM     OM1 6670   2.913   1.762   9.044  0.0000  0.0000  0.0000
 6671OM     OM1 6671   1.675   2.834   0.554  0.0000  0.0000  0.0000
 6672OM     OM1 6672   1.920   2.769   0.519  0.0000  0.0000  0.0000
 6673OM     OM1 6673   1.034   5.244   0.681  0.0000  0.0000  0.0000
 6674OM     OM1 6674   1.236   5.298   0.824  0.0000  0.0000  0.0000
 6675OM     OM1 6675   1.106   5.064   0.857  0.0000  0.0000  0.0000
 6676OM     OM1 6676   8.643   4.534   0.305  0.0000  0.0000  0.0000
 6677OM     OM1 6677   8.618   4.267   0.294  0.0000  0.0000  0.0000
 6678OM     OM1 6678   8.786   4.410   0.138  0.0000  0.0000  0.0000
 6679OM     OM1 6679   3.238   6.680   8.649  0.0000  0.0000  0.0000
 6680OM     OM1 6680   3.488   6.637   8.671  0.0000  0.0000  0.0000
 6681OM     OM1 6681   3.313   6.557   8.860  0.0000  0.0000  0.0000
 6682OM     OM1 6682   3.378   6.806   8.832  0.0000  0.0000  0.0000
 6683OM     OM1 6683   3.742   3.526   0.912  0.0000  0.0000  0.0000
 6684OM     OM1 6684   0.871   8.969   9.456  0.0000  0.0000  0.0000
 6685OM     OM1 6685   7.690   3.615   8.974  0.0000  0.0000  0.0000
 6686OM     OM1 6686   7.608   3.412   9.097  0.0000  0.0000  0.0000
 6687OM     OM1 6687   0.365   0.127   9.334  0.0000  0.0000  0.0000
 6688OM     OM1 6688   4.529   7.877   9.411  0.0000  0.0000  0.0000
 6689OM     OM1 6689   4.363   7.744   9.258  0.0000  0.0000  0.0000
 6690OM     OM1 6690   4.388   8.009   9.241  0.0000  0.0000  0.0000
 6691OM     OM1 6691   9.058   9.479   1.120  0.0000  0.0000  0.0000
 6692OM     OM1 6692   8.935   9.324   0.957  0.0000  0.0000  0.0000
 6693OM     OM1 6693   9.000   9.579   0.891  0.0000  0.0000  0.0000
 6694OM     OM1 6694   8.799   9.513   1.042  0.0000  0.0000  0.0000
 6695OM     OM1 6695   2.404   4.751   0.998  0.0000  0.0000  0.0000
 6696OM     OM1 6696   2.535   4.605   0.823  0.0000  0.0000  0.0000
 6697OM     OM1 6697   2.289   4.531   0.907  0.0000  0.0000  0.0000
 6698OM     OM1 6698   2.495   4.515   1.063  0.0000  0.0000  0.0000
 6699OM     OM1 6699   1.166   0.813   0.508  0.0000  0.0000  0.0000
 6700OM     OM1 6700   0.911   0.803   0.447  0.0000  0.0000  0.0000
 6701OM     OM1 6701   1.021   1.020   0.559  0.0000  0.0000  0.0000
 6702OM     OM1 6702   0.977   0.810   0.697  0.0000  0.0000  0.0000
 6703OM     OM1 6703   3.293   7.373   0.062  0.0000  0.0000  0.0000
 6704OM     OM1 6704   3.338   7.579   0.213  0.0000  0.0000  0.0000
 6705OM     OM1 6705   3.437   2.199   0.962  0.0000  0.0000  0.0000
 6706OM     OM1 6706   3.215   2.194   0.823  0.0000  0.0000  0.0000
 6707OM     OM1 6707   3.185   4.509   0.519  0.0000  0.0000  0.0000
 6708OM     OM1 6708   3.087   4.286   0.618  0.0000  0.0000  0.0000
 6709OM     OM1 6709   0.677   3.190   1.094  0.0000  0.0000  0.0000
 6710OM     OM1 6710   0.562   2.979   1.022  0.0000  0.0000  0.0000
 6711OM     OM1 6711   7.353   2.386   9.356  0.0000  0.0000  0.0000
 6712OM     OM1 6712   9.210   2.314   8.962  0.0000  0.0000  0.0000
 6713OM     OM1 6713   9.046   2.445   9.116  0.0000  0.0000  0.0000
 6714OM     OM1 6714   9.002   2.196   9.082  0.0000  0.0000  0.0000
 6715OM     OM1 6715   9.212   2.265   9.223  0.0000  0.0000  0.0000
 6716OM     OM1 6716   7.453   3.632   0.060  0.0000  0.0000  0.0000
 6717OM     OM1 6717   6.501   0.385   0.456  0.0000  0.0000  0.0000
 6718OM     OM1 6718   6.727   0.377   0.586  0.0000  0.0000  0.0000
 6719OM     OM1 6719   6.594   0.157   0.554  0.0000  0.0000  0.0000
 6720OM     OM1 6720   6.716   0.274   0.352  0.0000  0.0000  0.0000
 6721OM     OM1 6721   4.889   4.776   8.412  0.0000  0.0000  0.0000
 6722OM     OM1 6722   4.692   4.957   8.411  0.0000  0.0000  0.0000
 6723OM     OM1 6723   4.682   4.734   8.559  0.0000  0.0000  0.0000
 6724OM     OM1 6724   2.524   8.610   0.675  0.0000  0.0000  0.0000
 6725OM     OM1 6725   7.325   7.492   8.386  0.0000  0.0000  0.0000
 6726OM     OM1 6726   3.095   7.778   8.375  0.0000  0.0000  0.0000
 6727OM     OM1 6727   4.684   6.074   9.321  0.0000  0.0000  0.0000
 6728OM     OM1 6728   4.812   5.872   9.420  0.0000  0.0000  0.0000
 6729OM     OM1 6729   2.742   1.566   0.582  0.0000  0.0000  0.0000
 6730OM     OM1 6730   2.599   1.373   0.704  0.0000  0.0000  0.0000
 6731OM     OM1 6731   2.833   1.326   0.616  0.0000  0.0000  0.0000
 6732OM     OM1 6732   3.320   0.948   0.866  0.0000  0.0000  0.0000
 6733OM     OM1 6733   3.155   0.921   1.074  0.0000  0.0000  0.0000
 6734OM     OM1 6734   6.894   6.057   8.443  0.0000  0.0000  0.0000
 6735OM     OM1 6735   7.096   5.904   8.344  0.0000  0.0000  0.0000
 6736OM     OM1 6736   3.877   8.796   0.988  0.0000  0.0000  0.0000
 6737OM     OM1 6737   4.082   9.079   1.292  0.0000  0.0000  0.0000
 6738OM     OM1 6738   8.267   1.220   0.167  0.0000  0.0000  0.0000
 6739OM     OM1 6739   8.516   1.286   0.166  0.0000  0.0000  0.0000
 6740OM     OM1 6740   8.420   1.212   9.548  0.0000  0.0000  0.0000
 6741OM     OM1 6741   1.566   5.925   1.296  0.0000  0.0000  0.0000
 6742OM     OM1 6742   1.507   6.120   1.125  0.0000  0.0000  0.0000
 6743OM     OM1 6743   3.147   7.430   0.740  0.0000  0.0000  0.0000
 6744OM     OM1 6744   3.374   7.347   0.827  0.0000  0.0000  0.0000
 6745OM     OM1 6745   3.297   7.281   0.581  0.0000  0.0000  0.0000
 6746OM     OM1 6746   7.162   2.601   1.184  0.0000  0.0000  0.0000
 6747OM     OM1 6747   7.242   2.555   0.920  0.0000  0.0000  0.0000
 6748OM     OM1 6748   1.774   6.968   0.818  0.0000  0.0000  0.0000
 6749OM     OM1 6749   1.735   6.728   0.760  0.0000  0.0000  0.0000
 6750OM     OM1 6750   1.751   6.789   1.010  0.0000  0.0000  0.0000
 6751OM     OM1 6751   1.535   6.863   0.888  0.0000  0.0000  0.0000
 6752OM     OM1 6752   0.099   5.154   0.326  0.0000  0.0000  0.0000
 6753OM     OM1 6753   0.082   5.213   0.585  0.0000  0.0000  0.0000
 6754OM     OM1 6754   0.135   5.399   0.409  0.0000  0.0000  0.0000
 6755OM     OM1 6755   9.507   5.295   0.407  0.0000  0.0000  0.0000
 6756OM     OM1 6756   8.383   4.462   1.146  0.0000  0.0000  0.0000
 6757OM     OM1 6757   8.636   4.480   1.125  0.0000  0.0000  0.0000
 6758OM     OM1 6758   6.551   7.751   0.909  0.0000  0.0000  0.0000
 6759OM     OM1 6759   6.997   9.452   1.030  0.0000  0.0000  0.0000
 6760OM     OM1 6760   6.849   9.425   0.828  0.0000  0.0000  0.0000
 6761OM     OM1 6761   6.989   0.043   0.849  0.0000  0.0000  0.0000
 6762OM     OM1 6762   1.582   7.138   9.243  0.0000  0.0000  0.0000
 6763OM     OM1 6763   1.490   6.915   9.124  0.0000  0.0000  0.0000
 6764OM     OM1 6764   1.382   7.009   9.449  0.0000  0.0000  0.0000
 6765OM     OM1 6765   1.851   3.668   8.801  0.0000  0.0000  0.0000
 6766OM     OM1 6766   2.304   3.750   8.869  0.0000  0.0000  0.0000
 6767OM     OM1 6767   2.073   3.643   8.909  0.0000  0.0000  0.0000
 6768OM     OM1 6768   3.619   4.550   0.831  0.0000  0.0000  0.0000
 6769OM     OM1 6769   3.419   4.545   0.638  0.0000  0.0000  0.0000
 6770OM     OM1 6770   3.634   4.672   0.598  0.0000  0.0000  0.0000
 6771OM     OM1 6771   1.762   6.813   8.928  0.0000  0.0000  0.0000
 6772OM     OM1 6772   1.619   6.816   8.716  0.0000  0.0000  0.0000
 6773OM     OM1 6773   1.516   6.735   8.946  0.0000  0.0000  0.0000
 6774OM     OM1 6774   2.216   7.096   0.622  0.0000  0.0000  0.0000
 6775OM     OM1 6775   2.044   7.006   0.800  0.0000  0.0000  0.0000
 6776OM     OM1 6776   2.254   6.865   0.760  0.0000  0.0000  0.0000
 6777OM     OM1 6777   1.407   5.776   0.184  0.0000  0.0000  0.0000
 6778OM     OM1 6778   1.694   5.864   0.054  0.0000  0.0000  0.0000
 6779OM     OM1 6779   1.515   5.603   0.014  0.0000  0.0000  0.0000
 6780OM     OM1 6780   5.161   6.520   9.149  0.0000  0.0000  0.0000
 6781OM     OM1 6781   5.214   6.378   8.942  0.0000  0.0000  0.0000
 6782OM     OM1 6782   5.066   6.173   8.994  0.0000  0.0000  0.0000
 6783OM     OM1 6783   1.089   1.986   1.176  0.0000  0.0000  0.0000
 6784OM     OM1 6784   1.286   1.818   1.178  0.0000  0.0000  0.0000
 6785OM     OM1 6785   0.860   9.269   0.238  0.0000  0.0000  0.0000
 6786OM     OM1 6786   0.599   9.433   0.314  0.0000  0.0000  0.0000
 6787OM     OM1 6787   0.985   9.489   0.359  0.0000  0.0000  0.0000
 6788OM     OM1 6788   7.790   9.146   0.161  0.0000  0.0000  0.0000
 6789OM     OM1 6789   7.647   9.272   0.334  0.0000  0.0000  0.0000
 6790OM     OM1 6790   7.598   9.019   0.292  0.0000  0.0000  0.0000
 6791OM     OM1 6791   8.042   7.037   0.350  0.0000  0.0000  0.0000
 6792OM     OM1 6792   7.865   6.981   0.150  0.0000  0.0000  0.0000
 6793OM     OM1 6793   8.037   6.811   0.219  0.0000  0.0000  0.0000
 6794OM     OM1 6794   2.472   0.409   0.573  0.0000  0.0000  0.0000
 6795OM     OM1 6795   2.519   0.360   0.998  0.0000  0.0000  0.0000
 6796OM     OM1 6796   1.365   1.519   0.237  0.0000  0.0000  0.0000
 6797OM     OM1 6797   1.257   1.728   0.328  0.0000  0.0000  0.0000
 6798OM     OM1 6798   1.472   6.870   0.578  0.0000  0.0000  0.0000
 6799OM     OM1 6799   1.679   6.801   0.423  0.0000  0.0000  0.0000
 6800OM     OM1 6800   1.619   7.048   0.452  0.0000  0.0000  0.0000
 6801OM     OM1 6801   4.124   6.616   9.062  0.0000  0.0000  0.0000
 6802OM     OM1 6802   4.216   6.835   8.947  0.0000  0.0000  0.0000
 6803OM     OM1 6803   4.167   6.826   9.204  0.0000  0.0000  0.0000
 6804OM     OM1 6804   5.450   8.567   8.950  0.0000  0.0000  0.0000
 6805OM     OM1 6805   5.457   8.780   9.118  0.0000  0.0000  0.0000
 6806OM     OM1 6806   5.661   8.639   9.076  0.0000  0.0000  0.0000
 6807OM     OM1 6807   9.143   4.479   0.353  0.0000  0.0000  0.0000
 6808OM     OM1 6808   9.260   4.709   0.421  0.0000  0.0000  0.0000
 6809OM     OM1 6809   9.060   4.695   0.248  0.0000  0.0000  0.0000
 6810OM     OM1 6810   6.215   9.466   8.444  0.0000  0.0000  0.0000
 6811OM     OM1 6811   1.677   1.357   0.618  0.0000  0.0000  0.0000
 6812OM     OM1 6812   2.233   5.118   8.645  0.0000  0.0000  0.0000
 6813OM     OM1 6813   2.039   7.791   8.568  0.0000  0.0000  0.0000
 6814OM     OM1 6814   2.145   7.591   8.700  0.0000  0.0000  0.0000
 6815OM     OM1 6815   5.263   0.694   9.394  0.0000  0.0000  0.0000
 6816OM     OM1 6816   5.099   0.590   9.569  0.0000  0.0000  0.0000
 6817OM     OM1 6817   6.740   0.130   9.466  0.0000  0.0000  0.0000
 6818OM     OM1 6818   6.973   0.092   9.340  0.0000  0.0000  0.0000
 6819OM     OM1 6819   5.475   5.851   0.152  0.0000  0.0000  0.0000
 6820OM     OM1 6820   5.417   5.851   9.503  0.0000  0.0000  0.0000
 6821OM     OM1 6821   5.559   6.050   0.002  0.0000  0.0000  0.0000
 6822OM     OM1 6822   5.304   6.034   0.045  0.0000  0.0000  0.0000
 6823OM     OM1 6823   5.558   9.052   8.476  0.0000  0.0000  0.0000
 6824OM     OM1 6824   5.510   8.802   8.450  0.0000  0.0000  0.0000
 6825OM     OM1 6825   1.384   5.529   8.370  0.0000  0.0000  0.0000
 6826OM     OM1 6826   1.196   5.529   8.541  0.0000  0.0000  0.0000
 6827OM     OM1 6827   1.157   5.638   8.309  0.0000  0.0000  0.0000
 6828OM     OM1 6828   6.750   3.626   9.366  0.0000  0.0000  0.0000
 6829OM     OM1 6829   6.615   3.470   9.513  0.0000  0.0000  0.0000
 6830OM     OM1 6830   6.639   3.407   9.270  0.0000  0.0000  0.0000
 6831OM     OM1 6831   0.636   3.441   9.164  0.0000  0.0000  0.0000
 6832OM     OM1 6832   0.885   3.340   9.176  0.0000  0.0000  0.0000
 6833OM     OM1 6833   6.327   0.978   9.018  0.0000  0.0000  0.0000
 6834OM     OM1 6834   6.450   1.170   8.896  0.0000  0.0000  0.0000
 6835OM     OM1 6835   3.632   1.660   1.235  0.0000  0.0000  0.0000
 6836OM     OM1 6836   3.981   1.568   1.343  0.0000  0.0000  0.0000
 6837OM     OM1 6837   3.840   1.586   1.131  0.0000  0.0000  0.0000
 6838OM     OM1 6838   3.316   0.214   0.932  0.0000  0.0000  0.0000
 6839OM     OM1 6839   3.449   0.295   0.726  0.0000  0.0000  0.0000
 6840OM     OM1 6840   6.537   4.870   9.340  0.0000  0.0000  0.0000
 6841OM     OM1 6841   4.143   6.700   8.743  0.0000  0.0000  0.0000
 6842OM     OM1 6842   4.374   6.800   8.743  0.0000  0.0000  0.0000
 6843OM     OM1 6843   9.045   3.357   8.418  0.0000  0.0000  0.0000
 6844OM     OM1 6844   9.156   3.567   8.526  0.0000  0.0000  0.0000
 6845OM     OM1 6845   2.523   5.076   0.498  0.0000  0.0000  0.0000
 6846OM     OM1 6846   2.402   5.314   0.516  0.0000  0.0000  0.0000
 6847OM     OM1 6847   2.280   5.110   0.422  0.0000  0.0000  0.0000
 6848OM     OM1 6848   2.489   5.224   0.292  0.0000  0.0000  0.0000
 6849OM     OM1 6849   6.857   7.447   0.053  0.0000  0.0000  0.0000
 6850OM     OM1 6850   6.979   7.372   0.269  0.0000  0.0000  0.0000
 6851OM     OM1 6851   6.721   7.302   0.227  0.0000  0.0000  0.0000
 6852OM     OM1 6852   9.183   1.834   0.839  0.0000  0.0000  0.0000
 6853OM     OM1 6853   9.008   1.815   0.637  0.0000  0.0000  0.0000
 6854OM     OM1 6854   8.493   3.820   1.334  0.0000  0.0000  0.0000
 6855OM     OM1 6855   8.580   3.741   1.097  0.0000  0.0000  0.0000
 6856OM     OM1 6856   4.816   1.751   0.105  0.0000  0.0000  0.0000
 6857OM     OM1 6857   5.017   1.855   0.239  0.0000  0.0000  0.0000
 6858OM     OM1 6858   4.798   1.978   0.238  0.0000  0.0000  0.0000
 6859OM     OM1 6859   4.818   1.744   0.367  0.0000  0.0000  0.0000
 6860OM     OM1 6860   3.358   6.202   9.559  0.0000  0.0000  0.0000
 6861OM     OM1 6861   3.841   6.097   9.589  0.0000  0.0000  0.0000
 6862OM     OM1 6862   3.516   6.312   9.375  0.0000  0.0000  0.0000
 6863OM     OM1 6863   4.789   4.893   0.257  0.0000  0.0000  0.0000
 6864OM     OM1 6864   9.122   1.091   9.102  0.0000  0.0000  0.0000
 6865OM     OM1 6865   9.215   1.324   9.019  0.0000  0.0000  0.0000
 6866OM     OM1 6866   9.366   1.177   9.171  0.0000  0.0000  0.0000
 6867OM     OM1 6867   7.782   8.704   0.793  0.0000  0.0000  0.0000
 6868OM     OM1 6868   7.788   8.998   1.156  0.0000  0.0000  0.0000
 6869OM     OM1 6869   7.758   8.931   0.913  0.0000  0.0000  0.0000
 6870OM     OM1 6870   1.196   3.295   0.443  0.0000  0.0000  0.0000
 6871OM     OM1 6871   1.230   3.026   0.359  0.0000  0.0000  0.0000
 6872OM     OM1 6872   9.006   3.295   9.138  0.0000  0.0000  0.0000
 6873OM     OM1 6873   9.154   3.463   9.004  0.0000  0.0000  0.0000
 6874OM     OM1 6874   9.130   3.214   8.927  0.0000  0.0000  0.0000
 6875OM     OM1 6875   2.328   4.455   0.005  0.0000  0.0000  0.0000
 6876OM     OM1 6876   2.278   4.577   9.380  0.0000  0.0000  0.0000
 6877OM     OM1 6877   2.165   4.656   0.010  0.0000  0.0000  0.0000
 6878OM     OM1 6878   3.657   1.878   9.210  0.0000  0.0000  0.0000
 6879OM     OM1 6879   3.543   2.069   9.093  0.0000  0.0000  0.0000
 6880OM     OM1 6880   7.007   8.749   8.783  0.0000  0.0000  0.0000
 6881OM     OM1 6881   6.837   8.550   8.806  0.0000  0.0000  0.0000
 6882OM     OM1 6882   7.092   8.516   8.874  0.0000  0.0000  0.0000
 6883OM     OM1 6883   0.307   3.719   0.811  0.0000  0.0000  0.0000
 6884OM     OM1 6884   0.168   3.550   0.673  0.0000  0.0000  0.0000
 6885OM     OM1 6885   4.691   3.530   9.293  0.0000  0.0000  0.0000
 6886OM     OM1 6886   4.449   3.507   9.215  0.0000  0.0000  0.0000
 6887OM     OM1 6887   2.392   6.638   0.506  0.0000  0.0000  0.0000
 6888OM     OM1 6888   9.278   9.273   0.354  0.0000  0.0000  0.0000
 6889OM     OM1 6889   9.578   6.697   8.371  0.0000  0.0000  0.0000
 6890OM     OM1 6890   0.169   6.829   8.524  0.0000  0.0000  0.0000
 6891OM     OM1 6891   2.698   7.306   0.986  0.0000  0.0000  0.0000
 6892OM     OM1 6892   2.570   7.382   1.203  0.0000  0.0000  0.0000
 6893OM     OM1 6893   1.418   2.420   0.767  0.0000  0.0000  0.0000
 6894OM     OM1 6894   1.227   2.311   0.890  0.0000  0.0000  0.0000
 6895OM     OM1 6895   5.018   0.082   9.520  0.0000  0.0000  0.0000
 6896OM     OM1 6896   5.217   0.156   0.054  0.0000  0.0000  0.0000
 6897OM     OM1 6897   5.146   0.147   0.307  0.0000  0.0000  0.0000
 6898OM     OM1 6898   5.049   0.337   9.570  0.0000  0.0000  0.0000
 6899OM     OM1 6899   0.515   1.212   8.256  0.0000  0.0000  0.0000
 6900OM     OM1 6900   0.438   1.115   8.485  0.0000  0.0000  0.0000
 6901OM     OM1 6901   2.755   8.350   1.319  0.0000  0.0000  0.0000
 6902OM     OM1 6902   6.592   1.232   0.079  0.0000  0.0000  0.0000
 6903OM     OM1 6903   6.734   1.327   9.492  0.0000  0.0000  0.0000
 6904OM     OM1 6904   6.478   1.387   9.508  0.0000  0.0000  0.0000
 6905OM     OM1 6905   1.794   8.454   9.386  0.0000  0.0000  0.0000
 6906OM     OM1 6906   3.920   1.327   8.736  0.0000  0.0000  0.0000
 6907OM     OM1 6907   3.719   1.435   8.600  0.0000  0.0000  0.0000
 6908OM     OM1 6908   3.784   1.524   8.831  0.0000  0.0000  0.0000
 6909OM     OM1 6909   3.941   1.571   8.628  0.0000  0.0000  0.0000
 6910OM     OM1 6910   2.166   4.294   0.899  0.0000  0.0000  0.0000
 6911OM     OM1 6911   3.562   7.750   8.670  0.0000  0.0000  0.0000
 6912OM     OM1 6912   3.424   7.908   8.502  0.0000  0.0000  0.0000
 6913OM     OM1 6913   5.444   7.621   8.404  0.0000  0.0000  0.0000
 6914OM     OM1 6914   5.383   7.473   8.601  0.0000  0.0000  0.0000
 6915OM     OM1 6915   5.514   7.351   8.409  0.0000  0.0000  0.0000
 6916OM     OM1 6916   1.713   3.709   8.568  0.0000  0.0000  0.0000
 6917OM     OM1 6917   1.656   3.919   8.419  0.0000  0.0000  0.0000
 6918OM     OM1 6918   5.167   2.575   9.419  0.0000  0.0000  0.0000
 6919OM     OM1 6919   4.919   2.550   9.329  0.0000  0.0000  0.0000
 6920OM     OM1 6920   5.090   2.731   9.229  0.0000  0.0000  0.0000
 6921OM     OM1 6921   1.875   6.207   8.284  0.0000  0.0000  0.0000
 6922OM     OM1 6922   0.042   7.988   8.711  0.0000  0.0000  0.0000
 6923OM     OM1 6923   0.269   7.846   8.696  0.0000  0.0000  0.0000
 6924OM     OM1 6924   0.380   7.812   8.464  0.0000  0.0000  0.0000
 6925OM     OM1 6925   0.578   0.148   9.457  0.0000  0.0000  0.0000
 6926OM     OM1 6926   6.284   0.909   8.367  0.0000  0.0000  0.0000
 6927OM     OM1 6927   4.230   2.444   1.093  0.0000  0.0000  0.0000
 6928OM     OM1 6928   4.428   2.277   1.089  0.0000  0.0000  0.0000
 6929OM     OM1 6929   4.204   2.214   0.962  0.0000  0.0000  0.0000
 6930OM     OM1 6930   7.070   8.791   9.534  0.0000  0.0000  0.0000
 6931OM     OM1 6931   3.786   5.174   8.342  0.0000  0.0000  0.0000
 6932OM     OM1 6932   3.571   5.322   8.322  0.0000  0.0000  0.0000
 6933OM     OM1 6933   0.396   3.549   9.111  0.0000  0.0000  0.0000
 6934OM     OM1 6934   0.556   3.459   8.918  0.0000  0.0000  0.0000
 6935OM     OM1 6935   1.710   8.134   8.726  0.0000  0.0000  0.0000
 6936OM     OM1 6936   1.579   8.327   8.600  0.0000  0.0000  0.0000
 6937OM     OM1 6937   1.826   8.356   8.692  0.0000  0.0000  0.0000
 6938OM     OM1 6938   3.143   3.136   8.473  0.0000  0.0000  0.0000
 6939OM     OM1 6939   3.296   2.968   8.319  0.0000  0.0000  0.0000
 6940OM     OM1 6940   3.418   3.140   8.466  0.0000  0.0000  0.0000
 6941OM     OM1 6941   0.064   5.627   0.061  0.0000  0.0000  0.0000
 6942OM     OM1 6942   9.452   5.535   9.567  0.0000  0.0000  0.0000
 6943OM     OM1 6943   9.511   5.461   0.204  0.0000  0.0000  0.0000
 6944OM     OM1 6944   2.183   7.954   9.327  0.0000  0.0000  0.0000
 6945OM     OM1 6945   2.067   7.737   9.277  0.0000  0.0000  0.0000
 6946OM     OM1 6946   0.778   3.249   0.856  0.0000  0.0000  0.0000
 6947OM     OM1 6947   0.827   3.356   0.619  0.0000  0.0000  0.0000
 6948OM     OM1 6948   7.524   9.486   8.843  0.0000  0.0000  0.0000
 6949OM     OM1 6949   7.669   9.287   8.752  0.0000  0.0000  0.0000
 6950OM     OM1 6950   7.665   9.514   8.615  0.0000  0.0000  0.0000
 6951OM     OM1 6951   9.306   7.288   0.975  0.0000  0.0000  0.0000
 6952OM     OM1 6952   9.441   7.094   0.882  0.0000  0.0000  0.0000
 6953OM     OM1 6953   9.249   7.205   0.732  0.0000  0.0000  0.0000
 6954OM     OM1 6954   9.473   7.325   0.764  0.0000  0.0000  0.0000
 6955OM     OM1 6955   9.538   6.617   0.470  0.0000  0.0000  0.0000
 6956OM     OM1 6956   9.362   6.745   0.319  0.0000  0.0000  0.0000
 6957OM     OM1 6957   9.368   6.784   0.567  0.0000  0.0000  0.0000
 6958OM     OM1 6958   6.626   8.988   0.270  0.0000  0.0000  0.0000
 6959OM     OM1 6959   6.601   9.098   9.558  0.0000  0.0000  0.0000
 6960OM     OM1 6960   0.373   5.503   1.078  0.0000  0.0000  0.0000
 6961OM     OM1 6961   0.214   6.645   8.360  0.0000  0.0000  0.0000
 6962OM     OM1 6962   6.623   1.224   0.339  0.0000  0.0000  0.0000
 6963OM     OM1 6963   6.800   1.047   0.393  0.0000  0.0000  0.0000
 6964OM     OM1 6964   6.677   0.850   0.504  0.0000  0.0000  0.0000
 6965OM     OM1 6965   5.453   3.423   9.388  0.0000  0.0000  0.0000
 6966OM     OM1 6966   5.656   3.807   9.189  0.0000  0.0000  0.0000
 6967OM     OM1 6967   5.606   3.629   9.369  0.0000  0.0000  0.0000
 6968OM     OM1 6968   8.756   2.510   1.094  0.0000  0.0000  0.0000
 6969OM     OM1 6969   8.878   2.366   0.914  0.0000  0.0000  0.0000
 6970OM     OM1 6970   6.345   6.515   0.068  0.0000  0.0000  0.0000
 6971OM     OM1 6971   6.302   6.111   9.586  0.0000  0.0000  0.0000
 6972OM     OM1 6972   2.934   8.395   0.450  0.0000  0.0000  0.0000
 6973OM     OM1 6973   2.695   8.315   0.495  0.0000  0.0000  0.0000
 6974OM     OM1 6974   2.761   8.555   0.570  0.0000  0.0000  0.0000
 6975OM     OM1 6975   3.349   8.442   8.837  0.0000  0.0000  0.0000
 6976OM     OM1 6976   3.125   8.394   8.943  0.0000  0.0000  0.0000
 6977OM     OM1 6977   3.325   8.269   9.048  0.0000  0.0000  0.0000
 6978OM     OM1 6978   6.700   7.691   8.361  0.0000  0.0000  0.0000
 6979OM     OM1 6979   8.465   1.237   0.603  0.0000  0.0000  0.0000
 6980OM     OM1 6980   8.266   1.070   0.659  0.0000  0.0000  0.0000
 6981OM     OM1 6981   8.330   1.140   0.411  0.0000  0.0000  0.0000
 6982OM     OM1 6982   0.870   5.692   9.504  0.0000  0.0000  0.0000
 6983OM     OM1 6983   1.064   5.664   9.325  0.0000  0.0000  0.0000
 6984OM     OM1 6984   9.334   5.004   0.040  0.0000  0.0000  0.0000
 6985OM     OM1 6985   9.325   5.210   9.480  0.0000  0.0000  0.0000
 6986OM     OM1 6986   9.105   5.104   9.581  0.0000  0.0000  0.0000
 6987OM     OM1 6987   6.868   5.363   8.459  0.0000  0.0000  0.0000
 6988OM     OM1 6988   6.930   5.581   8.335  0.0000  0.0000  0.0000
 6989OM     OM1 6989   8.480   4.725   0.219  0.0000  0.0000  0.0000
 6990OM     OM1 6990   8.644   4.773   0.419  0.0000  0.0000  0.0000
 6991OM     OM1 6991   1.077   7.454   8.815  0.0000  0.0000  0.0000
 6992OM     OM1 6992   0.894   7.305   8.716  0.0000  0.0000  0.0000
 6993OM     OM1 6993   9.096   8.195   0.219  0.0000  0.0000  0.0000
 6994OM     OM1 6994   9.364   8.181   0.194  0.0000  0.0000  0.0000
 6995OM     OM1 6995   3.028   4.825   9.419  0.0000  0.0000  0.0000
 6996OM     OM1 6996   3.132   4.914   0.048  0.0000  0.0000  0.0000
 6997OM     OM1 6997   9.248   9.360   1.258  0.0000  0.0000  0.0000
 6998OM     OM1 6998   7.305   0.285   0.891  0.0000  0.0000  0.0000
 6999OM     OM1 6999   7.189   0.149   0.708  0.0000  0.0000  0.0000
 7000OM     OM1 7000   0.735   1.490   0.913  0.0000  0.0000  0.0000
 7001OM     OM1 7001   9.160   2.527   8.475  0.0000  0.0000  0.0000
 7002OM     OM1 7002   9.222   3.342   0.328  0.0000  0.0000  0.0000
 7003OM     OM1 7003   7.192   9.172   0.436  0.0000  0.0000  0.0000
 7004OM     OM1 7004   6.948   9.120   0.503  0.0000  0.0000  0.0000
 7005OM     OM1 7005   7.079   8.933   0.383  0.0000  0.0000  0.0000
 7006OM     OM1 7006   3.278   1.126   0.675  0.0000  0.0000  0.0000
 7007OM     OM1 7007   2.034   5.614   0.988  0.0000  0.0000  0.0000
 7008OM     OM1 7008   2.067   5.607   1.246  0.0000  0.0000  0.0000
 7009OM     OM1 7009   2.064   5.383   1.111  0.0000  0.0000  0.0000
 7010OM     OM1 7010   3.703   2.511   9.043  0.0000  0.0000  0.0000
 7011OM     OM1 7011   3.698   2.261   8.981  0.0000  0.0000  0.0000
 7012OM     OM1 7012   3.883   2.432   8.892  0.0000  0.0000  0.0000
 7013OM     OM1 7013   7.107   2.110   0.269  0.0000  0.0000  0.0000
 7014OM     OM1 7014   6.937   2.273   0.390  0.0000  0.0000  0.0000
 7015OM     OM1 7015   6.950   2.259   0.134  0.0000  0.0000  0.0000
 7016OM     OM1 7016   7.150   2.373   0.265  0.0000  0.0000  0.0000
 7017OM     OM1 7017   7.105   5.675   9.235  0.0000  0.0000  0.0000
 7018OM     OM1 7018   6.860   5.751   9.202  0.0000  0.0000  0.0000
 7019OM     OM1 7019   5.936   8.918   1.159  0.0000  0.0000  0.0000
 7020OM     OM1 7020   6.081   9.117   1.259  0.0000  0.0000  0.0000
 7021OM     OM1 7021   8.212   7.089   0.754  0.0000  0.0000  0.0000
 7022OM     OM1 7022   8.224   7.166   0.508  0.0000  0.0000  0.0000
 7023OM     OM1 7023   8.398   7.257   0.711  0.0000  0.0000  0.0000
 7024OM     OM1 7024   2.050   3.967   0.592  0.0000  0.0000  0.0000
 7025OM     OM1 7025   2.138   4.045   0.837  0.0000  0.0000  0.0000
 7026OM     OM1 7026   2.199   4.174   0.625  0.0000  0.0000  0.0000
 7027OM     OM1 7027   1.953   4.171   0.710  0.0000  0.0000  0.0000
 7028OM     OM1 7028   2.154   6.577   0.602  0.0000  0.0000  0.0000
 7029OM     OM1 7029   2.092   6.400   0.793  0.0000  0.0000  0.0000
 7030OM     OM1 7030   2.237   6.615   0.841  0.0000  0.0000  0.0000
 7031OM     OM1 7031   1.986   6.649   0.779  0.0000  0.0000  0.0000
 7032OM     OM1 7032   3.224   4.147   0.121  0.0000  0.0000  0.0000
 7033OM     OM1 7033   3.146   4.113   0.356  0.0000  0.0000  0.0000
 7034OM     OM1 7034   3.026   4.292   0.224  0.0000  0.0000  0.0000
 7035OM     OM1 7035   5.283   3.408   8.541  0.0000  0.0000  0.0000
 7036OM     OM1 7036   5.215   3.598   8.377  0.0000  0.0000  0.0000
 7037OM     OM1 7037   5.247   3.335   8.293  0.0000  0.0000  0.0000
 7038OM     OM1 7038   8.741   8.579   9.025  0.0000  0.0000  0.0000
 7039OM     OM1 7039   8.937   8.417   9.051  0.0000  0.0000  0.0000
 7040OM     OM1 7040   8.902   8.560   8.835  0.0000  0.0000  0.0000
 7041OM     OM1 7041   8.975   8.690   9.045  0.0000  0.0000  0.0000
 7042OM     OM1 7042   3.197   4.835   8.914  0.0000  0.0000  0.0000
 7043OM     OM1 7043   3.280   4.596   8.988  0.0000  0.0000  0.0000
 7044OM     OM1 7044   3.792   5.053   8.916  0.0000  0.0000  0.0000
 7045OM     OM1 7045   3.851   4.863   8.737  0.0000  0.0000  0.0000
 7046OM     OM1 7046   4.006   4.917   8.939  0.0000  0.0000  0.0000
 7047OM     OM1 7047   5.904   3.196   9.315  0.0000  0.0000  0.0000
 7048OM     OM1 7048   6.127   3.119   9.429  0.0000  0.0000  0.0000
 7049OM     OM1 7049   6.052   3.037   9.186  0.0000  0.0000  0.0000
 7050OM     OM1 7050   6.131   3.284   9.230  0.0000  0.0000  0.0000
 7051OM     OM1 7051   7.718   1.068   9.461  0.0000  0.0000  0.0000
 7052OM     OM1 7052   2.508   0.589   8.370  0.0000  0.0000  0.0000
 7053OM     OM1 7053   4.911   4.154   0.498  0.0000  0.0000  0.0000
 7054OM     OM1 7054   5.040   4.006   0.337  0.0000  0.0000  0.0000
 7055OM     OM1 7055   0.737   3.934   0.898  0.0000  0.0000  0.0000
 7056OM     OM1 7056   8.867   4.649   0.072  0.0000  0.0000  0.0000
 7057OM     OM1 7057   8.671   4.522   9.534  0.0000  0.0000  0.0000
 7058OM     OM1 7058   5.566   2.316   0.251  0.0000  0.0000  0.0000
 7059OM     OM1 7059   5.652   2.384   0.023  0.0000  0.0000  0.0000
 7060OM     OM1 7060   5.647   2.565   0.215  0.0000  0.0000  0.0000
 7061OM     OM1 7061   3.345   4.050   1.014  0.0000  0.0000  0.0000
 7062OM     OM1 7062   3.573   4.033   0.915  0.0000  0.0000  0.0000
 7063OM     OM1 7063   3.324   4.313   0.971  0.0000  0.0000  0.0000
 7064OM     OM1 7064   3.539   4.097   1.174  0.0000  0.0000  0.0000
 7065OM     OM1 7065   8.240   1.664   8.359  0.0000  0.0000  0.0000
 7066OM     OM1 7066   8.032   1.626   8.221  0.0000  0.0000  0.0000
 7067OM     OM1 7067   5.540   3.925   8.685  0.0000  0.0000  0.0000
 7068OM     OM1 7068   5.556   3.660   8.728  0.0000  0.0000  0.0000
 7069OM     OM1 7069   5.570   3.818   8.927  0.0000  0.0000  0.0000
 7070OM     OM1 7070   5.341   3.792   8.786  0.0000  0.0000  0.0000
 7071OM     OM1 7071   9.311   5.408   8.648  0.0000  0.0000  0.0000
 7072OM     OM1 7072   9.473   5.204   8.670  0.0000  0.0000  0.0000
 7073OM     OM1 7073   9.442   5.339   8.442  0.0000  0.0000  0.0000
 7074OM     OM1 7074   2.324   3.579   0.549  0.0000  0.0000  0.0000
 7075OM     OM1 7075   2.282   3.603   0.800  0.0000  0.0000  0.0000
 7076OM     OM1 7076   2.116   3.721   0.632  0.0000  0.0000  0.0000
 7077OM     OM1 7077   7.664   7.575   9.043  0.0000  0.0000  0.0000
 7078OM     OM1 7078   7.469   7.712   8.934  0.0000  0.0000  0.0000
 7079OM     OM1 7079   0.455   4.716   9.564  0.0000  0.0000  0.0000
 7080OM     OM1 7080   0.705   4.704   9.531  0.0000  0.0000  0.0000
 7081OM     OM1 7081   0.565   4.495   9.486  0.0000  0.0000  0.0000
 7082OM     OM1 7082   0.928   4.848   9.526  0.0000  0.0000  0.0000
 7083OM     OM1 7083   7.663   5.528   8.853  0.0000  0.0000  0.0000
 7084OM     OM1 7084   7.843   5.563   9.023  0.0000  0.0000  0.0000
 7085OM     OM1 7085   5.086   0.562   0.880  0.0000  0.0000  0.0000
 7086OM     OM1 7086   5.053   0.812   0.945  0.0000  0.0000  0.0000
 7087OM     OM1 7087   2.727   4.035   9.443  0.0000  0.0000  0.0000
 7088OM     OM1 7088   2.519   3.911   9.505  0.0000  0.0000  0.0000
 7089OM     OM1 7089   2.618   4.079   0.078  0.0000  0.0000  0.0000
 7090OM     OM1 7090   2.572   4.650   8.907  0.0000  0.0000  0.0000
 7091OM     OM1 7091   2.687   5.069   9.091  0.0000  0.0000  0.0000
 7092OM     OM1 7092   2.745   4.819   9.014  0.0000  0.0000  0.0000
 7093OM     OM1 7093   2.813   4.629   8.837  0.0000  0.0000  0.0000
 7094OM     OM1 7094   2.361   1.348   8.358  0.0000  0.0000  0.0000
 7095OM     OM1 7095   3.893   5.211   0.716  0.0000  0.0000  0.0000
 7096OM     OM1 7096   3.901   4.970   0.821  0.0000  0.0000  0.0000
 7097OM     OM1 7097   4.082   5.149   0.884  0.0000  0.0000  0.0000
 7098OM     OM1 7098   1.338   5.274   8.435  0.0000  0.0000  0.0000
 7099OM     OM1 7099   6.469   9.490   8.400  0.0000  0.0000  0.0000
 7100OM     OM1 7100   6.383   9.445   8.647  0.0000  0.0000  0.0000
 7101OM     OM1 7101   5.342   4.361   8.953  0.0000  0.0000  0.0000
 7102OM     OM1 7102   5.149   4.529   8.965  0.0000  0.0000  0.0000
 7103OM     OM1 7103   4.710   1.986   9.182  0.0000  0.0000  0.0000
 7104OM     OM1 7104   4.963   2.024   9.176  0.0000  0.0000  0.0000
 7105OM     OM1 7105   4.925   5.982   8.922  0.0000  0.0000  0.0000
 7106OM     OM1 7106   4.762   5.875   8.744  0.0000  0.0000  0.0000
 7107OM     OM1 7107   4.744   6.127   8.809  0.0000  0.0000  0.0000
 7108OM     OM1 7108   8.807   1.156   8.706  0.0000  0.0000  0.0000
 7109OM     OM1 7109   8.588   1.139   8.573  0.0000  0.0000  0.0000
 7110OM     OM1 7110   8.647   0.959   8.747  0.0000  0.0000  0.0000
 7111OM     OM1 7111   8.583   1.209   8.830  0.0000  0.0000  0.0000
 7112OM     OM1 7112   7.171   3.043   1.149  0.0000  0.0000  0.0000
 7113OM     OM1 7113   6.988   3.073   1.333  0.0000  0.0000  0.0000
 7114OM     OM1 7114   7.074   2.837   1.263  0.0000  0.0000  0.0000
 7115OM     OM1 7115   1.968   7.249   9.564  0.0000  0.0000  0.0000
 7116OM     OM1 7116   1.971   7.359   9.326  0.0000  0.0000  0.0000
 7117OM     OM1 7117   2.194   7.287   9.449  0.0000  0.0000  0.0000
 7118OM     OM1 7118   1.474   8.204   0.039  0.0000  0.0000  0.0000
 7119OM     OM1 7119   1.505   8.283   0.289  0.0000  0.0000  0.0000
 7120OM     OM1 7120   1.613   8.418   0.106  0.0000  0.0000  0.0000
 7121OM     OM1 7121   7.228   9.403   0.314  0.0000  0.0000  0.0000
 7122OM     OM1 7122   7.049   9.542   0.176  0.0000  0.0000  0.0000
 7123OM     OM1 7123   7.299   9.513   0.089  0.0000  0.0000  0.0000
 7124OM     OM1 7124   1.015   9.561   0.905  0.0000  0.0000  0.0000
 7125OM     OM1 7125   1.248   0.076   0.908  0.0000  0.0000  0.0000
 7126OM     OM1 7126   0.786   9.549   1.031  0.0000  0.0000  0.0000
 7127OM     OM1 7127   1.400   7.551   1.067  0.0000  0.0000  0.0000
 7128OM     OM1 7128   1.529   7.544   0.841  0.0000  0.0000  0.0000
 7129OM     OM1 7129   1.335   7.716   0.861  0.0000  0.0000  0.0000
 7130OM     OM1 7130   1.560   7.743   0.995  0.0000  0.0000  0.0000
 7131OM     OM1 7131   4.909   7.323   8.804  0.0000  0.0000  0.0000
 7132OM     OM1 7132   4.852   7.124   8.651  0.0000  0.0000  0.0000
 7133OM     OM1 7133   8.472   8.110   0.888  0.0000  0.0000  0.0000
 7134OM     OM1 7134   8.273   8.247   0.957  0.0000  0.0000  0.0000
 7135OM     OM1 7135   2.370   8.671   8.739  0.0000  0.0000  0.0000
 7136OM     OM1 7136   2.173   8.588   8.590  0.0000  0.0000  0.0000
 7137OM     OM1 7137   2.227   8.462   8.809  0.0000  0.0000  0.0000
 7138OM     OM1 7138   3.938   6.572   8.821  0.0000  0.0000  0.0000
 7139OM     OM1 7139   3.711   6.470   8.882  0.0000  0.0000  0.0000
 7140OM     OM1 7140   3.737   6.646   8.692  0.0000  0.0000  0.0000
 7141OM     OM1 7141   6.785   0.543   8.292  0.0000  0.0000  0.0000
 7142OM     OM1 7142   6.637   0.322   8.305  0.0000  0.0000  0.0000
 7143OM     OM1 7143   1.167   6.589   0.932  0.0000  0.0000  0.0000
 7144OM     OM1 7144   1.023   6.983   0.880  0.0000  0.0000  0.0000
 7145OM     OM1 7145   0.908   6.532   0.959  0.0000  0.0000  0.0000
 7146OM     OM1 7146   3.804   6.280   8.722  0.0000  0.0000  0.0000
 7147OM     OM1 7147   3.847   6.049   8.607  0.0000  0.0000  0.0000
 7148OM     OM1 7148   4.030   6.245   8.582  0.0000  0.0000  0.0000
 7149OM     OM1 7149   5.133   7.690   0.626  0.0000  0.0000  0.0000
 7150OM     OM1 7150   5.220   7.648   0.865  0.0000  0.0000  0.0000
 7151OM     OM1 7151   5.318   7.850   0.722  0.0000  0.0000  0.0000
 7152OM     OM1 7152   6.065   2.719   0.486  0.0000  0.0000  0.0000
 7153OM     OM1 7153   6.985   0.637   1.187  0.0000  0.0000  0.0000
 7154OM     OM1 7154   7.152   0.826   1.270  0.0000  0.0000  0.0000
 7155OM     OM1 7155   2.720   5.345   0.231  0.0000  0.0000  0.0000
 7156OM     OM1 7156   2.895   5.529   0.192  0.0000  0.0000  0.0000
 7157OM     OM1 7157   2.995   5.296   0.226  0.0000  0.0000  0.0000
 7158OM     OM1 7158   7.578   1.412   8.660  0.0000  0.0000  0.0000
 7159OM     OM1 7159   7.701   1.290   8.458  0.0000  0.0000  0.0000
 7160OM     OM1 7160   7.444   1.242   8.521  0.0000  0.0000  0.0000
 7161OM     OM1 7161   7.649   1.165   8.678  0.0000  0.0000  0.0000
 7162OM     OM1 7162   1.829   6.534   0.618  0.0000  0.0000  0.0000
 7163OM     OM1 7163   1.897   6.769   0.554  0.0000  0.0000  0.0000
 7164OM     OM1 7164   2.719   8.796   0.661  0.0000  0.0000  0.0000
 7165OM     OM1 7165   2.949   8.918   0.618  0.0000  0.0000  0.0000
 7166OM     OM1 7166   2.744   9.057   0.685  0.0000  0.0000  0.0000
 7167OM     OM1 7167   7.119   0.634   0.426  0.0000  0.0000  0.0000
 7168OM     OM1 7168   7.394   4.490   1.089  0.0000  0.0000  0.0000
 7169OM     OM1 7169   7.446   4.234   1.096  0.0000  0.0000  0.0000
 7170OM     OM1 7170   7.589   4.403   1.228  0.0000  0.0000  0.0000
 7171OM     OM1 7171   7.279   6.966   8.420  0.0000  0.0000  0.0000
 7172OM     OM1 7172   4.333   6.138   9.060  0.0000  0.0000  0.0000
 7173OM     OM1 7173   4.271   5.884   9.060  0.0000  0.0000  0.0000
 7174OM     OM1 7174   4.087   6.068   9.065  0.0000  0.0000  0.0000
 7175OM     OM1 7175   7.006   5.060   9.167  0.0000  0.0000  0.0000
 7176OM     OM1 7176   7.082   5.009   8.917  0.0000  0.0000  0.0000
 7177OM     OM1 7177   6.904   4.861   9.048  0.0000  0.0000  0.0000
 7178OM     OM1 7178   7.830   4.561   0.360  0.0000  0.0000  0.0000
 7179OM     OM1 7179   7.960   4.457   0.172  0.0000  0.0000  0.0000
 7180OM     OM1 7180   3.737   2.647   8.283  0.0000  0.0000  0.0000
 7181OM     OM1 7181   5.407   8.527   1.043  0.0000  0.0000  0.0000
 7182OM     OM1 7182   5.409   8.267   1.061  0.0000  0.0000  0.0000
 7183OM     OM1 7183   0.506   2.276   9.493  0.0000  0.0000  0.0000
 7184OM     OM1 7184   2.371   9.358   1.120  0.0000  0.0000  0.0000
 7185OM     OM1 7185   2.591   9.454   1.034  0.0000  0.0000  0.0000
 7186OM     OM1 7186   5.388   8.032   9.004  0.0000  0.0000  0.0000
 7187OM     OM1 7187   5.210   7.963   8.806  0.0000  0.0000  0.0000
 7188OM     OM1 7188   5.430   7.828   8.861  0.0000  0.0000  0.0000
 7189OM     OM1 7189   5.440   8.074   8.761  0.0000  0.0000  0.0000
 7190OM     OM1 7190   8.394   3.494   9.073  0.0000  0.0000  0.0000
 7191OM     OM1 7191   8.223   3.294   8.988  0.0000  0.0000  0.0000
 7192OM     OM1 7192   8.137   3.497   9.108  0.0000  0.0000  0.0000
 7193OM     OM1 7193   8.243   3.536   8.874  0.0000  0.0000  0.0000
 7194OM     OM1 7194   3.737   5.949   1.084  0.0000  0.0000  0.0000
 7195OM     OM1 7195   3.546   6.107   1.029  0.0000  0.0000  0.0000
 7196OM     OM1 7196   3.547   6.559   9.266  0.0000  0.0000  0.0000
 7197OM     OM1 7197   3.745   6.568   9.421  0.0000  0.0000  0.0000
 7198OM     OM1 7198   4.296   6.974   8.339  0.0000  0.0000  0.0000
 7199OM     OM1 7199   5.539   1.305   8.611  0.0000  0.0000  0.0000
 7200OM     OM1 7200   5.342   1.383   8.450  0.0000  0.0000  0.0000
 7201OM     OM1 7201   3.029   7.799   9.154  0.0000  0.0000  0.0000
 7202OM     OM1 7202   2.932   7.950   9.349  0.0000  0.0000  0.0000
 7203OM     OM1 7203   6.270   8.830   0.759  0.0000  0.0000  0.0000
 7204OM     OM1 7204   6.093   8.825   0.962  0.0000  0.0000  0.0000
 7205OM     OM1 7205   2.413   1.227   0.602  0.0000  0.0000  0.0000
 7206OM     OM1 7206   2.380   1.318   0.354  0.0000  0.0000  0.0000
 7207OM     OM1 7207   5.866   4.714   9.221  0.0000  0.0000  0.0000
 7208OM     OM1 7208   5.966   4.753   8.988  0.0000  0.0000  0.0000
 7209OM     OM1 7209   2.680   6.902   8.371  0.0000  0.0000  0.0000
 7210OM     OM1 7210   7.180   9.603   9.485  0.0000  0.0000  0.0000
 7211OM     OM1 7211   7.442   9.559   9.472  0.0000  0.0000  0.0000
 7212OM     OM1 7212   7.258   9.366   9.482  0.0000  0.0000  0.0000
 7213OM     OM1 7213   1.584   3.819   9.480  0.0000  0.0000  0.0000
 7214OM     OM1 7214   5.952   3.840   0.038  0.0000  0.0000  0.0000
 7215OM     OM1 7215   6.225   3.836   0.113  0.0000  0.0000  0.0000
 7216OM     OM1 7216   6.054   3.883   9.419  0.0000  0.0000  0.0000
 7217OM     OM1 7217   5.638   2.952   1.281  0.0000  0.0000  0.0000
 7218OM     OM1 7218   6.072   5.784   8.467  0.0000  0.0000  0.0000
 7219OM     OM1 7219   5.861   5.656   8.420  0.0000  0.0000  0.0000
 7220OM     OM1 7220   5.841   5.910   8.492  0.0000  0.0000  0.0000
 7221OM     OM1 7221   5.899   5.737   8.669  0.0000  0.0000  0.0000
 7222OM     OM1 7222   1.183   0.242   1.097  0.0000  0.0000  0.0000
 7223OM     OM1 7223   1.176   0.407   1.289  0.0000  0.0000  0.0000
 7224OM     OM1 7224   2.484   6.030   8.624  0.0000  0.0000  0.0000
 7225OM     OM1 7225   2.666   5.857   8.693  0.0000  0.0000  0.0000
 7226OM     OM1 7226   2.920   5.837   8.638  0.0000  0.0000  0.0000
 7227OM     OM1 7227   1.015   1.664   0.255  0.0000  0.0000  0.0000
 7228OM     OM1 7228   1.356   8.074   0.786  0.0000  0.0000  0.0000
 7229OM     OM1 7229   1.127   7.985   0.920  0.0000  0.0000  0.0000
 7230OM     OM1 7230   1.111   8.144   0.734  0.0000  0.0000  0.0000
 7231OM     OM1 7231   1.201   7.887   0.703  0.0000  0.0000  0.0000
 7232OM     OM1 7232   7.597   2.608   8.542  0.0000  0.0000  0.0000
 7233OM     OM1 7233   7.596   2.594   8.807  0.0000  0.0000  0.0000
 7234OM     OM1 7234   7.379   2.631   8.667  0.0000  0.0000  0.0000
 7235OM     OM1 7235   2.898   1.325   9.428  0.0000  0.0000  0.0000
 7236OM     OM1 7236   3.030   1.136   9.525  0.0000  0.0000  0.0000
 7237OM     OM1 7237   3.057   1.321   0.296  0.0000  0.0000  0.0000
 7238OM     OM1 7238   7.398   2.399   0.759  0.0000  0.0000  0.0000
 7239OM     OM1 7239   7.371   2.648   0.699  0.0000  0.0000  0.0000
 7240OM     OM1 7240   0.764   1.779   9.183  0.0000  0.0000  0.0000
 7241OM     OM1 7241   0.570   1.756   9.341  0.0000  0.0000  0.0000
 7242OM     OM1 7242   0.334   1.807   9.442  0.0000  0.0000  0.0000
 7243OM     OM1 7243   7.065   2.119   8.882  0.0000  0.0000  0.0000
 7244OM     OM1 7244   6.851   2.025   8.775  0.0000  0.0000  0.0000
 7245OM     OM1 7245   4.701   9.112   0.975  0.0000  0.0000  0.0000
 7246OM     OM1 7246   4.694   8.888   0.858  0.0000  0.0000  0.0000
 7247OM     OM1 7247   3.102   4.304   8.607  0.0000  0.0000  0.0000
 7248OM     OM1 7248   2.868   4.354   8.519  0.0000  0.0000  0.0000
 7249OM     OM1 7249   2.991   4.537   8.657  0.0000  0.0000  0.0000
 7250OM     OM1 7250   3.080   4.478   8.415  0.0000  0.0000  0.0000
 7251OM     OM1 7251   1.975   1.174   8.757  0.0000  0.0000  0.0000
 7252OM     OM1 7252   1.845   1.111   8.963  0.0000  0.0000  0.0000
 7253OM     OM1 7253   8.328   3.743   8.725  0.0000  0.0000  0.0000
 7254OM     OM1 7254   1.052   0.844   0.941  0.0000  0.0000  0.0000
 7255OM     OM1 7255   9.593   9.360   8.595  0.0000  0.0000  0.0000
 7256OM     OM1 7256   9.440   9.488   8.753  0.0000  0.0000  0.0000
 7257OM     OM1 7257   6.425   2.067   1.284  0.0000  0.0000  0.0000
 7258OM     OM1 7258   2.216   0.110   8.920  0.0000  0.0000  0.0000
 7259OM     OM1 7259   2.263   0.096   9.179  0.0000  0.0000  0.0000
 7260OM     OM1 7260   9.513   4.097   8.845  0.0000  0.0000  0.0000
 7261OM     OM1 7261   9.464   3.977   9.062  0.0000  0.0000  0.0000
 7262OM     OM1 7262   4.951   5.388   8.424  0.0000  0.0000  0.0000
 7263OM     OM1 7263   4.821   5.182   8.337  0.0000  0.0000  0.0000
 7264OM     OM1 7264   5.070   5.150   8.399  0.0000  0.0000  0.0000
 7265OM     OM1 7265   7.423   5.530   0.420  0.0000  0.0000  0.0000
 7266OM     OM1 7266   7.393   5.389   0.631  0.0000  0.0000  0.0000
 7267OM     OM1 7267   2.299   4.260   8.553  0.0000  0.0000  0.0000
 7268OM     OM1 7268   0.038   8.923   1.315  0.0000  0.0000  0.0000
 7269OM     OM1 7269   6.637   2.571   0.571  0.0000  0.0000  0.0000
 7270OM     OM1 7270   6.504   2.462   0.382  0.0000  0.0000  0.0000
 7271OM     OM1 7271   7.999   5.383   9.148  0.0000  0.0000  0.0000
 7272OM     OM1 7272   8.099   5.192   9.001  0.0000  0.0000  0.0000
 7273OM     OM1 7273   8.140   5.181   9.249  0.0000  0.0000  0.0000
 7274OM     OM1 7274   8.247   5.386   9.113  0.0000  0.0000  0.0000
 7275OM     OM1 7275   9.012   1.303   0.143  0.0000  0.0000  0.0000
 7276OM     OM1 7276   9.239   1.216   0.073  0.0000  0.0000  0.0000
 7277OM     OM1 7277   8.108   0.881   0.739  0.0000  0.0000  0.0000
 7278OM     OM1 7278   7.941   0.843   1.176  0.0000  0.0000  0.0000
 7279OM     OM1 7279   8.049   0.762   0.959  0.0000  0.0000  0.0000
 7280OM     OM1 7280   7.789   0.802   0.967  0.0000  0.0000  0.0000
 7281OM     OM1 7281   1.124   9.031   9.139  0.0000  0.0000  0.0000
 7282OM     OM1 7282   1.180   8.921   9.371  0.0000  0.0000  0.0000
 7283OM     OM1 7283   1.059   9.401   9.467  0.0000  0.0000  0.0000
 7284OM     OM1 7284   0.123   9.038   1.099  0.0000  0.0000  0.0000
 7285OM     OM1 7285   0.287   8.970   1.295  0.0000  0.0000  0.0000
 7286OM     OM1 7286   0.106   9.169   1.329  0.0000  0.0000  0.0000
 7287OM     OM1 7287   1.321   0.634   1.321  0.0000  0.0000  0.0000
 7288OM     OM1 7288   1.188   0.829   1.426  0.0000  0.0000  0.0000
 7289OM     OM1 7289   4.506   0.020   8.706  0.0000  0.0000  0.0000
 7290OM     OM1 7290   4.395   9.415   8.820  0.0000  0.0000  0.0000
 7291OM     OM1 7291   4.440   9.495   8.491  0.0000  0.0000  0.0000
 7292OM     OM1 7292   8.927   3.678   9.395  0.0000  0.0000  0.0000
 7293OM     OM1 7293   8.703   3.784   9.375  0.0000  0.0000  0.0000
 7294OM     OM1 7294   8.846   3.862   9.582  0.0000  0.0000  0.0000
 7295OM     OM1 7295   5.472   0.406   0.325  0.0000  0.0000  0.0000
 7296OM     OM1 7296   5.544   0.620   0.459  0.0000  0.0000  0.0000
 7297OM     OM1 7297   5.291   0.566   0.425  0.0000  0.0000  0.0000
 7298OM     OM1 7298   4.334   7.356   9.571  0.0000  0.0000  0.0000
 7299OM     OM1 7299   4.142   7.444   0.118  0.0000  0.0000  0.0000
 7300OM     OM1 7300   4.222   7.206   0.166  0.0000  0.0000  0.0000
 7301OM     OM1 7301   5.292   1.587   8.292  0.0000  0.0000  0.0000
 7302OM     OM1 7302   5.151   1.770   8.170  0.0000  0.0000  0.0000
 7303OM     OM1 7303   0.512   2.096   8.925  0.0000  0.0000  0.0000
 7304OM     OM1 7304   0.570   1.851   9.002  0.0000  0.0000  0.0000
 7305OM     OM1 7305   0.345   1.948   9.076  0.0000  0.0000  0.0000
 7306OM     OM1 7306   0.633   4.579   9.238  0.0000  0.0000  0.0000
 7307OM     OM1 7307   0.616   4.695   8.996  0.0000  0.0000  0.0000
 7308OM     OM1 7308   0.804   4.523   9.039  0.0000  0.0000  0.0000
 7309OM     OM1 7309   5.428   2.367   8.326  0.0000  0.0000  0.0000
 7310OM     OM1 7310   5.292   2.588   8.340  0.0000  0.0000  0.0000
 7311OM     OM1 7311   5.553   2.583   8.255  0.0000  0.0000  0.0000
 7312OM     OM1 7312   5.490   2.561   8.499  0.0000  0.0000  0.0000
 7313OM     OM1 7313   5.560   7.951   0.729  0.0000  0.0000  0.0000
 7314OM     OM1 7314   5.469   7.853   0.512  0.0000  0.0000  0.0000
 7315OM     OM1 7315   6.102   7.643   0.691  0.0000  0.0000  0.0000
 7316OM     OM1 7316   6.329   7.764   0.763  0.0000  0.0000  0.0000
 7317OM     OM1 7317   3.178   9.061   0.969  0.0000  0.0000  0.0000
 7318OM     OM1 7318   3.299   8.924   0.776  0.0000  0.0000  0.0000
 7319OM     OM1 7319   0.596   4.369   0.788  0.0000  0.0000  0.0000
 7320OM     OM1 7320   0.404   4.188   0.785  0.0000  0.0000  0.0000
 7321OM     OM1 7321   5.803   1.529   8.957  0.0000  0.0000  0.0000
 7322OM     OM1 7322   5.581   1.434   9.022  0.0000  0.0000  0.0000
 7323OM     OM1 7323   0.405   6.981   0.746  0.0000  0.0000  0.0000
 7324OM     OM1 7324   0.253   7.042   0.539  0.0000  0.0000  0.0000
 7325OM     OM1 7325   0.535   6.806   0.604  0.0000  0.0000  0.0000
 7326OM     OM1 7326   7.742   4.306   9.229  0.0000  0.0000  0.0000
 7327OM     OM1 7327   7.590   4.638   9.123  0.0000  0.0000  0.0000
 7328OM     OM1 7328   7.753   4.564   9.298  0.0000  0.0000  0.0000
 7329OM     OM1 7329   1.039   9.413   0.120  0.0000  0.0000  0.0000
 7330OM     OM1 7330   5.471   1.902   0.059  0.0000  0.0000  0.0000
 7331OM     OM1 7331   4.126   1.206   8.846  0.0000  0.0000  0.0000
 7332OM     OM1 7332   3.895   1.217   8.973  0.0000  0.0000  0.0000
 7333OM     OM1 7333   3.913   1.065   8.762  0.0000  0.0000  0.0000
 7334OM     OM1 7334   6.996   7.629   8.788  0.0000  0.0000  0.0000
 7335OM     OM1 7335   7.160   7.489   8.655  0.0000  0.0000  0.0000
 7336OM     OM1 7336   7.116   7.750   8.584  0.0000  0.0000  0.0000
 7337OM     OM1 7337   7.259   7.685   8.784  0.0000  0.0000  0.0000
 7338OM     OM1 7338   3.105   2.329   9.171  0.0000  0.0000  0.0000
 7339OM     OM1 7339   3.294   2.303   8.984  0.0000  0.0000  0.0000
 7340OM     OM1 7340   3.076   2.174   8.957  0.0000  0.0000  0.0000
 7341OM     OM1 7341   4.948   3.147   8.352  0.0000  0.0000  0.0000
 7342OM     OM1 7342   4.760   3.319   8.308  0.0000  0.0000  0.0000
 7343OM     OM1 7343   4.768   3.576   8.334  0.0000  0.0000  0.0000
 7344OM     OM1 7344   4.818   3.423   8.540  0.0000  0.0000  0.0000
 7345OM     OM1 7345   8.286   6.844   0.825  0.0000  0.0000  0.0000
 7346OM     OM1 7346   8.146   6.725   0.653  0.0000  0.0000  0.0000
 7347OM     OM1 7347   8.405   6.741   0.623  0.0000  0.0000  0.0000
 7348OM     OM1 7348   0.213   9.255   1.002  0.0000  0.0000  0.0000
 7349OM     OM1 7349   0.092   9.096   0.829  0.0000  0.0000  0.0000
 7350OM     OM1 7350   0.315   9.024   0.925  0.0000  0.0000  0.0000
 7351OM     OM1 7351   4.610   1.668   9.236  0.0000  0.0000  0.0000
 7352OM     OM1 7352   4.663   1.429   9.262  0.0000  0.0000  0.0000
 7353OM     OM1 7353   4.515   1.498   9.052  0.0000  0.0000  0.0000
 7354OM     OM1 7354   2.788   7.931   0.230  0.0000  0.0000  0.0000
 7355OM     OM1 7355   2.974   7.974   0.411  0.0000  0.0000  0.0000
 7356OM     OM1 7356   2.724   8.064   0.438  0.0000  0.0000  0.0000
 7357OM     OM1 7357   1.590   7.321   9.443  0.0000  0.0000  0.0000
 7358OM     OM1 7358   1.213   7.187   9.546  0.0000  0.0000  0.0000
 7359OM     OM1 7359   1.368   7.240   9.338  0.0000  0.0000  0.0000
 7360OM     OM1 7360   4.233   8.062   0.254  0.0000  0.0000  0.0000
 7361OM     OM1 7361   4.453   8.047   0.410  0.0000  0.0000  0.0000
 7362OM     OM1 7362   4.220   7.958   0.488  0.0000  0.0000  0.0000
 7363OM     OM1 7363   1.514   8.660   1.367  0.0000  0.0000  0.0000
 7364OM     OM1 7364   1.318   8.676   1.204  0.0000  0.0000  0.0000
 7365OM     OM1 7365   1.452   8.884   1.236  0.0000  0.0000  0.0000
 7366OM     OM1 7366   0.392   5.437   0.405  0.0000  0.0000  0.0000
 7367OM     OM1 7367   5.253   2.515   9.093  0.0000  0.0000  0.0000
 7368OM     OM1 7368   5.244   2.869   8.806  0.0000  0.0000  0.0000
 7369OM     OM1 7369   0.137   9.116   8.390  0.0000  0.0000  0.0000
 7370OM     OM1 7370   2.670   3.106   9.541  0.0000  0.0000  0.0000
 7371OM     OM1 7371   2.364   3.344   9.485  0.0000  0.0000  0.0000
 7372OM     OM1 7372   2.468   2.970   0.043  0.0000  0.0000  0.0000
 7373OM     OM1 7373   0.614   9.209   0.436  0.0000  0.0000  0.0000
 7374OM     OM1 7374   0.810   9.465   0.772  0.0000  0.0000  0.0000
 7375OM     OM1 7375   8.882   5.877   8.524  0.0000  0.0000  0.0000
 7376OM     OM1 7376   9.083   5.981   8.389  0.0000  0.0000  0.0000
 7377OM     OM1 7377   0.879   8.292   0.409  0.0000  0.0000  0.0000
 7378OM     OM1 7378   0.952   8.313   0.157  0.0000  0.0000  0.0000
 7379OM     OM1 7379   0.975   8.082   0.284  0.0000  0.0000  0.0000
 7380OM     OM1 7380   0.739   8.176   0.225  0.0000  0.0000  0.0000
 7381OM     OM1 7381   6.770   5.312   0.515  0.0000  0.0000  0.0000
 7382OM     OM1 7382   6.587   5.300   0.338  0.0000  0.0000  0.0000
 7383OM     OM1 7383   6.310   8.121   0.795  0.0000  0.0000  0.0000
 7384OM     OM1 7384   2.225   3.142   9.377  0.0000  0.0000  0.0000
 7385OM     OM1 7385   2.268   2.898   9.277  0.0000  0.0000  0.0000
 7386OM     OM1 7386   2.149   3.082   9.138  0.0000  0.0000  0.0000
 7387OM     OM1 7387   2.031   2.963   9.340  0.0000  0.0000  0.0000
 7388OM     OM1 7388   1.463   8.591   9.318  0.0000  0.0000  0.0000
 7389OM     OM1 7389   1.673   8.735   9.225  0.0000  0.0000  0.0000
 7390OM     OM1 7390   8.301   7.015   0.321  0.0000  0.0000  0.0000
 7391OM     OM1 7391   8.176   7.238   0.256  0.0000  0.0000  0.0000
 7392OM     OM1 7392   0.980   3.304   8.772  0.0000  0.0000  0.0000
 7393OM     OM1 7393   1.072   3.071   8.826  0.0000  0.0000  0.0000
 7394OM     OM1 7394   0.849   5.527   8.843  0.0000  0.0000  0.0000
 7395OM     OM1 7395   0.954   5.320   8.953  0.0000  0.0000  0.0000
 7396OM     OM1 7396   1.038   5.399   8.713  0.0000  0.0000  0.0000
 7397OM     OM1 7397   5.617   2.169   0.463  0.0000  0.0000  0.0000
 7398OM     OM1 7398   5.602   1.921   0.534  0.0000  0.0000  0.0000
 7399OM     OM1 7399   9.085   0.494   8.350  0.0000  0.0000  0.0000
 7400OM     OM1 7400   8.877   0.547   8.504  0.0000  0.0000  0.0000
 7401OM     OM1 7401   7.456   3.804   9.227  0.0000  0.0000  0.0000
 7402OM     OM1 7402   7.541   3.558   9.302  0.0000  0.0000  0.0000
 7403OM     OM1 7403   7.578   3.753   9.455  0.0000  0.0000  0.0000
 7404OM     OM1 7404   7.701   3.732   9.210  0.0000  0.0000  0.0000
 7405OM     OM1 7405   5.321   8.128   9.388  0.0000  0.0000  0.0000
 7406OM     OM1 7406   5.542   8.267   9.404  0.0000  0.0000  0.0000
 7407OM     OM1 7407   5.309   8.372   9.357  0.0000  0.0000  0.0000
 7408OM     OM1 7408   2.839   0.478   1.064  0.0000  0.0000  0.0000
 7409OM     OM1 7409   2.984   0.141   0.813  0.0000  0.0000  0.0000
 7410OM     OM1 7410   2.861   0.522   0.802  0.0000  0.0000  0.0000
 7411OM     OM1 7411   0.993   0.403   9.469  0.0000  0.0000  0.0000
 7412OM     OM1 7412   1.238   0.467   9.381  0.0000  0.0000  0.0000
 7413OM     OM1 7413   1.135   0.593   9.576  0.0000  0.0000  0.0000
 7414OM     OM1 7414   8.130   3.304   0.664  0.0000  0.0000  0.0000
 7415OM     OM1 7415   7.080   8.138   9.060  0.0000  0.0000  0.0000
 7416OM     OM1 7416   6.836   8.195   8.990  0.0000  0.0000  0.0000
 7417OM     OM1 7417   8.462   3.643   8.526  0.0000  0.0000  0.0000
 7418OM     OM1 7418   3.537   6.662   0.510  0.0000  0.0000  0.0000
 7419OM     OM1 7419   3.749   6.792   0.515  0.0000  0.0000  0.0000
 7420OM     OM1 7420   3.537   6.920   0.445  0.0000  0.0000  0.0000
 7421OM     OM1 7421   7.287   5.556   9.371  0.0000  0.0000  0.0000
 7422OM     OM1 7422   7.412   5.542   9.603  0.0000  0.0000  0.0000
 7423OM     OM1 7423   3.064   5.724   9.191  0.0000  0.0000  0.0000
 7424OM     OM1 7424   3.009   9.535   0.683  0.0000  0.0000  0.0000
 7425OM     OM1 7425   3.226   0.026   0.791  0.0000  0.0000  0.0000
 7426OM     OM1 7426   3.112   0.157   0.592  0.0000  0.0000  0.0000
 7427OM     OM1 7427   1.307   6.752   8.382  0.0000  0.0000  0.0000
 7428OM     OM1 7428   1.112   6.880   8.499  0.0000  0.0000  0.0000
 7429OM     OM1 7429   1.140   6.619   8.521  0.0000  0.0000  0.0000
 7430OM     OM1 7430   2.806   4.700   8.589  0.0000  0.0000  0.0000
 7431OM     OM1 7431   3.176   4.941   8.667  0.0000  0.0000  0.0000
 7432OM     OM1 7432   2.995   4.784   8.755  0.0000  0.0000  0.0000
 7433OM     OM1 7433   5.724   7.457   1.262  0.0000  0.0000  0.0000
 7434OM     OM1 7434   8.578   6.222   0.511  0.0000  0.0000  0.0000
 7435OM     OM1 7435   8.569   6.479   0.582  0.0000  0.0000  0.0000
 7436OM     OM1 7436   8.554   6.289   0.752  0.0000  0.0000  0.0000
 7437OM     OM1 7437   5.514   4.690   9.580  0.0000  0.0000  0.0000
 7438OM     OM1 7438   5.611   4.926   9.548  0.0000  0.0000  0.0000
 7439OM     OM1 7439   5.474   4.859   0.162  0.0000  0.0000  0.0000
 7440OM     OM1 7440   5.040   2.668   8.401  0.0000  0.0000  0.0000
 7441OM     OM1 7441   5.090   2.424   8.338  0.0000  0.0000  0.0000
 7442OM     OM1 7442   5.225   8.698   1.099  0.0000  0.0000  0.0000
 7443OM     OM1 7443   0.603   6.248   9.322  0.0000  0.0000  0.0000
 7444OM     OM1 7444   0.366   6.236   9.432  0.0000  0.0000  0.0000
 7445OM     OM1 7445   0.567   6.359   9.559  0.0000  0.0000  0.0000
 7446OM     OM1 7446   2.202   3.598   8.680  0.0000  0.0000  0.0000
 7447OM     OM1 7447   3.039   2.636   8.765  0.0000  0.0000  0.0000
 7448OM     OM1 7448   3.244   2.477   8.794  0.0000  0.0000  0.0000
 7449OM     OM1 7449   3.299   8.071   8.304  0.0000  0.0000  0.0000
 7450OM     OM1 7450   3.241   8.083   8.553  0.0000  0.0000  0.0000
 7451OM     OM1 7451   8.903   9.376   9.362  0.0000  0.0000  0.0000
 7452OM     OM1 7452   8.782   9.499   8.946  0.0000  0.0000  0.0000
 7453OM     OM1 7453   8.832   9.299   9.088  0.0000  0.0000  0.0000
 7454OM     OM1 7454   2.952   2.168   0.800  0.0000  0.0000  0.0000
 7455OM     OM1 7455   3.114   1.983   0.707  0.0000  0.0000  0.0000
 7456OM     OM1 7456   3.076   2.026   0.970  0.0000  0.0000  0.0000
 7457OM     OM1 7457   5.078   4.011   1.247  0.0000  0.0000  0.0000
 7458OM     OM1 7458   4.990   4.048   1.008  0.0000  0.0000  0.0000
 7459OM     OM1 7459   0.236   1.158   8.638  0.0000  0.0000  0.0000
 7460OM     OM1 7460   0.104   1.382   8.604  0.0000  0.0000  0.0000
 7461OM     OM1 7461   9.592   1.195   8.720  0.0000  0.0000  0.0000
 7462OM     OM1 7462   5.598   0.841   0.592  0.0000  0.0000  0.0000
 7463OM     OM1 7463   5.570   1.021   0.785  0.0000  0.0000  0.0000
 7464OM     OM1 7464   6.634   2.175   8.752  0.0000  0.0000  0.0000
 7465OM     OM1 7465   6.588   2.424   8.706  0.0000  0.0000  0.0000
 7466OM     OM1 7466   6.381   2.276   8.760  0.0000  0.0000  0.0000
 7467OM     OM1 7467   0.417   0.355   9.440  0.0000  0.0000  0.0000
 7468OM     OM1 7468   0.516   0.295   9.214  0.0000  0.0000  0.0000
 7469OM     OM1 7469   6.019   8.831   0.723  0.0000  0.0000  0.0000
 7470OM     OM1 7470   7.866   1.449   8.327  0.0000  0.0000  0.0000
 7471OM     OM1 7471   1.577   1.039   9.094  0.0000  0.0000  0.0000
 7472OM     OM1 7472   2.169   6.820   1.274  0.0000  0.0000  0.0000
 7473OM     OM1 7473   7.763   5.319   9.093  0.0000  0.0000  0.0000
 7474OM     OM1 7474   0.980   0.501   8.569  0.0000  0.0000  0.0000
 7475OM     OM1 7475   1.084   0.640   8.753  0.0000  0.0000  0.0000
 7476OM     OM1 7476   1.087   0.747   8.531  0.0000  0.0000  0.0000
 7477OM     OM1 7477   0.851   0.725   8.626  0.0000  0.0000  0.0000
 7478OM     OM1 7478   8.384   8.032   0.402  0.0000  0.0000  0.0000
 7479OM     OM1 7479   0.586   4.196   0.127  0.0000  0.0000  0.0000
 7480OM     OM1 7480   0.547   3.935   0.063  0.0000  0.0000  0.0000
 7481OM     OM1 7481   1.163   5.926   0.662  0.0000  0.0000  0.0000
 7482OM     OM1 7482   1.020   5.760   0.792  0.0000  0.0000  0.0000
 7483OM     OM1 7483   0.898   5.870   0.600  0.0000  0.0000  0.0000
 7484OM     OM1 7484   4.359   4.525   0.437  0.0000  0.0000  0.0000
 7485OM     OM1 7485   3.012   2.039   8.449  0.0000  0.0000  0.0000
 7486OM     OM1 7486   2.940   1.790   8.490  0.0000  0.0000  0.0000
 7487OM     OM1 7487   2.139   6.620   8.853  0.0000  0.0000  0.0000
 7488OM     OM1 7488   2.060   6.589   8.615  0.0000  0.0000  0.0000
 7489OM     OM1 7489   2.184   6.392   8.745  0.0000  0.0000  0.0000
 7490OM     OM1 7490   9.257   0.686   8.351  0.0000  0.0000  0.0000
 7491OM     OM1 7491   9.258   0.625   8.606  0.0000  0.0000  0.0000
 7492OM     OM1 7492   9.218   0.874   8.529  0.0000  0.0000  0.0000
 7493OM     OM1 7493   3.284   8.786   1.276  0.0000  0.0000  0.0000
 7494OM     OM1 7494   3.261   8.682   1.032  0.0000  0.0000  0.0000
 7495OM     OM1 7495   1.375   6.502   0.781  0.0000  0.0000  0.0000
 7496OM     OM1 7496   1.131   6.401   0.779  0.0000  0.0000  0.0000
 7497OM     OM1 7497   6.845   4.859   0.988  0.0000  0.0000  0.0000
 7498OM     OM1 7498   3.171   9.605   9.595  0.0000  0.0000  0.0000
 7499OM     OM1 7499   3.195   0.208   0.161  0.0000  0.0000  0.0000
 7500OM     OM1 7500   3.392   0.142   0.004  0.0000  0.0000  0.0000
 7501OM     OM1 7501   3.167   0.242   9.510  0.0000  0.0000  0.0000
 7502OM     OM1 7502   5.951   2.570   9.315  0.0000  0.0000  0.0000
 7503OM     OM1 7503   6.196   2.678   9.314  0.0000  0.0000  0.0000
 7504OM     OM1 7504   5.991   2.820   9.300  0.0000  0.0000  0.0000
 7505OM     OM1 7505   9.564   7.524   8.821  0.0000  0.0000  0.0000
 7506OM     OM1 7506   0.070   7.749   8.828  0.0000  0.0000  0.0000
 7507OM     OM1 7507   6.016   7.379   8.816  0.0000  0.0000  0.0000
 7508OM     OM1 7508   6.229   7.442   8.689  0.0000  0.0000  0.0000
 7509OM     OM1 7509   6.307   7.314   8.473  0.0000  0.0000  0.0000
 7510OM     OM1 7510   4.153   7.857   1.436  0.0000  0.0000  0.0000
 7511OM     OM1 7511   6.424   3.219   0.661  0.0000  0.0000  0.0000
 7512OM     OM1 7512   6.277   2.993   0.723  0.0000  0.0000  0.0000
 7513OM     OM1 7513   8.502   5.017   0.727  0.0000  0.0000  0.0000
 7514OM     OM1 7514   8.313   4.901   0.588  0.0000  0.0000  0.0000
 7515OM     OM1 7515   8.338   4.918   1.056  0.0000  0.0000  0.0000
 7516OM     OM1 7516   8.365   6.137   0.808  0.0000  0.0000  0.0000
 7517OM     OM1 7517   8.567   6.160   0.982  0.0000  0.0000  0.0000
 7518OM     OM1 7518   3.122   9.393   0.132  0.0000  0.0000  0.0000
 7519OM     OM1 7519   3.164   9.292   0.382  0.0000  0.0000  0.0000
 7520OM     OM1 7520   4.584   6.497   9.356  0.0000  0.0000  0.0000
 7521OM     OM1 7521   4.444   6.323   9.217  0.0000  0.0000  0.0000
 7522OM     OM1 7522   4.207   6.359   9.098  0.0000  0.0000  0.0000
 7523OM     OM1 7523   7.189   0.646   8.799  0.0000  0.0000  0.0000
 7524OM     OM1 7524   6.970   0.723   8.694  0.0000  0.0000  0.0000
 7525OM     OM1 7525   7.154   0.600   8.543  0.0000  0.0000  0.0000
 7526OM     OM1 7526   6.048   6.163   9.517  0.0000  0.0000  0.0000
 7527OM     OM1 7527   6.120   5.917   9.584  0.0000  0.0000  0.0000
 7528OM     OM1 7528   6.628   8.126   8.369  0.0000  0.0000  0.0000
 7529OM     OM1 7529   6.715   8.374   8.385  0.0000  0.0000  0.0000
 7530OM     OM1 7530   8.664   5.229   9.465  0.0000  0.0000  0.0000
 7531OM     OM1 7531   8.475   5.424   9.474  0.0000  0.0000  0.0000
 7532OM     OM1 7532   8.612   5.349   0.076  0.0000  0.0000  0.0000
 7533OM     OM1 7533   5.788   8.460   0.960  0.0000  0.0000  0.0000
 7534OM     OM1 7534   5.934   8.657   1.074  0.0000  0.0000  0.0000
 7535OM     OM1 7535   0.016   2.733   0.479  0.0000  0.0000  0.0000
 7536OM     OM1 7536   3.205   8.246   9.285  0.0000  0.0000  0.0000
 7537OM     OM1 7537   3.462   8.228   9.264  0.0000  0.0000  0.0000
 7538OM     OM1 7538   8.360   4.891   0.060  0.0000  0.0000  0.0000
 7539OM     OM1 7539   6.973   4.623   0.916  0.0000  0.0000  0.0000
 7540OM     OM1 7540   6.889   4.763   0.737  0.0000  0.0000  0.0000
 7541OM     OM1 7541   5.692   3.325   9.408  0.0000  0.0000  0.0000
 7542OM     OM1 7542   5.497   3.204   9.521  0.0000  0.0000  0.0000
 7543OM     OM1 7543   5.513   3.203   9.261  0.0000  0.0000  0.0000
 7544OM     OM1 7544   7.178   9.359   9.055  0.0000  0.0000  0.0000
 7545OM     OM1 7545   2.548   2.988   0.914  0.0000  0.0000  0.0000
 7546OM     OM1 7546   2.793   3.061   0.903  0.0000  0.0000  0.0000
 7547OM     OM1 7547   9.389   3.614   8.646  0.0000  0.0000  0.0000
 7548OM     OM1 7548   3.777   6.292   0.442  0.0000  0.0000  0.0000
 7549OM     OM1 7549   3.832   6.537   0.528  0.0000  0.0000  0.0000
 7550OM     OM1 7550   3.937   6.333   0.646  0.0000  0.0000  0.0000
 7551OM     OM1 7551   8.300   5.141   8.317  0.0000  0.0000  0.0000
 7552OM     OM1 7552   8.348   5.060   8.551  0.0000  0.0000  0.0000
 7553OM     OM1 7553   1.444   6.525   9.412  0.0000  0.0000  0.0000
 7554OM     OM1 7554   1.418   6.757   9.522  0.0000  0.0000  0.0000
 7555OM     OM1 7555   6.396   8.693   8.929  0.0000  0.0000  0.0000
 7556OM     OM1 7556   0.690   5.843   0.746  0.0000  0.0000  0.0000
 7557OM     OM1 7557   0.794   5.633   0.624  0.0000  0.0000  0.0000
 7558OM     OM1 7558   0.658   5.802   0.489  0.0000  0.0000  0.0000
 7559OM     OM1 7559   5.908   3.835   8.338  0.0000  0.0000  0.0000
 7560OM     OM1 7560   1.027   4.898   0.545  0.0000  0.0000  0.0000
 7561OM     OM1 7561   0.959   5.148   0.464  0.0000  0.0000  0.0000
 7562OM     OM1 7562   0.910   4.940   0.323  0.0000  0.0000  0.0000
 7563OM     OM1 7563   1.159   5.016   0.358  0.0000  0.0000  0.0000
 7564OM     OM1 7564   9.514   7.641   0.241  0.0000  0.0000  0.0000
 7565OM     OM1 7565   0.058   7.846   0.200  0.0000  0.0000  0.0000
 7566OM     OM1 7566   7.657   3.777   0.098  0.0000  0.0000  0.0000
 7567OM     OM1 7567   1.660   7.370   0.982  0.0000  0.0000  0.0000
 7568OM     OM1 7568   1.545   7.250   1.183  0.0000  0.0000  0.0000
 7569OM     OM1 7569   1.709   7.380   0.725  0.0000  0.0000  0.0000
 7570OM     OM1 7570   6.341   9.402   9.321  0.0000  0.0000  0.0000
 7571OM     OM1 7571   6.087   9.394   9.389  0.0000  0.0000  0.0000
 7572OM     OM1 7572   5.985   9.430   9.156  0.0000  0.0000  0.0000
 7573OM     OM1 7573   1.534   4.714   0.834  0.0000  0.0000  0.0000
 7574OM     OM1 7574   1.535   4.753   0.581  0.0000  0.0000  0.0000
 7575OM     OM1 7575   1.762   4.696   0.685  0.0000  0.0000  0.0000
 7576OM     OM1 7576   8.888   1.556   9.095  0.0000  0.0000  0.0000
 7577OM     OM1 7577   8.754   1.358   9.194  0.0000  0.0000  0.0000
 7578OM     OM1 7578   4.398   3.092   0.537  0.0000  0.0000  0.0000
 7579OM     OM1 7579   1.936   9.280   8.537  0.0000  0.0000  0.0000
 7580OM     OM1 7580   1.816   9.117   8.381  0.0000  0.0000  0.0000
 7581OM     OM1 7581   1.990   9.019   8.546  0.0000  0.0000  0.0000
 7582OM     OM1 7582   2.627   8.725   8.715  0.0000  0.0000  0.0000
 7583OM     OM1 7583   2.528   1.471   9.232  0.0000  0.0000  0.0000
 7584OM     OM1 7584   0.414   5.840   0.566  0.0000  0.0000  0.0000
 7585OM     OM1 7585   0.173   5.919   0.566  0.0000  0.0000  0.0000
 7586OM     OM1 7586   5.532   8.256   8.601  0.0000  0.0000  0.0000
 7587OM     OM1 7587   5.413   8.329   8.834  0.0000  0.0000  0.0000
 7588OM     OM1 7588   4.762   1.673   9.461  0.0000  0.0000  0.0000
 7589OM     OM1 7589   4.507   1.641   9.474  0.0000  0.0000  0.0000
 7590OM     OM1 7590   4.600   1.870   9.388  0.0000  0.0000  0.0000
 7591OM     OM1 7591   8.114   5.133   9.493  0.0000  0.0000  0.0000
 7592OM     OM1 7592   8.229   5.373   9.547  0.0000  0.0000  0.0000
 7593OM     OM1 7593   8.342   5.147   9.601  0.0000  0.0000  0.0000
 7594OM     OM1 7594   7.789   7.269   8.677  0.0000  0.0000  0.0000
 7595OM     OM1 7595   7.624   7.199   8.867  0.0000  0.0000  0.0000
 7596OM     OM1 7596   7.713   7.030   8.665  0.0000  0.0000  0.0000
 7597OM     OM1 7597   5.207   6.696   8.454  0.0000  0.0000  0.0000
 7598OM     OM1 7598   4.946   6.599   8.408  0.0000  0.0000  0.0000
 7599OM     OM1 7599   2.540   2.974   0.651  0.0000  0.0000  0.0000
 7600OM     OM1 7600   2.710   2.987   0.445  0.0000  0.0000  0.0000
 7601OM     OM1 7601   7.396   6.687   0.528  0.0000  0.0000  0.0000
 7602OM     OM1 7602   7.425   6.919   0.400  0.0000  0.0000  0.0000
 7603OM     OM1 7603   4.098   3.192   8.877  0.0000  0.0000  0.0000
 7604OM     OM1 7604   4.297   3.515   8.731  0.0000  0.0000  0.0000
 7605OM     OM1 7605   4.289   3.252   8.703  0.0000  0.0000  0.0000
 7606OM     OM1 7606   4.092   3.388   8.641  0.0000  0.0000  0.0000
 7607OM     OM1 7607   9.243   6.870   9.078  0.0000  0.0000  0.0000
 7608OM     OM1 7608   3.008   0.334   8.958  0.0000  0.0000  0.0000
 7609OM     OM1 7609   3.247   0.422   8.932  0.0000  0.0000  0.0000
 7610OM     OM1 7610   7.315   6.783   0.741  0.0000  0.0000  0.0000
 7611OM     OM1 7611   1.540   4.359   1.106  0.0000  0.0000  0.0000
 7612OM     OM1 7612   3.081   3.486   0.773  0.0000  0.0000  0.0000
 7613OM     OM1 7613   3.102   3.360   1.024  0.0000  0.0000  0.0000
 7614OM     OM1 7614   3.330   3.323   1.129  0.0000  0.0000  0.0000
 7615OM     OM1 7615   3.594   7.083   8.804  0.0000  0.0000  0.0000
 7616OM     OM1 7616   3.460   7.306   8.847  0.0000  0.0000  0.0000
 7617OM     OM1 7617   3.347   7.062   8.863  0.0000  0.0000  0.0000
 7618OM     OM1 7618   3.510   3.233   8.686  0.0000  0.0000  0.0000
 7619OM     OM1 7619   3.382   3.160   8.893  0.0000  0.0000  0.0000
 7620OM     OM1 7620   3.358   3.408   8.815  0.0000  0.0000  0.0000
 7621OM     OM1 7621   7.801   0.258   0.560  0.0000  0.0000  0.0000
 7622OM     OM1 7622   7.648   0.278   0.759  0.0000  0.0000  0.0000
 7623OM     OM1 7623   7.772   0.499   0.653  0.0000  0.0000  0.0000
 7624OM     OM1 7624   2.656   0.961   8.195  0.0000  0.0000  0.0000
 7625OM     OM1 7625   2.876   0.839   8.279  0.0000  0.0000  0.0000
 7626OM     OM1 7626   2.788   1.058   8.395  0.0000  0.0000  0.0000
 7627OM     OM1 7627   2.933   6.888   8.298  0.0000  0.0000  0.0000
 7628OM     OM1 7628   2.818   6.677   8.383  0.0000  0.0000  0.0000
 7629OM     OM1 7629   4.818   2.379   9.164  0.0000  0.0000  0.0000
 7630OM     OM1 7630   4.776   2.612   9.056  0.0000  0.0000  0.0000
 7631OM     OM1 7631   4.787   2.418   8.891  0.0000  0.0000  0.0000
 7632OM     OM1 7632   2.701   4.302   8.814  0.0000  0.0000  0.0000
 7633OM     OM1 7633   2.461   4.204   8.744  0.0000  0.0000  0.0000
 7634OM     OM1 7634   2.513   4.462   8.740  0.0000  0.0000  0.0000
 7635OM     OM1 7635   2.625   4.291   8.570  0.0000  0.0000  0.0000
 7636OM     OM1 7636   6.244   6.618   1.253  0.0000  0.0000  0.0000
 7637OM     OM1 7637   7.482   7.284   1.099  0.0000  0.0000  0.0000
 7638OM     OM1 7638   7.683   7.143   1.169  0.0000  0.0000  0.0000
 7639OM     OM1 7639   7.721   7.406   1.103  0.0000  0.0000  0.0000
 7640OM     OM1 7640   5.464   1.972   0.742  0.0000  0.0000  0.0000
 7641OM     OM1 7641   5.719   1.926   0.769  0.0000  0.0000  0.0000
 7642OM     OM1 7642   2.325   0.941   9.493  0.0000  0.0000  0.0000
 7643OM     OM1 7643   2.128   0.797   9.380  0.0000  0.0000  0.0000
 7644OM     OM1 7644   7.762   5.145   8.672  0.0000  0.0000  0.0000
 7645OM     OM1 7645   7.802   4.913   8.781  0.0000  0.0000  0.0000
 7646OM     OM1 7646   7.627   4.744   8.701  0.0000  0.0000  0.0000
 7647OM     OM1 7647   8.037   3.525   9.572  0.0000  0.0000  0.0000
 7648OM     OM1 7648   8.250   3.672   9.567  0.0000  0.0000  0.0000
 7649OM     OM1 7649   5.567   2.768   0.374  0.0000  0.0000  0.0000
 7650OM     OM1 7650   5.557   2.918   0.593  0.0000  0.0000  0.0000
 7651OM     OM1 7651   7.971   2.015   0.080  0.0000  0.0000  0.0000
 7652OM     OM1 7652   7.995   2.144   9.461  0.0000  0.0000  0.0000
 7653OM     OM1 7653   7.968   2.280   0.075  0.0000  0.0000  0.0000
 7654OM     OM1 7654   6.941   3.318   0.535  0.0000  0.0000  0.0000
 7655OM     OM1 7655   0.706   4.155   9.173  0.0000  0.0000  0.0000
 7656OM     OM1 7656   0.362   3.960   8.888  0.0000  0.0000  0.0000
 7657OM     OM1 7657   1.318   1.260   8.476  0.0000  0.0000  0.0000
 7658OM     OM1 7658   1.240   0.913   8.675  0.0000  0.0000  0.0000
 7659OM     OM1 7659   8.303   0.812   8.761  0.0000  0.0000  0.0000
 7660OM     OM1 7660   8.061   0.904   8.815  0.0000  0.0000  0.0000
 7661OM     OM1 7661   0.887   7.673   8.311  0.0000  0.0000  0.0000
 7662OM     OM1 7662   0.637   7.609   8.370  0.0000  0.0000  0.0000
 7663OM     OM1 7663   1.122   7.783   8.328  0.0000  0.0000  0.0000
 7664OM     OM1 7664   8.811   1.045   1.266  0.0000  0.0000  0.0000
 7665OM     OM1 7665   1.779   7.787   8.481  0.0000  0.0000  0.0000
 7666OM     OM1 7666   1.843   7.636   8.290  0.0000  0.0000  0.0000
 7667OM     OM1 7667   5.166   1.727   8.756  0.0000  0.0000  0.0000
 7668OM     OM1 7668   0.471   1.094   8.750  0.0000  0.0000  0.0000
 7669OM     OM1 7669   0.260   0.844   8.795  0.0000  0.0000  0.0000
 7670OM     OM1 7670   3.766   5.430   0.747  0.0000  0.0000  0.0000
 7671OM     OM1 7671   3.329   5.502   0.783  0.0000  0.0000  0.0000
 7672OM     OM1 7672   3.461   5.299   0.717  0.0000  0.0000  0.0000
 7673OM     OM1 7673   3.961   3.595   8.745  0.0000  0.0000  0.0000
 7674OM     OM1 7674   0.076   2.378   9.313  0.0000  0.0000  0.0000
 7675OM     OM1 7675   9.350   5.334   9.246  0.0000  0.0000  0.0000
 7676OM     OM1 7676   9.338   5.574   9.331  0.0000  0.0000  0.0000
 7677OM     OM1 7677   9.415   5.527   9.086  0.0000  0.0000  0.0000
 7678OM     OM1 7678   3.018   6.955   8.842  0.0000  0.0000  0.0000
 7679OM     OM1 7679   3.073   6.866   8.596  0.0000  0.0000  0.0000
 7680OM     OM1 7680   2.959   7.092   8.616  0.0000  0.0000  0.0000
 7681OM     OM1 7681   3.202   6.502   0.796  0.0000  0.0000  0.0000
 7682OM     OM1 7682   3.123   6.682   0.615  0.0000  0.0000  0.0000
 7683OM     OM1 7683   2.175   9.562   0.074  0.0000  0.0000  0.0000
 7684OM     OM1 7684   2.423   9.586   9.592  0.0000  0.0000  0.0000
 7685OM     OM1 7685   2.229   0.054   9.438  0.0000  0.0000  0.0000
 7686OM     OM1 7686   7.165   8.775   8.309  0.0000  0.0000  0.0000
 7687OM     OM1 7687   7.118   9.487   8.388  0.0000  0.0000  0.0000
 7688OM     OM1 7688   7.285   0.047   8.491  0.0000  0.0000  0.0000
 7689OM     OM1 7689   6.386   2.986   0.418  0.0000  0.0000  0.0000
 7690OM     OM1 7690   6.647   2.928   0.435  0.0000  0.0000  0.0000
 7691OM     OM1 7691   2.520   4.774   0.632  0.0000  0.0000  0.0000
 7692OM     OM1 7692   2.742   4.766   0.764  0.0000  0.0000  0.0000
 7693OM     OM1 7693   6.673   8.040   9.120  0.0000  0.0000  0.0000
 7694OM     OM1 7694   6.359   8.230   9.154  0.0000  0.0000  0.0000
 7695OM     OM1 7695   6.607   8.289   9.107  0.0000  0.0000  0.0000
 7696OM     OM1 7696   6.497   8.399   9.317  0.0000  0.0000  0.0000
 7697OM     OM1 7697   8.072   6.544   9.114  0.0000  0.0000  0.0000
 7698OM     OM1 7698   7.862   6.451   9.234  0.0000  0.0000  0.0000
 7699OM     OM1 7699   8.095   6.805   9.182  0.0000  0.0000  0.0000
 7700OM     OM1 7700   7.903   3.174   0.243  0.0000  0.0000  0.0000
 7701OM     OM1 7701   8.081   2.989   0.155  0.0000  0.0000  0.0000
 7702OM     OM1 7702   0.816   4.240   0.239  0.0000  0.0000  0.0000
 7703OM     OM1 7703   0.619   4.393   0.304  0.0000  0.0000  0.0000
 7704OM     OM1 7704   5.154   3.776   0.316  0.0000  0.0000  0.0000
 7705OM     OM1 7705   4.923   3.797   0.440  0.0000  0.0000  0.0000
 7706OM     OM1 7706   9.405   0.668   8.821  0.0000  0.0000  0.0000
 7707OM     OM1 7707   9.326   0.425   8.757  0.0000  0.0000  0.0000
 7708OM     OM1 7708   6.248   8.347   1.255  0.0000  0.0000  0.0000
 7709OM     OM1 7709   6.307   8.187   1.043  0.0000  0.0000  0.0000
 7710OM     OM1 7710   6.068   8.231   1.109  0.0000  0.0000  0.0000
 7711OM     OM1 7711   5.385   7.886   8.368  0.0000  0.0000  0.0000
 7712OM     OM1 7712   5.226   8.096   8.384  0.0000  0.0000  0.0000
 7713OM     OM1 7713   0.286   3.270   0.893  0.0000  0.0000  0.0000
 7714OM     OM1 7714   0.369   3.341   1.134  0.0000  0.0000  0.0000
 7715OM     OM1 7715   6.298   3.640   0.540  0.0000  0.0000  0.0000
 7716OM     OM1 7716   6.297   3.877   0.443  0.0000  0.0000  0.0000
 7717OM     OM1 7717   6.252   3.846   0.696  0.0000  0.0000  0.0000
 7718OM     OM1 7718   3.894   3.942   9.200  0.0000  0.0000  0.0000
 7719OM     OM1 7719   3.696   3.878   9.356  0.0000  0.0000  0.0000
 7720OM     OM1 7720   3.885   3.704   9.314  0.0000  0.0000  0.0000
 7721OM     OM1 7721   9.370   0.153   8.767  0.0000  0.0000  0.0000
 7722OM     OM1 7722   6.602   2.503   9.447  0.0000  0.0000  0.0000
 7723OM     OM1 7723   6.769   2.341   9.574  0.0000  0.0000  0.0000
 7724OM     OM1 7724   6.867   2.540   9.443  0.0000  0.0000  0.0000
 7725OM     OM1 7725   6.733   2.582   0.057  0.0000  0.0000  0.0000
 7726OM     OM1 7726   8.692   1.059   1.041  0.0000  0.0000  0.0000
 7727OM     OM1 7727   8.455   1.152   1.000  0.0000  0.0000  0.0000
 7728OM     OM1 7728   8.614   1.071   0.805  0.0000  0.0000  0.0000
 7729OM     OM1 7729   4.401   1.213   1.040  0.0000  0.0000  0.0000
 7730OM     OM1 7730   4.166   1.152   1.118  0.0000  0.0000  0.0000
 7731OM     OM1 7731   9.514   9.306   0.445  0.0000  0.0000  0.0000
 7732OM     OM1 7732   9.008   7.548   1.340  0.0000  0.0000  0.0000
 7733OM     OM1 7733   9.210   7.630   1.208  0.0000  0.0000  0.0000
 7734OM     OM1 7734   9.148   7.377   1.178  0.0000  0.0000  0.0000
 7735OM     OM1 7735   6.353   1.401   0.465  0.0000  0.0000  0.0000
 7736OM     OM1 7736   6.404   1.320   0.229  0.0000  0.0000  0.0000
 7737OM     OM1 7737   6.512   1.540   0.317  0.0000  0.0000  0.0000
 7738OM     OM1 7738   6.909   0.804   0.395  0.0000  0.0000  0.0000
 7739OM     OM1 7739   6.877   1.264   0.290  0.0000  0.0000  0.0000
 7740OM     OM1 7740   6.703   0.860   0.243  0.0000  0.0000  0.0000
 7741OM     OM1 7741   3.664   2.225   8.668  0.0000  0.0000  0.0000
 7742OM     OM1 7742   3.472   2.062   8.601  0.0000  0.0000  0.0000
 7743OM     OM1 7743   3.419   2.284   8.753  0.0000  0.0000  0.0000
 7744OM     OM1 7744   3.554   2.088   8.844  0.0000  0.0000  0.0000
 7745OM     OM1 7745   4.478   5.220   9.336  0.0000  0.0000  0.0000
 7746OM     OM1 7746   3.564   1.339   0.313  0.0000  0.0000  0.0000
 7747OM     OM1 7747   3.731   1.430   0.485  0.0000  0.0000  0.0000
 7748OM     OM1 7748   3.474   1.535   0.458  0.0000  0.0000  0.0000
 7749OM     OM1 7749   3.664   1.573   0.282  0.0000  0.0000  0.0000
 7750OM     OM1 7750   2.314   2.766   9.587  0.0000  0.0000  0.0000
 7751OM     OM1 7751   2.379   2.678   9.348  0.0000  0.0000  0.0000
 7752OM     OM1 7752   4.382   1.900   0.478  0.0000  0.0000  0.0000
 7753OM     OM1 7753   4.574   1.790   0.353  0.0000  0.0000  0.0000
 7754OM     OM1 7754   4.481   2.036   0.287  0.0000  0.0000  0.0000
 7755OM     OM1 7755   9.199   5.508   0.811  0.0000  0.0000  0.0000
 7756OM     OM1 7756   9.449   5.537   0.904  0.0000  0.0000  0.0000
 7757OM     OM1 7757   9.269   5.728   0.910  0.0000  0.0000  0.0000
 7758OM     OM1 7758   5.297   7.104   0.830  0.0000  0.0000  0.0000
 7759OM     OM1 7759   5.132   7.416   0.965  0.0000  0.0000  0.0000
 7760OM     OM1 7760   7.426   9.279   0.451  0.0000  0.0000  0.0000
 7761OM     OM1 7761   7.696   9.560   0.180  0.0000  0.0000  0.0000
 7762OM     OM1 7762   1.116   8.805   1.107  0.0000  0.0000  0.0000
 7763OM     OM1 7763   1.081   8.600   1.263  0.0000  0.0000  0.0000
 7764OM     OM1 7764   0.903   8.717   1.004  0.0000  0.0000  0.0000
 7765OM     OM1 7765   8.880   0.594   8.760  0.0000  0.0000  0.0000
 7766OM     OM1 7766   8.877   0.206   8.756  0.0000  0.0000  0.0000
 7767OM     OM1 7767   9.133   0.265   8.780  0.0000  0.0000  0.0000
 7768OM     OM1 7768   5.292   2.349   9.287  0.0000  0.0000  0.0000
 7769OM     OM1 7769   6.335   4.897   8.395  0.0000  0.0000  0.0000
 7770OM     OM1 7770   6.317   5.112   8.231  0.0000  0.0000  0.0000
 7771OM     OM1 7771   3.893   0.872   1.238  0.0000  0.0000  0.0000
 7772OM     OM1 7772   3.831   0.627   1.276  0.0000  0.0000  0.0000
 7773OM     OM1 7773   3.852   0.712   1.035  0.0000  0.0000  0.0000
 7774OM     OM1 7774   9.003   7.125   0.665  0.0000  0.0000  0.0000
 7775OM     OM1 7775   9.154   6.814   0.443  0.0000  0.0000  0.0000
 7776OM     OM1 7776   9.211   6.969   0.651  0.0000  0.0000  0.0000
 7777OM     OM1 7777   8.144   6.017   0.735  0.0000  0.0000  0.0000
 7778OM     OM1 7778   2.361   8.855   0.495  0.0000  0.0000  0.0000
 7779OM     OM1 7779   2.519   9.052   0.555  0.0000  0.0000  0.0000
 7780OM     OM1 7780   7.964   4.413   9.307  0.0000  0.0000  0.0000
 7781OM     OM1 7781   7.773   4.817   9.230  0.0000  0.0000  0.0000
 7782OM     OM1 7782   7.853   4.489   9.075  0.0000  0.0000  0.0000
 7783OM     OM1 7783   1.212   8.386   1.223  0.0000  0.0000  0.0000
 7784OM     OM1 7784   0.946   8.152   0.996  0.0000  0.0000  0.0000
 7785OM     OM1 7785   0.964   8.371   1.159  0.0000  0.0000  0.0000
 7786OM     OM1 7786   7.368   4.076   0.907  0.0000  0.0000  0.0000
 7787OM     OM1 7787   7.626   4.092   0.949  0.0000  0.0000  0.0000
 7788OM     OM1 7788   8.993   0.944   8.404  0.0000  0.0000  0.0000
 7789OM     OM1 7789   9.019   1.010   8.654  0.0000  0.0000  0.0000
 7790OM     OM1 7790   9.000   0.760   8.587  0.0000  0.0000  0.0000
 7791OM     OM1 7791   2.827   2.725   0.214  0.0000  0.0000  0.0000
 7792OM     OM1 7792   8.570   9.276   9.104  0.0000  0.0000  0.0000
 7793OM     OM1 7793   9.005   4.917   9.432  0.0000  0.0000  0.0000
 7794OM     OM1 7794   8.994   4.884   0.076  0.0000  0.0000  0.0000
 7795OM     OM1 7795   8.844   5.069   9.580  0.0000  0.0000  0.0000
 7796OM     OM1 7796   1.496   5.541   0.478  0.0000  0.0000  0.0000
 7797OM     OM1 7797   1.734   5.469   0.521  0.0000  0.0000  0.0000
 7798OM     OM1 7798   5.451   7.898   9.213  0.0000  0.0000  0.0000
 7799OM     OM1 7799   5.559   8.140   9.187  0.0000  0.0000  0.0000
 7800OM     OM1 7800   8.875   3.177   1.249  0.0000  0.0000  0.0000
 7801OM     OM1 7801   9.497   5.134   0.748  0.0000  0.0000  0.0000
 7802OM     OM1 7802   0.044   4.965   0.640  0.0000  0.0000  0.0000
 7803OM     OM1 7803   7.825   4.415   0.589  0.0000  0.0000  0.0000
 7804OM     OM1 7804   6.621   4.787   0.597  0.0000  0.0000  0.0000
 7805OM     OM1 7805   8.412   9.197   1.450  0.0000  0.0000  0.0000
 7806OM     OM1 7806   8.360   8.981   1.326  0.0000  0.0000  0.0000
 7807OM     OM1 7807   8.308   4.543   8.285  0.0000  0.0000  0.0000
 7808OM     OM1 7808   2.568   0.653   9.333  0.0000  0.0000  0.0000
 7809OM     OM1 7809   2.586   0.439   9.175  0.0000  0.0000  0.0000
 7810OM     OM1 7810   2.489   0.664   9.084  0.0000  0.0000  0.0000
 7811OM     OM1 7811   2.353   0.525   9.258  0.0000  0.0000  0.0000
 7812OM     OM1 7812   1.332   4.354   1.259  0.0000  0.0000  0.0000
 7813OM     OM1 7813   1.409   4.568   1.383  0.0000  0.0000  0.0000
 7814OM     OM1 7814   0.079   1.351   8.913  0.0000  0.0000  0.0000
 7815OM     OM1 7815   0.299   1.469   8.836  0.0000  0.0000  0.0000
 7816OM     OM1 7816   2.343   8.075   8.761  0.0000  0.0000  0.0000
 7817OM     OM1 7817   2.187   8.221   8.902  0.0000  0.0000  0.0000
 7818OM     OM1 7818   4.091   6.370   1.311  0.0000  0.0000  0.0000
 7819OM     OM1 7819   3.929   6.359   1.106  0.0000  0.0000  0.0000
 7820OM     OM1 7820   5.339   3.623   0.204  0.0000  0.0000  0.0000
 7821OM     OM1 7821   2.219   3.872   9.391  0.0000  0.0000  0.0000
 7822OM     OM1 7822   2.175   4.039   9.184  0.0000  0.0000  0.0000
 7823OM     OM1 7823   0.134   7.906   9.578  0.0000  0.0000  0.0000
 7824OM     OM1 7824   0.229   7.685   0.092  0.0000  0.0000  0.0000
 7825OM     OM1 7825   0.309   7.927   0.168  0.0000  0.0000  0.0000
 7826OM     OM1 7826   0.374   2.729   0.371  0.0000  0.0000  0.0000
 7827OM     OM1 7827   0.466   2.491   0.278  0.0000  0.0000  0.0000
 7828OM     OM1 7828   7.893   0.206   0.321  0.0000  0.0000  0.0000
 7829OM     OM1 7829   7.885   0.099   0.086  0.0000  0.0000  0.0000
 7830OM     OM1 7830   2.186   3.129   8.879  0.0000  0.0000  0.0000
 7831OM     OM1 7831   2.214   3.319   9.056  0.0000  0.0000  0.0000
 7832OM     OM1 7832   5.808   2.901   0.823  0.0000  0.0000  0.0000
 7833OM     OM1 7833   5.764   3.069   0.638  0.0000  0.0000  0.0000
 7834OM     OM1 7834   4.368   5.412   1.124  0.0000  0.0000  0.0000
 7835OM     OM1 7835   4.205   5.608   1.194  0.0000  0.0000  0.0000
 7836OM     OM1 7836   4.464   5.649   1.192  0.0000  0.0000  0.0000
 7837OM     OM1 7837   6.225   6.850   9.216  0.0000  0.0000  0.0000
 7838OM     OM1 7838   6.347   6.865   9.445  0.0000  0.0000  0.0000
 7839OM     OM1 7839   4.231   5.636   9.147  0.0000  0.0000  0.0000
 7840OM     OM1 7840   4.041   0.722   0.008  0.0000  0.0000  0.0000
 7841OM     OM1 7841   4.049   0.831   0.245  0.0000  0.0000  0.0000
 7842OM     OM1 7842   6.469   0.120   8.293  0.0000  0.0000  0.0000
 7843OM     OM1 7843   0.947   7.329   8.280  0.0000  0.0000  0.0000
 7844OM     OM1 7844   0.679   7.361   8.346  0.0000  0.0000  0.0000
 7845OM     OM1 7845   0.845   7.207   8.476  0.0000  0.0000  0.0000
 7846OM     OM1 7846   9.568   1.062   1.006  0.0000  0.0000  0.0000
 7847OM     OM1 7847   0.134   1.189   0.853  0.0000  0.0000  0.0000
 7848OM     OM1 7848   9.561   1.378   0.864  0.0000  0.0000  0.0000
 7849OM     OM1 7849   0.186   1.391   1.000  0.0000  0.0000  0.0000
 7850OM     OM1 7850   0.126   4.098   8.706  0.0000  0.0000  0.0000
 7851OM     OM1 7851   0.023   4.148   8.345  0.0000  0.0000  0.0000
 7852OM     OM1 7852   0.117   3.955   8.482  0.0000  0.0000  0.0000
 7853OM     OM1 7853   6.839   7.084   0.214  0.0000  0.0000  0.0000
 7854OM     OM1 7854   3.866   7.681   0.885  0.0000  0.0000  0.0000
 7855OM     OM1 7855   4.033   7.858   0.940  0.0000  0.0000  0.0000
 7856OM     OM1 7856   1.751   6.287   0.591  0.0000  0.0000  0.0000
 7857OM     OM1 7857   1.576   6.481   0.614  0.0000  0.0000  0.0000
 7858OM     OM1 7858   1.724   6.416   0.820  0.0000  0.0000  0.0000
 7859OM     OM1 7859   5.136   3.174   1.326  0.0000  0.0000  0.0000
 7860OM     OM1 7860   4.958   7.692   8.333  0.0000  0.0000  0.0000
 7861OM     OM1 7861   5.203   7.719   8.456  0.0000  0.0000  0.0000
 7862OM     OM1 7862   0.630   9.383   1.139  0.0000  0.0000  0.0000
 7863OM     OM1 7863   0.635   9.152   1.269  0.0000  0.0000  0.0000
 7864OM     OM1 7864   0.431   9.233   1.129  0.0000  0.0000  0.0000
 7865OM     OM1 7865   2.180   0.614   0.802  0.0000  0.0000  0.0000
 7866OM     OM1 7866   2.309   0.739   0.606  0.0000  0.0000  0.0000
 7867OM     OM1 7867   2.065   0.644   0.577  0.0000  0.0000  0.0000
 7868OM     OM1 7868   2.117   0.859   0.728  0.0000  0.0000  0.0000
 7869OM     OM1 7869   3.119   7.761   8.910  0.0000  0.0000  0.0000
 7870OM     OM1 7870   3.138   7.569   9.099  0.0000  0.0000  0.0000
 7871OM     OM1 7871   4.681   4.521   9.233  0.0000  0.0000  0.0000
 7872OM     OM1 7872   4.705   4.779   9.243  0.0000  0.0000  0.0000
 7873OM     OM1 7873   8.439   6.178   8.686  0.0000  0.0000  0.0000
 7874OM     OM1 7874   8.614   6.271   8.523  0.0000  0.0000  0.0000
 7875OM     OM1 7875   9.401   7.778   0.812  0.0000  0.0000  0.0000
 7876OM     OM1 7876   9.399   8.029   0.904  0.0000  0.0000  0.0000
 7877OM     OM1 7877   9.309   7.830   1.053  0.0000  0.0000  0.0000
 7878OM     OM1 7878   3.674   1.729   0.985  0.0000  0.0000  0.0000
 7879OM     OM1 7879   3.556   1.964   0.947  0.0000  0.0000  0.0000
 7880OM     OM1 7880   3.705   1.867   0.760  0.0000  0.0000  0.0000
 7881OM     OM1 7881   3.690   5.800   0.312  0.0000  0.0000  0.0000
 7882OM     OM1 7882   3.688   5.643   0.096  0.0000  0.0000  0.0000
 7883OM     OM1 7883   2.202   2.263   8.991  0.0000  0.0000  0.0000
 7884OM     OM1 7884   2.079   2.086   8.841  0.0000  0.0000  0.0000
 7885OM     OM1 7885   2.240   2.004   9.024  0.0000  0.0000  0.0000
 7886OM     OM1 7886   4.683   3.739   0.357  0.0000  0.0000  0.0000
 7887OM     OM1 7887   4.517   3.669   0.175  0.0000  0.0000  0.0000
 7888OM     OM1 7888   4.440   3.832   0.374  0.0000  0.0000  0.0000
 7889OM     OM1 7889   5.562   1.191   9.125  0.0000  0.0000  0.0000
 7890OM     OM1 7890   5.551   1.058   9.353  0.0000  0.0000  0.0000
 7891OM     OM1 7891   5.390   1.004   9.146  0.0000  0.0000  0.0000
 7892OM     OM1 7892   5.529   6.675   8.733  0.0000  0.0000  0.0000
 7893OM     OM1 7893   5.550   6.931   8.700  0.0000  0.0000  0.0000
 7894OM     OM1 7894   5.698   6.811   8.878  0.0000  0.0000  0.0000
 7895OM     OM1 7895   1.980   6.718   1.121  0.0000  0.0000  0.0000
 7896OM     OM1 7896   1.796   6.539   1.043  0.0000  0.0000  0.0000
 7897OM     OM1 7897   1.767   6.681   1.258  0.0000  0.0000  0.0000
 7898OM     OM1 7898   8.656   8.532   0.598  0.0000  0.0000  0.0000
 7899OM     OM1 7899   8.559   8.312   0.725  0.0000  0.0000  0.0000
 7900OM     OM1 7900   8.710   8.290   0.519  0.0000  0.0000  0.0000
 7901OM     OM1 7901   2.944   0.632   0.592  0.0000  0.0000  0.0000
 7902OM     OM1 7902   8.496   4.099   9.516  0.0000  0.0000  0.0000
 7903OM     OM1 7903   8.581   4.315   9.400  0.0000  0.0000  0.0000
 7904OM     OM1 7904   9.373   0.603   9.262  0.0000  0.0000  0.0000
 7905OM     OM1 7905   9.527   0.628   9.049  0.0000  0.0000  0.0000
 7906OM     OM1 7906   8.004   9.005   0.193  0.0000  0.0000  0.0000
 7907OM     OM1 7907   8.027   9.266   0.142  0.0000  0.0000  0.0000
 7908OM     OM1 7908   3.322   7.167   1.347  0.0000  0.0000  0.0000
 7909OM     OM1 7909   2.014   8.521   8.385  0.0000  0.0000  0.0000
 7910OM     OM1 7910   2.208   8.366   8.450  0.0000  0.0000  0.0000
 7911OM     OM1 7911   7.934   2.698   0.619  0.0000  0.0000  0.0000
 7912OM     OM1 7912   7.810   2.874   0.770  0.0000  0.0000  0.0000
 7913OM     OM1 7913   4.281   7.953   0.969  0.0000  0.0000  0.0000
 7914OM     OM1 7914   4.097   8.070   0.834  0.0000  0.0000  0.0000
 7915OM     OM1 7915   4.201   7.851   0.737  0.0000  0.0000  0.0000
 7916OM     OM1 7916   5.517   4.164   0.573  0.0000  0.0000  0.0000
 7917OM     OM1 7917   5.385   4.015   0.414  0.0000  0.0000  0.0000
 7918OM     OM1 7918   2.924   0.213   0.418  0.0000  0.0000  0.0000
 7919OM     OM1 7919   2.978   0.381   0.602  0.0000  0.0000  0.0000
 7920OM     OM1 7920   3.150   0.331   0.398  0.0000  0.0000  0.0000
 7921OM     OM1 7921   0.007   3.632   8.792  0.0000  0.0000  0.0000
 7922OM     OM1 7922   9.460   3.423   8.815  0.0000  0.0000  0.0000
 7923OM     OM1 7923   6.274   1.506   9.383  0.0000  0.0000  0.0000
 7924OM     OM1 7924   6.143   1.716   9.289  0.0000  0.0000  0.0000
 7925OM     OM1 7925   6.047   1.463   9.261  0.0000  0.0000  0.0000
 7926OM     OM1 7926   1.558   7.544   8.699  0.0000  0.0000  0.0000
 7927OM     OM1 7927   2.815   6.134   0.919  0.0000  0.0000  0.0000
 7928OM     OM1 7928   2.561   6.169   0.836  0.0000  0.0000  0.0000
 7929OM     OM1 7929   0.106   6.796   9.532  0.0000  0.0000  0.0000
 7930OM     OM1 7930   0.297   6.677   0.047  0.0000  0.0000  0.0000
 7931OM     OM1 7931   0.049   6.588   0.081  0.0000  0.0000  0.0000
 7932OM     OM1 7932   6.991   4.717   8.545  0.0000  0.0000  0.0000
 7933OM     OM1 7933   6.847   4.593   8.366  0.0000  0.0000  0.0000
 7934OM     OM1 7934   5.000   2.043   0.560  0.0000  0.0000  0.0000
 7935OM     OM1 7935   4.753   2.117   0.635  0.0000  0.0000  0.0000
 7936OM     OM1 7936   4.862   1.907   0.736  0.0000  0.0000  0.0000
 7937OM     OM1 7937   5.900   6.937   8.974  0.0000  0.0000  0.0000
 7938OM     OM1 7938   5.879   6.918   8.722  0.0000  0.0000  0.0000
 7939OM     OM1 7939   5.941   6.705   8.863  0.0000  0.0000  0.0000
 7940OM     OM1 7940   2.221   0.288   8.731  0.0000  0.0000  0.0000
 7941OM     OM1 7941   2.367   0.470   8.627  0.0000  0.0000  0.0000
 7942OM     OM1 7942   8.369   5.891   0.786  0.0000  0.0000  0.0000
 7943OM     OM1 7943   7.321   2.808   0.503  0.0000  0.0000  0.0000
 7944OM     OM1 7944   7.432   2.896   0.731  0.0000  0.0000  0.0000
 7945OM     OM1 7945   2.918   6.434   8.413  0.0000  0.0000  0.0000
 7946OM     OM1 7946   6.714   2.727   8.887  0.0000  0.0000  0.0000
 7947OM     OM1 7947   6.924   2.807   8.746  0.0000  0.0000  0.0000
 7948OM     OM1 7948   6.782   2.599   8.676  0.0000  0.0000  0.0000
 7949OM     OM1 7949   8.488   7.903   9.050  0.0000  0.0000  0.0000
 7950OM     OM1 7950   3.672   0.667   8.764  0.0000  0.0000  0.0000
 7951OM     OM1 7951   8.321   8.436   9.148  0.0000  0.0000  0.0000
 7952OM     OM1 7952   8.109   8.322   9.021  0.0000  0.0000  0.0000
 7953OM     OM1 7953   8.347   8.342   8.908  0.0000  0.0000  0.0000
 7954OM     OM1 7954   4.666   1.295   8.570  0.0000  0.0000  0.0000
 7955OM     OM1 7955   6.307   7.732   9.551  0.0000  0.0000  0.0000
 7956OM     OM1 7956   5.048   6.314   1.102  0.0000  0.0000  0.0000
 7957OM     OM1 7957   5.624   4.838   0.604  0.0000  0.0000  0.0000
 7958OM     OM1 7958   5.697   4.594   0.526  0.0000  0.0000  0.0000
 7959OM     OM1 7959   5.858   4.802   0.498  0.0000  0.0000  0.0000
 7960OM     OM1 7960   8.334   6.073   9.414  0.0000  0.0000  0.0000
 7961OM     OM1 7961   8.312   6.125   9.164  0.0000  0.0000  0.0000
 7962OM     OM1 7962   4.225   4.570   9.429  0.0000  0.0000  0.0000
 7963OM     OM1 7963   4.791   6.095   0.532  0.0000  0.0000  0.0000
 7964OM     OM1 7964   4.862   6.025   0.767  0.0000  0.0000  0.0000
 7965OM     OM1 7965   4.602   5.996   0.669  0.0000  0.0000  0.0000
 7966OM     OM1 7966   4.795   5.842   0.589  0.0000  0.0000  0.0000
 7967OM     OM1 7967   1.611   7.278   0.325  0.0000  0.0000  0.0000
 7968OM     OM1 7968   1.782   7.234   0.531  0.0000  0.0000  0.0000
 7969OM     OM1 7969   8.252   4.468   9.015  0.0000  0.0000  0.0000
 7970OM     OM1 7970   8.205   4.370   9.253  0.0000  0.0000  0.0000
 7971OM     OM1 7971   8.104   4.264   9.028  0.0000  0.0000  0.0000
 7972OM     OM1 7972   8.227   1.541   9.077  0.0000  0.0000  0.0000
 7973OM     OM1 7973   8.092   1.746   9.153  0.0000  0.0000  0.0000
 7974OM     OM1 7974   8.290   1.665   9.298  0.0000  0.0000  0.0000
 7975OM     OM1 7975   6.211   4.735   9.078  0.0000  0.0000  0.0000
 7976OM     OM1 7976   6.165   4.817   8.831  0.0000  0.0000  0.0000
 7977OM     OM1 7977   3.019   7.333   9.115  0.0000  0.0000  0.0000
 7978OM     OM1 7978   2.327   5.612   1.270  0.0000  0.0000  0.0000
 7979OM     OM1 7979   2.590   5.610   1.293  0.0000  0.0000  0.0000
 7980OM     OM1 7980   2.450   5.402   1.373  0.0000  0.0000  0.0000
 7981OM     OM1 7981   1.500   1.115   1.197  0.0000  0.0000  0.0000
 7982OM     OM1 7982   3.325   1.094   9.318  0.0000  0.0000  0.0000
 7983OM     OM1 7983   3.395   1.315   9.445  0.0000  0.0000  0.0000
 7984OM     OM1 7984   6.324   2.987   9.553  0.0000  0.0000  0.0000
 7985OM     OM1 7985   6.356   3.114   9.326  0.0000  0.0000  0.0000
 7986OM     OM1 7986   1.691   8.610   9.567  0.0000  0.0000  0.0000
 7987OM     OM1 7987   1.919   8.478   0.001  0.0000  0.0000  0.0000
 7988OM     OM1 7988   1.907   8.690   9.461  0.0000  0.0000  0.0000
 7989OM     OM1 7989   9.261   6.256   0.907  0.0000  0.0000  0.0000
 7990OM     OM1 7990   9.261   6.139   1.130  0.0000  0.0000  0.0000
 7991OM     OM1 7991   9.289   6.402   1.125  0.0000  0.0000  0.0000
 7992OM     OM1 7992   1.934   0.862   0.414  0.0000  0.0000  0.0000
 7993OM     OM1 7993   1.846   0.628   0.442  0.0000  0.0000  0.0000
 7994OM     OM1 7994   5.643   7.555   9.361  0.0000  0.0000  0.0000
 7995OM     OM1 7995   4.823   8.134   0.305  0.0000  0.0000  0.0000
 7996OM     OM1 7996   4.690   8.079   0.524  0.0000  0.0000  0.0000
 7997OM     OM1 7997   4.807   7.884   0.410  0.0000  0.0000  0.0000
 7998OM     OM1 7998   2.445   3.183   0.776  0.0000  0.0000  0.0000
 7999OM     OM1 7999   2.443   3.424   0.883  0.0000  0.0000  0.0000
 8000OM     OM1 8000   2.668   3.314   0.782  0.0000  0.0000  0.0000
 8001OM     OM1 8001   5.340   9.319   9.154  0.0000  0.0000  0.0000
 8002OM     OM1 8002   5.178   9.311   9.353  0.0000  0.0000  0.0000
 8003OM     OM1 8003   5.432   9.244   9.398  0.0000  0.0000  0.0000
 8004OM     OM1 8004   4.195   8.024   9.075  0.0000  0.0000  0.0000
 8005OM     OM1 8005   4.200   7.836   8.897  0.0000  0.0000  0.0000
 8006OM     OM1 8006   4.066   7.798   9.117  0.0000  0.0000  0.0000
 8007OM     OM1 8007   3.975   7.973   8.946  0.0000  0.0000  0.0000
 8008OM     OM1 8008   0.432   1.324   8.656  0.0000  0.0000  0.0000
 8009OM     OM1 8009   0.564   1.457   8.839  0.0000  0.0000  0.0000
 8010OM     OM1 8010   7.320   1.490   0.891  0.0000  0.0000  0.0000
 8011OM     OM1 8011   7.263   1.717   1.010  0.0000  0.0000  0.0000
 8012OM     OM1 8012   9.212   0.226   8.294  0.0000  0.0000  0.0000
 8013OM     OM1 8013   9.112   9.600   8.300  0.0000  0.0000  0.0000
 8014OM     OM1 8014   8.289   4.790   0.818  0.0000  0.0000  0.0000
 8015OM     OM1 8015   6.658   2.027   8.962  0.0000  0.0000  0.0000
 8016OM     OM1 8016   6.398   2.038   8.988  0.0000  0.0000  0.0000
 8017OM     OM1 8017   6.532   2.005   9.206  0.0000  0.0000  0.0000
 8018OM     OM1 8018   6.530   1.819   9.017  0.0000  0.0000  0.0000
 8019OM     OM1 8019   0.114   3.092   0.775  0.0000  0.0000  0.0000
 8020OM     OM1 8020   0.018   2.871   0.693  0.0000  0.0000  0.0000
 8021OM     OM1 8021   9.467   3.036   0.838  0.0000  0.0000  0.0000
 8022OM     OM1 8022   9.524   3.101   0.599  0.0000  0.0000  0.0000
 8023OM     OM1 8023   3.389   8.472   0.926  0.0000  0.0000  0.0000
 8024OM     OM1 8024   3.643   8.469   0.976  0.0000  0.0000  0.0000
 8025OM     OM1 8025   6.669   5.089   0.211  0.0000  0.0000  0.0000
 8026OM     OM1 8026   6.912   5.016   0.224  0.0000  0.0000  0.0000
 8027OM     OM1 8027   6.715   4.892   0.374  0.0000  0.0000  0.0000
 8028OM     OM1 8028   3.946   3.548   1.084  0.0000  0.0000  0.0000
 8029OM     OM1 8029   2.692   4.180   0.895  0.0000  0.0000  0.0000
 8030OM     OM1 8030   2.493   4.070   1.041  0.0000  0.0000  0.0000
 8031OM     OM1 8031   2.570   3.983   0.800  0.0000  0.0000  0.0000
 8032OM     OM1 8032   2.715   3.944   1.012  0.0000  0.0000  0.0000
 8033OM     OM1 8033   6.957   2.725   9.289  0.0000  0.0000  0.0000
 8034OM     OM1 8034   6.734   2.747   9.146  0.0000  0.0000  0.0000
 8035OM     OM1 8035   6.822   2.943   9.294  0.0000  0.0000  0.0000
 8036OM     OM1 8036   8.501   4.665   9.057  0.0000  0.0000  0.0000
 8037OM     OM1 8037   8.747   4.609   9.117  0.0000  0.0000  0.0000
 8038OM     OM1 8038   4.296   2.527   0.498  0.0000  0.0000  0.0000
 8039OM     OM1 8039   4.070   2.606   0.396  0.0000  0.0000  0.0000
 8040OM     OM1 8040   1.360   4.849   0.407  0.0000  0.0000  0.0000
 8041OM     OM1 8041   1.329   4.946   0.168  0.0000  0.0000  0.0000
 8042OM     OM1 8042   7.634   5.590   0.132  0.0000  0.0000  0.0000
 8043OM     OM1 8043   4.859   0.402   8.163  0.0000  0.0000  0.0000
 8044OM     OM1 8044   4.728   0.596   8.235  0.0000  0.0000  0.0000
 8045OM     OM1 8045   0.948   4.377   8.230  0.0000  0.0000  0.0000
 8046OM     OM1 8046   9.570   1.961   0.614  0.0000  0.0000  0.0000
 8047OM     OM1 8047   3.625   5.702   8.928  0.0000  0.0000  0.0000
 8048OM     OM1 8048   3.754   5.517   9.054  0.0000  0.0000  0.0000
 8049OM     OM1 8049   2.191   5.770   0.857  0.0000  0.0000  0.0000
 8050OM     OM1 8050   2.371   5.902   1.009  0.0000  0.0000  0.0000
 8051OM     OM1 8051   6.032   1.195   9.278  0.0000  0.0000  0.0000
 8052OM     OM1 8052   5.948   1.339   9.060  0.0000  0.0000  0.0000
 8053OM     OM1 8053   5.445   4.882   8.642  0.0000  0.0000  0.0000
 8054OM     OM1 8054   5.691   4.809   8.573  0.0000  0.0000  0.0000
 8055OM     OM1 8055   1.866   2.099   0.381  0.0000  0.0000  0.0000
 8056OM     OM1 8056   1.765   2.250   0.199  0.0000  0.0000  0.0000
 8057OM     OM1 8057   1.603   2.118   0.374  0.0000  0.0000  0.0000
 8058OM     OM1 8058   0.281   7.567   1.171  0.0000  0.0000  0.0000
 8059OM     OM1 8059   0.469   7.733   1.111  0.0000  0.0000  0.0000
 8060OM     OM1 8060   9.200   2.385   8.703  0.0000  0.0000  0.0000
 8061OM     OM1 8061   9.031   2.301   8.525  0.0000  0.0000  0.0000
 8062OM     OM1 8062   5.461   7.577   8.818  0.0000  0.0000  0.0000
 8063OM     OM1 8063   5.484   9.018   0.504  0.0000  0.0000  0.0000
 8064OM     OM1 8064   0.975   2.142   0.224  0.0000  0.0000  0.0000
 8065OM     OM1 8065   0.833   1.934   0.298  0.0000  0.0000  0.0000
 8066OM     OM1 8066   1.081   1.909   0.218  0.0000  0.0000  0.0000
 8067OM     OM1 8067   5.597   6.750   1.418  0.0000  0.0000  0.0000
 8068OM     OM1 8068   0.391   6.596   0.977  0.0000  0.0000  0.0000
 8069OM     OM1 8069   0.236   6.432   0.868  0.0000  0.0000  0.0000
 8070OM     OM1 8070   3.881   0.814   0.450  0.0000  0.0000  0.0000
 8071OM     OM1 8071   3.803   0.769   0.210  0.0000  0.0000  0.0000
 8072OM     OM1 8072   4.714   6.710   9.337  0.0000  0.0000  0.0000
 8073OM     OM1 8073   3.155   3.535   9.228  0.0000  0.0000  0.0000
 8074OM     OM1 8074   9.600   6.396   9.525  0.0000  0.0000  0.0000
 8075OM     OM1 8075   8.174   7.521   8.921  0.0000  0.0000  0.0000
 8076OM     OM1 8076   8.427   7.442   8.921  0.0000  0.0000  0.0000
 8077OM     OM1 8077   8.281   7.456   9.146  0.0000  0.0000  0.0000
 8078OM     OM1 8078   5.649   7.548   0.547  0.0000  0.0000  0.0000
 8079OM     OM1 8079   5.711   7.736   0.726  0.0000  0.0000  0.0000
 8080OM     OM1 8080   5.863   7.526   0.700  0.0000  0.0000  0.0000
 8081OM     OM1 8081   7.533   6.519   1.340  0.0000  0.0000  0.0000
 8082OM     OM1 8082   0.809   0.928   0.857  0.0000  0.0000  0.0000
 8083OM     OM1 8083   0.859   0.673   0.878  0.0000  0.0000  0.0000
 8084OM     OM1 8084   1.116   0.836   1.188  0.0000  0.0000  0.0000
 8085OM     OM1 8085   2.270   1.785   9.162  0.0000  0.0000  0.0000
 8086OM     OM1 8086   2.478   1.931   9.068  0.0000  0.0000  0.0000
 8087OM     OM1 8087   8.730   0.000   8.719  0.0000  0.0000  0.0000
 8088OM     OM1 8088   8.715   9.345   8.755  0.0000  0.0000  0.0000
 8089OM     OM1 8089   3.064   2.777   0.836  0.0000  0.0000  0.0000
 8090OM     OM1 8090   3.278   2.682   0.941  0.0000  0.0000  0.0000
 8091OM     OM1 8091   8.653   0.240   1.271  0.0000  0.0000  0.0000
 8092OM     OM1 8092   8.618   0.008   1.176  0.0000  0.0000  0.0000
 8093OM     OM1 8093   8.868   0.103   1.245  0.0000  0.0000  0.0000
 8094OM     OM1 8094   5.470   6.693   8.488  0.0000  0.0000  0.0000
 8095OM     OM1 8095   5.368   6.850   8.302  0.0000  0.0000  0.0000
 8096OM     OM1 8096   7.219   6.522   8.449  0.0000  0.0000  0.0000
 8097OM     OM1 8097   7.367   6.323   8.359  0.0000  0.0000  0.0000
 8098OM     OM1 8098   0.014   0.100   0.024  0.0000  0.0000  0.0000
 8099OM     OM1 8099   0.080   0.406   0.401  0.0000  0.0000  0.0000
 8100OM     OM1 8100   0.192   0.287   9.544  0.0000  0.0000  0.0000
 8101OM     OM1 8101   0.095   0.290   0.173  0.0000  0.0000  0.0000
 8102OM     OM1 8102   7.440   8.472   9.456  0.0000  0.0000  0.0000
 8103OM     OM1 8103   7.268   8.463   0.041  0.0000  0.0000  0.0000
 8104OM     OM1 8104   7.306   8.686   9.527  0.0000  0.0000  0.0000
 8105OM     OM1 8105   0.894   9.123   8.444  0.0000  0.0000  0.0000
 8106OM     OM1 8106   1.123   9.020   8.495  0.0000  0.0000  0.0000
 8107OM     OM1 8107   7.657   0.474   8.793  0.0000  0.0000  0.0000
 8108OM     OM1 8108   0.842   3.651   0.206  0.0000  0.0000  0.0000
 8109OM     OM1 8109   0.897   3.540   0.436  0.0000  0.0000  0.0000
 8110OM     OM1 8110   0.838   3.799   0.421  0.0000  0.0000  0.0000
 8111OM     OM1 8111   6.118   5.933   1.145  0.0000  0.0000  0.0000
 8112OM     OM1 8112   5.912   5.914   1.011  0.0000  0.0000  0.0000
 8113OM     OM1 8113   9.247   5.027   0.773  0.0000  0.0000  0.0000
 8114OM     OM1 8114   9.229   4.935   0.541  0.0000  0.0000  0.0000
 8115OM     OM1 8115   8.868   5.203   0.483  0.0000  0.0000  0.0000
 8116OM     OM1 8116   0.409   6.914   8.581  0.0000  0.0000  0.0000
 8117OM     OM1 8117   0.662   0.707   9.356  0.0000  0.0000  0.0000
 8118OM     OM1 8118   0.512   0.791   9.174  0.0000  0.0000  0.0000
 8119OM     OM1 8119   8.520   4.301   0.794  0.0000  0.0000  0.0000
 8120OM     OM1 8120   8.628   4.059   0.802  0.0000  0.0000  0.0000
 8121OM     OM1 8121   8.394   4.099   0.685  0.0000  0.0000  0.0000
 8122OM     OM1 8122   6.033   3.909   0.279  0.0000  0.0000  0.0000
 8123OM     OM1 8123   1.838   1.354   9.042  0.0000  0.0000  0.0000
 8124OM     OM1 8124   1.787   1.153   9.205  0.0000  0.0000  0.0000
 8125OM     OM1 8125   0.332   3.465   9.344  0.0000  0.0000  0.0000
 8126OM     OM1 8126   0.285   3.505   9.596  0.0000  0.0000  0.0000
 8127OM     OM1 8127   1.795   8.905   9.380  0.0000  0.0000  0.0000
 8128OM     OM1 8128   1.848   8.914   9.123  0.0000  0.0000  0.0000
 8129OM     OM1 8129   1.613   8.986   9.209  0.0000  0.0000  0.0000
 8130OM     OM1 8130   9.474   4.842   0.493  0.0000  0.0000  0.0000
 8131OM     OM1 8131   9.316   4.926   0.295  0.0000  0.0000  0.0000
 8132OM     OM1 8132   1.837   4.501   9.066  0.0000  0.0000  0.0000
 8133OM     OM1 8133   1.943   4.473   8.823  0.0000  0.0000  0.0000
 8134OM     OM1 8134   4.948   3.234   1.150  0.0000  0.0000  0.0000
 8135OM     OM1 8135   5.186   3.227   1.072  0.0000  0.0000  0.0000
 8136OM     OM1 8136   1.165   7.907   0.313  0.0000  0.0000  0.0000
 8137OM     OM1 8137   1.335   8.028   0.163  0.0000  0.0000  0.0000
 8138OM     OM1 8138   1.278   8.122   0.403  0.0000  0.0000  0.0000
 8139OM     OM1 8139   1.158   4.426   0.435  0.0000  0.0000  0.0000
 8140OM     OM1 8140   1.078   4.671   0.420  0.0000  0.0000  0.0000
 8141OM     OM1 8141   1.266   4.587   0.249  0.0000  0.0000  0.0000
 8142OM     OM1 8142   6.925   8.434   8.522  0.0000  0.0000  0.0000
 8143OM     OM1 8143   9.439   8.022   8.556  0.0000  0.0000  0.0000
 8144OM     OM1 8144   9.559   8.228   8.653  0.0000  0.0000  0.0000
 8145OM     OM1 8145   1.707   7.499   0.000  0.0000  0.0000  0.0000
 8146OM     OM1 8146   2.089   1.708   0.170  0.0000  0.0000  0.0000
 8147OM     OM1 8147   2.060   1.450   0.181  0.0000  0.0000  0.0000
 8148OM     OM1 8148   5.799   6.230   0.912  0.0000  0.0000  0.0000
 8149OM     OM1 8149   5.697   6.111   0.718  0.0000  0.0000  0.0000
 8150OM     OM1 8150   1.051   8.881   0.861  0.0000  0.0000  0.0000
 8151OM     OM1 8151   1.364   3.874   0.017  0.0000  0.0000  0.0000
 8152OM     OM1 8152   1.391   3.959   9.373  0.0000  0.0000  0.0000
 8153OM     OM1 8153   6.081   4.682   1.230  0.0000  0.0000  0.0000
 8154OM     OM1 8154   4.236   2.633   9.555  0.0000  0.0000  0.0000
 8155OM     OM1 8155   4.278   2.827   0.139  0.0000  0.0000  0.0000
 8156OM     OM1 8156   4.356   2.536   9.350  0.0000  0.0000  0.0000
 8157OM     OM1 8157   4.367   2.843   9.493  0.0000  0.0000  0.0000
 8158OM     OM1 8158   5.851   3.836   8.599  0.0000  0.0000  0.0000
 8159OM     OM1 8159   6.022   3.677   8.491  0.0000  0.0000  0.0000
 8160OM     OM1 8160   8.440   2.773   0.442  0.0000  0.0000  0.0000
 8161OM     OM1 8161   8.413   2.854   0.765  0.0000  0.0000  0.0000
 8162OM     OM1 8162   8.290   2.673   0.626  0.0000  0.0000  0.0000
 8163OM     OM1 8163   6.042   1.509   8.872  0.0000  0.0000  0.0000
 8164OM     OM1 8164   5.876   1.323   8.804  0.0000  0.0000  0.0000
 8165OM     OM1 8165   3.219   3.223   0.065  0.0000  0.0000  0.0000
 8166OM     OM1 8166   3.036   3.368   0.413  0.0000  0.0000  0.0000
 8167OM     OM1 8167   5.616   6.297   0.091  0.0000  0.0000  0.0000
 8168OM     OM1 8168   0.750   4.825   8.808  0.0000  0.0000  0.0000
 8169OM     OM1 8169   5.606   5.617   0.134  0.0000  0.0000  0.0000
 8170OM     OM1 8170   5.675   5.390   0.254  0.0000  0.0000  0.0000
 8171OM     OM1 8171   5.601   5.392   0.005  0.0000  0.0000  0.0000
 8172OM     OM1 8172   4.537   5.937   8.307  0.0000  0.0000  0.0000
 8173OM     OM1 8173   4.709   6.096   8.195  0.0000  0.0000  0.0000
 8174OM     OM1 8174   4.588   6.188   8.391  0.0000  0.0000  0.0000
 8175OM     OM1 8175   1.011   6.207   0.901  0.0000  0.0000  0.0000
 8176OM     OM1 8176   0.781   6.314   0.908  0.0000  0.0000  0.0000
 8177OM     OM1 8177   0.808   6.049   0.864  0.0000  0.0000  0.0000
 8178OM     OM1 8178   0.845   6.151   1.098  0.0000  0.0000  0.0000
 8179OM     OM1 8179   3.847   1.532   9.087  0.0000  0.0000  0.0000
 8180OM     OM1 8180   3.800   1.675   9.291  0.0000  0.0000  0.0000
 8181OM     OM1 8181   3.883   1.438   9.331  0.0000  0.0000  0.0000
 8182OM     OM1 8182   4.050   1.617   9.232  0.0000  0.0000  0.0000
 8183OM     OM1 8183   6.427   4.379   9.513  0.0000  0.0000  0.0000
 8184OM     OM1 8184   6.610   4.362   9.326  0.0000  0.0000  0.0000
 8185OM     OM1 8185   8.927   3.162   9.345  0.0000  0.0000  0.0000
 8186OM     OM1 8186   8.225   3.875   9.409  0.0000  0.0000  0.0000
 8187OM     OM1 8187   8.382   3.893   0.014  0.0000  0.0000  0.0000
 8188OM     OM1 8188   8.450   3.740   9.419  0.0000  0.0000  0.0000
 8189OM     OM1 8189   1.571   4.293   8.924  0.0000  0.0000  0.0000
 8190OM     OM1 8190   1.388   4.416   8.791  0.0000  0.0000  0.0000
 8191OM     OM1 8191   1.512   4.550   8.984  0.0000  0.0000  0.0000
 8192OM     OM1 8192   5.439   7.233   9.232  0.0000  0.0000  0.0000
 8193OM     OM1 8193   5.333   7.011   9.208  0.0000  0.0000  0.0000
 8194OM     OM1 8194   5.317   7.164   9.000  0.0000  0.0000  0.0000
 8195OM     OM1 8195   0.990   7.883   0.115  0.0000  0.0000  0.0000
 8196OM     OM1 8196   0.918   7.836   0.362  0.0000  0.0000  0.0000
 8197OM     OM1 8197   2.182   6.735   0.383  0.0000  0.0000  0.0000
 8198OM     OM1 8198   4.857   2.425   8.229  0.0000  0.0000  0.0000
 8199OM     OM1 8199   6.896   0.160   0.186  0.0000  0.0000  0.0000
 8200OM     OM1 8200   6.667   0.218   0.106  0.0000  0.0000  0.0000
 8201OM     OM1 8201   6.832   0.412   0.158  0.0000  0.0000  0.0000
 8202OM     OM1 8202   3.657   0.167   0.018  0.0000  0.0000  0.0000
 8203OM     OM1 8203   8.168   3.111   8.822  0.0000  0.0000  0.0000
 8204OM     OM1 8204   8.059   3.089   9.063  0.0000  0.0000  0.0000
 8205OM     OM1 8205   4.278   4.228   9.032  0.0000  0.0000  0.0000
 8206OM     OM1 8206   4.043   4.111   9.057  0.0000  0.0000  0.0000
 8207OM     OM1 8207   4.261   3.986   9.121  0.0000  0.0000  0.0000
 8208OM     OM1 8208   2.894   4.926   9.205  0.0000  0.0000  0.0000
 8209OM     OM1 8209   2.996   5.073   9.389  0.0000  0.0000  0.0000
 8210OM     OM1 8210   3.208   8.707   8.450  0.0000  0.0000  0.0000
 8211OM     OM1 8211   5.111   0.565   0.621  0.0000  0.0000  0.0000
 8212OM     OM1 8212   5.715   4.221   8.369  0.0000  0.0000  0.0000
 8213OM     OM1 8213   5.826   4.675   8.395  0.0000  0.0000  0.0000
 8214OM     OM1 8214   3.250   3.007   9.055  0.0000  0.0000  0.0000
 8215OM     OM1 8215   3.509   2.969   8.992  0.0000  0.0000  0.0000
 8216OM     OM1 8216   7.346   8.145   9.105  0.0000  0.0000  0.0000
 8217OM     OM1 8217   7.229   8.304   8.944  0.0000  0.0000  0.0000
 8218OM     OM1 8218   8.659   3.088   8.688  0.0000  0.0000  0.0000
 8219OM     OM1 8219   8.909   3.088   8.596  0.0000  0.0000  0.0000
 8220OM     OM1 8220   7.821   1.573   9.012  0.0000  0.0000  0.0000
 8221OM     OM1 8221   2.231   8.118   8.520  0.0000  0.0000  0.0000
 8222OM     OM1 8222   4.722   7.701   8.439  0.0000  0.0000  0.0000
 8223OM     OM1 8223   0.242   2.652   8.717  0.0000  0.0000  0.0000
 8224OM     OM1 8224   0.001   2.745   8.720  0.0000  0.0000  0.0000
 8225OM     OM1 8225   0.046   2.530   8.855  0.0000  0.0000  0.0000
 8226OM     OM1 8226   4.345   9.226   0.141  0.0000  0.0000  0.0000
 8227OM     OM1 8227   4.424   9.025   9.596  0.0000  0.0000  0.0000
 8228OM     OM1 8228   4.528   9.051   0.230  0.0000  0.0000  0.0000
 8229OM     OM1 8229   4.531   1.760   8.713  0.0000  0.0000  0.0000
 8230OM     OM1 8230   4.377   1.635   8.879  0.0000  0.0000  0.0000
 8231OM     OM1 8231   4.296   1.861   8.761  0.0000  0.0000  0.0000
 8232OM     OM1 8232   4.320   1.639   8.625  0.0000  0.0000  0.0000
 8233OM     OM1 8233   8.820   8.224   1.005  0.0000  0.0000  0.0000
 8234OM     OM1 8234   8.936   8.263   1.236  0.0000  0.0000  0.0000
 8235OM     OM1 8235   1.377   7.991   8.748  0.0000  0.0000  0.0000
 8236OM     OM1 8236   1.157   7.939   8.889  0.0000  0.0000  0.0000
 8237OM     OM1 8237   3.881   1.329   1.436  0.0000  0.0000  0.0000
 8238OM     OM1 8238   8.169   9.002   9.089  0.0000  0.0000  0.0000
 8239OM     OM1 8239   8.343   9.180   9.190  0.0000  0.0000  0.0000
 8240OM     OM1 8240   2.075   0.554   8.945  0.0000  0.0000  0.0000
 8241OM     OM1 8241   1.821   0.759   8.985  0.0000  0.0000  0.0000
 8242OM     OM1 8242   2.047   0.792   8.858  0.0000  0.0000  0.0000
 8243OM     OM1 8243   0.123   7.971   9.158  0.0000  0.0000  0.0000
 8244OM     OM1 8244   9.600   7.994   9.380  0.0000  0.0000  0.0000
 8245OM     OM1 8245   9.469   7.963   9.157  0.0000  0.0000  0.0000
 8246OM     OM1 8246   0.894   6.329   1.281  0.0000  0.0000  0.0000
 8247OM     OM1 8247   8.639   3.255   1.164  0.0000  0.0000  0.0000
 8248OM     OM1 8248   6.778   9.538   0.133  0.0000  0.0000  0.0000
 8249OM     OM1 8249   6.094   6.537   0.774  0.0000  0.0000  0.0000
 8250OM     OM1 8250   6.257   6.732   0.699  0.0000  0.0000  0.0000
 8251OM     OM1 8251   6.101   6.634   0.522  0.0000  0.0000  0.0000
 8252OM     OM1 8252   5.999   6.764   0.734  0.0000  0.0000  0.0000
 8253OM     OM1 8253   9.041   3.270   0.812  0.0000  0.0000  0.0000
 8254OM     OM1 8254   9.210   3.458   0.801  0.0000  0.0000  0.0000
 8255OM     OM1 8255   8.959   3.494   0.719  0.0000  0.0000  0.0000
 8256OM     OM1 8256   0.401   7.093   0.337  0.0000  0.0000  0.0000
 8257OM     OM1 8257   0.624   7.194   0.430  0.0000  0.0000  0.0000
 8258OM     OM1 8258   0.632   7.010   0.242  0.0000  0.0000  0.0000
 8259OM     OM1 8259   4.694   7.732   1.214  0.0000  0.0000  0.0000
 8260OM     OM1 8260   6.006   5.185   0.006  0.0000  0.0000  0.0000
 8261OM     OM1 8261   5.827   5.051   9.480  0.0000  0.0000  0.0000
 8262OM     OM1 8262   1.652   2.940   8.214  0.0000  0.0000  0.0000
 8263OM     OM1 8263   5.541   4.338   0.115  0.0000  0.0000  0.0000
 8264OM     OM1 8264   5.542   4.453   9.483  0.0000  0.0000  0.0000
 8265OM     OM1 8265   0.711   3.120   8.251  0.0000  0.0000  0.0000
 8266OM     OM1 8266   2.541   1.897   0.724  0.0000  0.0000  0.0000
 8267OM     OM1 8267   2.723   1.788   0.882  0.0000  0.0000  0.0000
 8268OM     OM1 8268   2.728   2.047   0.831  0.0000  0.0000  0.0000
 8269OM     OM1 8269   0.432   3.433   0.479  0.0000  0.0000  0.0000
 8270OM     OM1 8270   0.346   3.515   0.240  0.0000  0.0000  0.0000
 8271OM     OM1 8271   0.187   3.443   0.429  0.0000  0.0000  0.0000
 8272OM     OM1 8272   7.902   5.588   0.142  0.0000  0.0000  0.0000
 8273OM     OM1 8273   8.937   7.989   8.836  0.0000  0.0000  0.0000
 8274OM     OM1 8274   2.800   3.071   9.313  0.0000  0.0000  0.0000
 8275OM     OM1 8275   8.177   6.259   1.169  0.0000  0.0000  0.0000
 8276OM     OM1 8276   4.776   9.427   8.344  0.0000  0.0000  0.0000
 8277OM     OM1 8277   9.489   3.925   0.730  0.0000  0.0000  0.0000
 8278OM     OM1 8278   0.270   4.127   0.428  0.0000  0.0000  0.0000
 8279OM     OM1 8279   9.500   3.798   0.502  0.0000  0.0000  0.0000
 8280OM     OM1 8280   0.782   4.485   8.529  0.0000  0.0000  0.0000
 8281OM     OM1 8281   6.398   2.636   9.532  0.0000  0.0000  0.0000
 8282OM     OM1 8282   6.447   2.644   9.280  0.0000  0.0000  0.0000
 8283OM     OM1 8283   6.344   2.878   9.232  0.0000  0.0000  0.0000
 8284OM     OM1 8284   5.004   1.681   9.550  0.0000  0.0000  0.0000
 8285OM     OM1 8285   5.178   1.665   9.356  0.0000  0.0000  0.0000
 8286OM     OM1 8286   5.234   1.813   9.560  0.0000  0.0000  0.0000
 8287OM     OM1 8287   5.047   1.890   9.392  0.0000  0.0000  0.0000
 8288OM     OM1 8288   1.425   8.423   8.415  0.0000  0.0000  0.0000
 8289OM     OM1 8289   1.547   8.616   8.288  0.0000  0.0000  0.0000
 8290OM     OM1 8290   5.753   2.762   8.244  0.0000  0.0000  0.0000
 8291OM     OM1 8291   5.776   2.948   8.420  0.0000  0.0000  0.0000
 8292OM     OM1 8292   6.891   3.354   9.296  0.0000  0.0000  0.0000
 8293OM     OM1 8293   7.039   3.304   9.501  0.0000  0.0000  0.0000
 8294OM     OM1 8294   5.018   9.244   1.343  0.0000  0.0000  0.0000
 8295OM     OM1 8295   1.597   6.365   1.044  0.0000  0.0000  0.0000
 8296OM     OM1 8296   1.638   6.276   1.280  0.0000  0.0000  0.0000
 8297OM     OM1 8297   7.920   1.337   0.044  0.0000  0.0000  0.0000
 8298OM     OM1 8298   3.590   6.507   8.293  0.0000  0.0000  0.0000
 8299OM     OM1 8299   8.393   2.810   1.091  0.0000  0.0000  0.0000
 8300OM     OM1 8300   8.589   2.889   0.948  0.0000  0.0000  0.0000
 8301OM     OM1 8301   8.480   3.060   1.106  0.0000  0.0000  0.0000
 8302OM     OM1 8302   7.174   5.041   8.672  0.0000  0.0000  0.0000
 8303OM     OM1 8303   7.064   5.260   8.729  0.0000  0.0000  0.0000
 8304OM     OM1 8304   7.000   5.150   8.501  0.0000  0.0000  0.0000
 8305OM     OM1 8305   1.781   9.368   0.626  0.0000  0.0000  0.0000
 8306OM     OM1 8306   1.764   9.174   0.453  0.0000  0.0000  0.0000
 8307OM     OM1 8307   3.862   3.975   0.961  0.0000  0.0000  0.0000
 8308OM     OM1 8308   3.970   3.808   1.126  0.0000  0.0000  0.0000
 8309OM     OM1 8309   4.843   5.622   9.471  0.0000  0.0000  0.0000
 8310OM     OM1 8310   4.683   5.460   0.012  0.0000  0.0000  0.0000
 8311OM     OM1 8311   4.875   5.362   9.467  0.0000  0.0000  0.0000
 8312OM     OM1 8312   7.040   2.911   0.968  0.0000  0.0000  0.0000
 8313OM     OM1 8313   6.805   2.800   0.963  0.0000  0.0000  0.0000
 8314OM     OM1 8314   6.846   2.816   0.558  0.0000  0.0000  0.0000
 8315OM     OM1 8315   6.750   2.997   1.120  0.0000  0.0000  0.0000
 8316OM     OM1 8316   0.765   8.749   9.558  0.0000  0.0000  0.0000
 8317OM     OM1 8317   0.819   8.767   0.203  0.0000  0.0000  0.0000
 8318OM     OM1 8318   0.628   8.593   0.119  0.0000  0.0000  0.0000
 8319OM     OM1 8319   0.870   8.544   0.074  0.0000  0.0000  0.0000
 8320OM     OM1 8320   2.813   0.485   9.058  0.0000  0.0000  0.0000
 8321OM     OM1 8321   2.863   4.348   0.968  0.0000  0.0000  0.0000
 8322OM     OM1 8322   2.933   4.168   0.782  0.0000  0.0000  0.0000
 8323OM     OM1 8323   4.923   9.480   0.053  0.0000  0.0000  0.0000
 8324OM     OM1 8324   4.740   9.305   0.035  0.0000  0.0000  0.0000
 8325OM     OM1 8325   7.969   3.906   9.351  0.0000  0.0000  0.0000
 8326OM     OM1 8326   8.099   3.700   9.266  0.0000  0.0000  0.0000
 8327OM     OM1 8327   2.887   5.297   8.468  0.0000  0.0000  0.0000
 8328OM     OM1 8328   3.136   5.373   8.516  0.0000  0.0000  0.0000
 8329OM     OM1 8329   2.985   5.241   8.697  0.0000  0.0000  0.0000
 8330OM     OM1 8330   3.089   5.121   8.501  0.0000  0.0000  0.0000
 8331OM     OM1 8331   2.632   7.639   1.247  0.0000  0.0000  0.0000
 8332OM     OM1 8332   2.668   7.878   1.132  0.0000  0.0000  0.0000
 8333OM     OM1 8333   8.535   1.459   8.912  0.0000  0.0000  0.0000
 8334OM     OM1 8334   8.736   1.620   8.898  0.0000  0.0000  0.0000
 8335OM     OM1 8335   8.580   1.582   8.689  0.0000  0.0000  0.0000
 8336OM     OM1 8336   9.055   3.645   0.530  0.0000  0.0000  0.0000
 8337OM     OM1 8337   9.193   3.841   0.433  0.0000  0.0000  0.0000
 8338OM     OM1 8338   9.127   3.637   0.282  0.0000  0.0000  0.0000
 8339OM     OM1 8339   9.317   3.621   0.458  0.0000  0.0000  0.0000
 8340OM     OM1 8340   7.066   6.676   0.873  0.0000  0.0000  0.0000
 8341OM     OM1 8341   7.149   6.918   0.890  0.0000  0.0000  0.0000
 8342OM     OM1 8342   9.096   9.264   9.494  0.0000  0.0000  0.0000
 8343OM     OM1 8343   5.447   9.344   0.228  0.0000  0.0000  0.0000
 8344OM     OM1 8344   5.576   9.117   0.281  0.0000  0.0000  0.0000
 8345OM     OM1 8345   5.554   9.208   0.038  0.0000  0.0000  0.0000
 8346OM     OM1 8346   5.835   5.470   0.438  0.0000  0.0000  0.0000
 8347OM     OM1 8347   5.804   5.701   0.533  0.0000  0.0000  0.0000
 8348OM     OM1 8348   1.790   8.827   8.892  0.0000  0.0000  0.0000
 8349OM     OM1 8349   1.705   8.769   8.654  0.0000  0.0000  0.0000
 8350OM     OM1 8350   1.811   8.580   8.816  0.0000  0.0000  0.0000
 8351OM     OM1 8351   6.835   1.507   9.218  0.0000  0.0000  0.0000
 8352OM     OM1 8352   7.085   1.471   9.206  0.0000  0.0000  0.0000
 8353OM     OM1 8353   6.963   1.418   9.426  0.0000  0.0000  0.0000
 8354OM     OM1 8354   5.863   2.811   1.270  0.0000  0.0000  0.0000
 8355OM     OM1 8355   5.285   2.374   0.856  0.0000  0.0000  0.0000
 8356OM     OM1 8356   5.289   2.117   0.876  0.0000  0.0000  0.0000
 8357OM     OM1 8357   4.894   0.531   9.023  0.0000  0.0000  0.0000
 8358OM     OM1 8358   5.092   0.373   9.014  0.0000  0.0000  0.0000
 8359OM     OM1 8359   2.554   6.607   1.085  0.0000  0.0000  0.0000
 8360OM     OM1 8360   2.509   6.378   0.970  0.0000  0.0000  0.0000
 8361OM     OM1 8361   2.408   6.427   1.197  0.0000  0.0000  0.0000
 8362OM     OM1 8362   6.601   2.571   8.491  0.0000  0.0000  0.0000
 8363OM     OM1 8363   7.961   3.907   1.283  0.0000  0.0000  0.0000
 8364OM     OM1 8364   7.834   3.977   1.057  0.0000  0.0000  0.0000
 8365OM     OM1 8365   8.008   4.143   1.170  0.0000  0.0000  0.0000
 8366OM     OM1 8366   8.500   8.662   0.433  0.0000  0.0000  0.0000
 8367OM     OM1 8367   8.599   8.798   0.237  0.0000  0.0000  0.0000
 8368OM     OM1 8368   7.543   7.976   1.344  0.0000  0.0000  0.0000
 8369OM     OM1 8369   7.305   8.048   1.283  0.0000  0.0000  0.0000
 8370OM     OM1 8370   7.497   8.112   1.120  0.0000  0.0000  0.0000
 8371OM     OM1 8371   6.250   5.948   8.374  0.0000  0.0000  0.0000
 8372OM     OM1 8372   7.063   9.238   8.396  0.0000  0.0000  0.0000
 8373OM     OM1 8373   3.828   1.133   1.270  0.0000  0.0000  0.0000
 8374OM     OM1 8374   6.491   7.122   0.954  0.0000  0.0000  0.0000
 8375OM     OM1 8375   6.326   7.238   1.116  0.0000  0.0000  0.0000
 8376OM     OM1 8376   9.460   0.078   1.003  0.0000  0.0000  0.0000
 8377OM     OM1 8377   9.125   0.384   0.947  0.0000  0.0000  0.0000
 8378OM     OM1 8378   8.411   2.973   9.200  0.0000  0.0000  0.0000
 8379OM     OM1 8379   3.317   2.695   0.206  0.0000  0.0000  0.0000
 8380OM     OM1 8380   3.279   2.580   9.585  0.0000  0.0000  0.0000
 8381OM     OM1 8381   5.915   5.411   8.474  0.0000  0.0000  0.0000
 8382OM     OM1 8382   1.266   7.746   9.398  0.0000  0.0000  0.0000
 8383OM     OM1 8383   1.270   7.529   9.533  0.0000  0.0000  0.0000
 8384OM     OM1 8384   6.352   1.324   8.692  0.0000  0.0000  0.0000
 8385OM     OM1 8385   7.236   1.259   0.994  0.0000  0.0000  0.0000
 8386OM     OM1 8386   5.745   8.080   0.268  0.0000  0.0000  0.0000
 8387OM     OM1 8387   5.619   8.044   0.054  0.0000  0.0000  0.0000
 8388OM     OM1 8388   5.530   7.926   0.273  0.0000  0.0000  0.0000
 8389OM     OM1 8389   9.543   9.584   8.462  0.0000  0.0000  0.0000
 8390OM     OM1 8390   7.925   9.241   8.782  0.0000  0.0000  0.0000
 8391OM     OM1 8391   8.114   9.154   8.614  0.0000  0.0000  0.0000
 8392OM     OM1 8392   6.173   7.557   8.921  0.0000  0.0000  0.0000
 8393OM     OM1 8393   6.044   7.771   8.842  0.0000  0.0000  0.0000
 8394OM     OM1 8394   8.293   2.557   9.528  0.0000  0.0000  0.0000
 8395OM     OM1 8395   8.453   2.478   0.116  0.0000  0.0000  0.0000
 8396OM     OM1 8396   8.462   2.349   9.489  0.0000  0.0000  0.0000
 8397OM     OM1 8397   6.734   2.467   0.800  0.0000  0.0000  0.0000
 8398OM     OM1 8398   6.764   2.427   1.068  0.0000  0.0000  0.0000
 8399OM     OM1 8399   7.312   6.452   8.938  0.0000  0.0000  0.0000
 8400OM     OM1 8400   7.189   6.668   9.010  0.0000  0.0000  0.0000
 8401OM     OM1 8401   6.684   3.550   8.758  0.0000  0.0000  0.0000
 8402OM     OM1 8402   6.496   3.477   8.600  0.0000  0.0000  0.0000
 8403OM     OM1 8403   0.875   0.460   0.087  0.0000  0.0000  0.0000
 8404OM     OM1 8404   8.340   9.289   1.228  0.0000  0.0000  0.0000
 8405OM     OM1 8405   8.256   9.437   1.423  0.0000  0.0000  0.0000
 8406OM     OM1 8406   4.458   8.070   1.132  0.0000  0.0000  0.0000
 8407OM     OM1 8407   4.284   7.913   1.224  0.0000  0.0000  0.0000
 8408OM     OM1 8408   7.543   6.648   9.523  0.0000  0.0000  0.0000
 8409OM     OM1 8409   7.735   6.818   9.595  0.0000  0.0000  0.0000
 8410OM     OM1 8410   7.771   6.585   9.449  0.0000  0.0000  0.0000
 8411OM     OM1 8411   4.499   3.486   0.343  0.0000  0.0000  0.0000
 8412OM     OM1 8412   0.022   7.897   1.334  0.0000  0.0000  0.0000
 8413OM     OM1 8413   9.431   8.375   1.273  0.0000  0.0000  0.0000
 8414OM     OM1 8414   9.425   8.245   1.051  0.0000  0.0000  0.0000
 8415OM     OM1 8415   1.988   5.523   8.577  0.0000  0.0000  0.0000
 8416OM     OM1 8416   2.214   5.612   8.663  0.0000  0.0000  0.0000
 8417OM     OM1 8417   2.139   5.357   8.701  0.0000  0.0000  0.0000
 8418OM     OM1 8418   1.300   7.037   8.583  0.0000  0.0000  0.0000
 8419OM     OM1 8419   1.139   6.904   8.747  0.0000  0.0000  0.0000
 8420OM     OM1 8420   1.054   7.116   8.611  0.0000  0.0000  0.0000
 8421OM     OM1 8421   4.285   9.370   0.455  0.0000  0.0000  0.0000
 8422OM     OM1 8422   3.888   0.104   0.465  0.0000  0.0000  0.0000
 8423OM     OM1 8423   8.734   9.015   0.243  0.0000  0.0000  0.0000
 8424OM     OM1 8424   8.760   8.844   0.042  0.0000  0.0000  0.0000
 8425OM     OM1 8425   8.535   8.970   0.069  0.0000  0.0000  0.0000
 8426OM     OM1 8426   1.396   3.943   1.248  0.0000  0.0000  0.0000
 8427OM     OM1 8427   1.374   4.155   1.099  0.0000  0.0000  0.0000
 8428OM     OM1 8428   1.296   3.929   0.997  0.0000  0.0000  0.0000
 8429OM     OM1 8429   5.302   9.051   8.448  0.0000  0.0000  0.0000
 8430OM     OM1 8430   5.202   9.378   8.584  0.0000  0.0000  0.0000
 8431OM     OM1 8431   5.411   9.281   8.451  0.0000  0.0000  0.0000
 8432OM     OM1 8432   1.886   7.201   0.774  0.0000  0.0000  0.0000
 8433OM     OM1 8433   1.938   7.421   0.630  0.0000  0.0000  0.0000
 8434OM     OM1 8434   2.817   3.210   0.350  0.0000  0.0000  0.0000
 8435OM     OM1 8435   2.884   2.973   0.248  0.0000  0.0000  0.0000
 8436OM     OM1 8436   3.006   3.118   0.480  0.0000  0.0000  0.0000
 8437OM     OM1 8437   7.291   8.045   0.834  0.0000  0.0000  0.0000
 8438OM     OM1 8438   7.168   8.266   1.290  0.0000  0.0000  0.0000
 8439OM     OM1 8439   7.220   8.145   1.066  0.0000  0.0000  0.0000
 8440OM     OM1 8440   1.242   9.002   0.752  0.0000  0.0000  0.0000
 8441OM     OM1 8441   1.439   8.839   0.750  0.0000  0.0000  0.0000
 8442OM     OM1 8442   6.170   8.171   9.312  0.0000  0.0000  0.0000
 8443OM     OM1 8443   1.210   3.965   0.217  0.0000  0.0000  0.0000
 8444OM     OM1 8444   1.938   8.973   1.296  0.0000  0.0000  0.0000
 8445OM     OM1 8445   5.789   7.656   0.364  0.0000  0.0000  0.0000
 8446OM     OM1 8446   5.946   7.499   0.229  0.0000  0.0000  0.0000
 8447OM     OM1 8447   6.041   7.722   0.331  0.0000  0.0000  0.0000
 8448OM     OM1 8448   8.546   9.044   0.687  0.0000  0.0000  0.0000
 8449OM     OM1 8449   8.359   9.244   0.743  0.0000  0.0000  0.0000
 8450OM     OM1 8450   8.366   9.515   0.777  0.0000  0.0000  0.0000
 8451OM     OM1 8451   5.719   2.227   9.019  0.0000  0.0000  0.0000
 8452OM     OM1 8452   5.964   2.305   9.059  0.0000  0.0000  0.0000
 8453OM     OM1 8453   5.785   2.394   9.216  0.0000  0.0000  0.0000
 8454OM     OM1 8454   5.773   2.395   8.833  0.0000  0.0000  0.0000
 8455OM     OM1 8455   3.445   6.928   9.062  0.0000  0.0000  0.0000
 8456OM     OM1 8456   5.189   6.782   8.830  0.0000  0.0000  0.0000
 8457OM     OM1 8457   0.687   0.665   0.411  0.0000  0.0000  0.0000
 8458OM     OM1 8458   0.562   0.656   0.632  0.0000  0.0000  0.0000
 8459OM     OM1 8459   3.269   0.345   1.259  0.0000  0.0000  0.0000
 8460OM     OM1 8460   2.578   9.520   0.793  0.0000  0.0000  0.0000
 8461OM     OM1 8461   2.577   9.268   0.690  0.0000  0.0000  0.0000
 8462OM     OM1 8462   3.928   0.962   9.350  0.0000  0.0000  0.0000
 8463OM     OM1 8463   3.871   1.199   9.428  0.0000  0.0000  0.0000
 8464OM     OM1 8464   4.104   1.069   9.488  0.0000  0.0000  0.0000
 8465OM     OM1 8465   9.315   4.540   9.286  0.0000  0.0000  0.0000
 8466OM     OM1 8466   9.351   4.281   9.276  0.0000  0.0000  0.0000
 8467OM     OM1 8467   7.697   8.107   0.649  0.0000  0.0000  0.0000
 8468OM     OM1 8468   1.917   7.676   0.679  0.0000  0.0000  0.0000
 8469OM     OM1 8469   1.788   7.568   0.872  0.0000  0.0000  0.0000
 8470OM     OM1 8470   1.782   7.820   0.875  0.0000  0.0000  0.0000
 8471OM     OM1 8471   2.013   7.703   0.918  0.0000  0.0000  0.0000
 8472OM     OM1 8472   4.719   4.584   8.778  0.0000  0.0000  0.0000
 8473OM     OM1 8473   2.483   9.091   8.446  0.0000  0.0000  0.0000
 8474OM     OM1 8474   2.608   8.896   8.526  0.0000  0.0000  0.0000
 8475OM     OM1 8475   3.636   3.300   8.471  0.0000  0.0000  0.0000
 8476OM     OM1 8476   6.715   1.663   0.209  0.0000  0.0000  0.0000
 8477OM     OM1 8477   6.704   1.669   0.464  0.0000  0.0000  0.0000
 8478OM     OM1 8478   0.957   2.126   9.227  0.0000  0.0000  0.0000
 8479OM     OM1 8479   1.012   1.946   9.040  0.0000  0.0000  0.0000
 8480OM     OM1 8480   0.766   2.004   9.088  0.0000  0.0000  0.0000
 8481OM     OM1 8481   7.515   0.139   0.931  0.0000  0.0000  0.0000
 8482OM     OM1 8482   7.468   0.350   1.081  0.0000  0.0000  0.0000
 8483OM     OM1 8483   5.448   9.581   1.087  0.0000  0.0000  0.0000
 8484OM     OM1 8484   1.252   6.254   9.162  0.0000  0.0000  0.0000
 8485OM     OM1 8485   1.472   6.391   9.188  0.0000  0.0000  0.0000
 8486OM     OM1 8486   6.499   7.888   0.356  0.0000  0.0000  0.0000
 8487OM     OM1 8487   6.251   7.867   0.286  0.0000  0.0000  0.0000
 8488OM     OM1 8488   6.436   7.731   0.161  0.0000  0.0000  0.0000
 8489OM     OM1 8489   3.886   8.498   1.055  0.0000  0.0000  0.0000
 8490OM     OM1 8490   4.143   8.523   0.984  0.0000  0.0000  0.0000
 8491OM     OM1 8491   4.021   8.311   0.920  0.0000  0.0000  0.0000
 8492OM     OM1 8492   3.726   7.545   8.511  0.0000  0.0000  0.0000
 8493OM     OM1 8493   7.004   0.660   8.351  0.0000  0.0000  0.0000
 8494OM     OM1 8494   7.268   0.624   8.304  0.0000  0.0000  0.0000
 8495OM     OM1 8495   0.366   3.734   0.088  0.0000  0.0000  0.0000
 8496OM     OM1 8496   0.613   3.682   0.103  0.0000  0.0000  0.0000
 8497OM     OM1 8497   7.345   7.671   1.237  0.0000  0.0000  0.0000
 8498OM     OM1 8498   7.244   7.186   1.173  0.0000  0.0000  0.0000
 8499OM     OM1 8499   7.142   7.660   1.083  0.0000  0.0000  0.0000
 8500OM     OM1 8500   7.292   7.451   1.107  0.0000  0.0000  0.0000
 8501OM     OM1 8501   2.518   5.174   1.269  0.0000  0.0000  0.0000
 8502OM     OM1 8502   4.211   7.288   9.358  0.0000  0.0000  0.0000
 8503OM     OM1 8503   4.369   7.492   9.338  0.0000  0.0000  0.0000
 8504OM     OM1 8504   4.462   7.252   9.361  0.0000  0.0000  0.0000
 8505OM     OM1 8505   3.317   0.880   8.863  0.0000  0.0000  0.0000
 8506OM     OM1 8506   3.163   1.086   8.868  0.0000  0.0000  0.0000
 8507OM     OM1 8507   0.644   7.229   0.691  0.0000  0.0000  0.0000
 8508OM     OM1 8508   8.655   6.005   0.633  0.0000  0.0000  0.0000
 8509OM     OM1 8509   8.706   5.965   0.890  0.0000  0.0000  0.0000
 8510OM     OM1 8510   8.897   5.976   0.715  0.0000  0.0000  0.0000
 8511OM     OM1 8511   8.961   7.016   1.220  0.0000  0.0000  0.0000
 8512OM     OM1 8512   9.183   7.124   1.144  0.0000  0.0000  0.0000
 8513OM     OM1 8513   2.737   8.424   9.334  0.0000  0.0000  0.0000
 8514OM     OM1 8514   1.236   8.374   0.325  0.0000  0.0000  0.0000
 8515OM     OM1 8515   1.303   8.622   0.288  0.0000  0.0000  0.0000
 8516OM     OM1 8516   1.118   8.511   0.137  0.0000  0.0000  0.0000
 8517OM     OM1 8517   9.469   1.622   9.369  0.0000  0.0000  0.0000
 8518OM     OM1 8518   1.897   2.495   1.161  0.0000  0.0000  0.0000
 8519OM     OM1 8519   5.528   7.669   0.345  0.0000  0.0000  0.0000
 8520OM     OM1 8520   8.267   5.318   8.125  0.0000  0.0000  0.0000
 8521OM     OM1 8521   0.462   2.980   8.877  0.0000  0.0000  0.0000
 8522OM     OM1 8522   0.256   3.116   8.979  0.0000  0.0000  0.0000
 8523OM     OM1 8523   6.183   1.513   8.657  0.0000  0.0000  0.0000
 8524OM     OM1 8524   6.082   1.743   8.740  0.0000  0.0000  0.0000
 8525OM     OM1 8525   6.018   0.618   0.434  0.0000  0.0000  0.0000
 8526OM     OM1 8526   6.259   0.510   0.479  0.0000  0.0000  0.0000
 8527OM     OM1 8527   6.125   0.606   0.679  0.0000  0.0000  0.0000
 8528OM     OM1 8528   6.847   1.501   0.044  0.0000  0.0000  0.0000
 8529OM     OM1 8529   6.942   1.262   0.037  0.0000  0.0000  0.0000
 8530OM     OM1 8530   8.984   5.716   8.709  0.0000  0.0000  0.0000
 8531OM     OM1 8531   9.230   5.645   8.736  0.0000  0.0000  0.0000
 8532OM     OM1 8532   2.984   2.284   9.404  0.0000  0.0000  0.0000
 8533OM     OM1 8533   2.810   2.231   9.596  0.0000  0.0000  0.0000
 8534OM     OM1 8534   3.017   2.076   9.572  0.0000  0.0000  0.0000
 8535OM     OM1 8535   3.732   8.749   8.748  0.0000  0.0000  0.0000
 8536OM     OM1 8536   3.555   8.554   8.740  0.0000  0.0000  0.0000
 8537OM     OM1 8537   3.616   8.660   8.966  0.0000  0.0000  0.0000
 8538OM     OM1 8538   3.025   1.038   9.092  0.0000  0.0000  0.0000
 8539OM     OM1 8539   2.906   1.018   8.863  0.0000  0.0000  0.0000
 8540OM     OM1 8540   0.634   7.352   8.968  0.0000  0.0000  0.0000
 8541OM     OM1 8541   0.503   7.150   9.082  0.0000  0.0000  0.0000
 8542OM     OM1 8542   0.681   7.101   8.905  0.0000  0.0000  0.0000
 8543OM     OM1 8543   6.162   6.822   8.843  0.0000  0.0000  0.0000
 8544OM     OM1 8544   6.247   7.049   8.940  0.0000  0.0000  0.0000
 8545OM     OM1 8545   6.104   7.040   8.721  0.0000  0.0000  0.0000
 8546OM     OM1 8546   5.270   9.545   0.203  0.0000  0.0000  0.0000
 8547OM     OM1 8547   8.488   9.424   8.841  0.0000  0.0000  0.0000
 8548OM     OM1 8548   8.359   9.407   9.061  0.0000  0.0000  0.0000
 8549OM     OM1 8549   8.500   0.021   9.012  0.0000  0.0000  0.0000
 8550OM     OM1 8550   0.954   4.561   1.282  0.0000  0.0000  0.0000
 8551OM     OM1 8551   2.651   2.416   9.217  0.0000  0.0000  0.0000
 8552OM     OM1 8552   2.436   2.354   9.076  0.0000  0.0000  0.0000
 8553OM     OM1 8553   2.592   2.157   9.151  0.0000  0.0000  0.0000
 8554OM     OM1 8554   2.363   3.616   1.056  0.0000  0.0000  0.0000
 8555OM     OM1 8555   2.194   3.440   0.974  0.0000  0.0000  0.0000
 8556OM     OM1 8556   3.741   7.947   9.054  0.0000  0.0000  0.0000
 8557OM     OM1 8557   3.873   8.164   9.093  0.0000  0.0000  0.0000
 8558OM     OM1 8558   5.363   2.621   0.817  0.0000  0.0000  0.0000
 8559OM     OM1 8559   5.574   2.772   0.870  0.0000  0.0000  0.0000
 8560OM     OM1 8560   9.288   3.711   0.088  0.0000  0.0000  0.0000
 8561OM     OM1 8561   9.051   3.810   0.109  0.0000  0.0000  0.0000
 8562OM     OM1 8562   0.180   1.586   1.162  0.0000  0.0000  0.0000
 8563OM     OM1 8563   9.205   8.199   0.908  0.0000  0.0000  0.0000
 8564OM     OM1 8564   6.544   2.375   1.164  0.0000  0.0000  0.0000
 8565OM     OM1 8565   6.460   2.583   1.018  0.0000  0.0000  0.0000
 8566OM     OM1 8566   3.308   4.736   0.490  0.0000  0.0000  0.0000
 8567OM     OM1 8567   5.593   5.172   9.475  0.0000  0.0000  0.0000
 8568OM     OM1 8568   7.145   3.413   8.550  0.0000  0.0000  0.0000
 8569OM     OM1 8569   7.170   3.244   8.360  0.0000  0.0000  0.0000
 8570OM     OM1 8570   3.162   6.376   1.034  0.0000  0.0000  0.0000
 8571OM     OM1 8571   3.042   6.153   1.069  0.0000  0.0000  0.0000
 8572OM     OM1 8572   3.298   6.172   0.989  0.0000  0.0000  0.0000
 8573OM     OM1 8573   6.838   8.887   1.195  0.0000  0.0000  0.0000
 8574OM     OM1 8574   6.651   9.000   1.051  0.0000  0.0000  0.0000
 8575OM     OM1 8575   0.597   8.330   0.073  0.0000  0.0000  0.0000
 8576OM     OM1 8576   4.956   7.469   0.160  0.0000  0.0000  0.0000
 8577OM     OM1 8577   4.838   7.344   9.556  0.0000  0.0000  0.0000
 8578OM     OM1 8578   4.844   7.602   9.575  0.0000  0.0000  0.0000
 8579OM     OM1 8579   4.698   7.475   0.142  0.0000  0.0000  0.0000
 8580OM     OM1 8580   4.014   5.501   9.049  0.0000  0.0000  0.0000
 8581OM     OM1 8581   3.995   5.731   9.154  0.0000  0.0000  0.0000
 8582OM     OM1 8582   8.200   5.797   0.951  0.0000  0.0000  0.0000
 8583OM     OM1 8583   6.608   9.008   0.786  0.0000  0.0000  0.0000
 8584OM     OM1 8584   6.493   8.847   0.621  0.0000  0.0000  0.0000
 8585OM     OM1 8585   6.761   8.893   0.614  0.0000  0.0000  0.0000
 8586OM     OM1 8586   4.340   0.921   9.087  0.0000  0.0000  0.0000
 8587OM     OM1 8587   4.123   0.849   9.199  0.0000  0.0000  0.0000
 8588OM     OM1 8588   6.071   5.233   1.143  0.0000  0.0000  0.0000
 8589OM     OM1 8589   6.031   5.052   0.966  0.0000  0.0000  0.0000
 8590OM     OM1 8590   4.680   3.845   8.794  0.0000  0.0000  0.0000
 8591OM     OM1 8591   4.500   3.660   8.796  0.0000  0.0000  0.0000
 8592OM     OM1 8592   4.733   3.608   8.693  0.0000  0.0000  0.0000
 8593OM     OM1 8593   9.350   1.408   0.707  0.0000  0.0000  0.0000
 8594OM     OM1 8594   0.016   1.719   0.456  0.0000  0.0000  0.0000
 8595OM     OM1 8595   9.498   1.725   0.673  0.0000  0.0000  0.0000
 8596OM     OM1 8596   8.406   2.444   8.653  0.0000  0.0000  0.0000
 8597OM     OM1 8597   8.641   2.450   8.774  0.0000  0.0000  0.0000
 8598OM     OM1 8598   8.607   2.290   8.579  0.0000  0.0000  0.0000
 8599OM     OM1 8599   0.648   6.552   0.929  0.0000  0.0000  0.0000
 8600OM     OM1 8600   0.540   6.782   0.859  0.0000  0.0000  0.0000
 8601OM     OM1 8601   0.564   6.719   1.113  0.0000  0.0000  0.0000
 8602OM     OM1 8602   0.156   8.152   9.518  0.0000  0.0000  0.0000
 8603OM     OM1 8603   9.542   8.084   0.023  0.0000  0.0000  0.0000
 8604OM     OM1 8604   2.468   4.665   9.222  0.0000  0.0000  0.0000
 8605OM     OM1 8605   8.816   2.521   0.393  0.0000  0.0000  0.0000
 8606OM     OM1 8606   8.948   2.492   0.617  0.0000  0.0000  0.0000
 8607OM     OM1 8607   8.781   2.306   0.559  0.0000  0.0000  0.0000
 8608OM     OM1 8608   8.700   2.553   0.612  0.0000  0.0000  0.0000
 8609OM     OM1 8609   1.844   0.932   8.780  0.0000  0.0000  0.0000
 8610OM     OM1 8610   8.603   0.168   0.210  0.0000  0.0000  0.0000
 8611OM     OM1 8611   8.381   0.044   0.116  0.0000  0.0000  0.0000
 8612OM     OM1 8612   8.209   0.043   0.354  0.0000  0.0000  0.0000
 8613OM     OM1 8613   7.893   9.454   0.030  0.0000  0.0000  0.0000
 8614OM     OM1 8614   8.147   9.500   0.069  0.0000  0.0000  0.0000
 8615OM     OM1 8615   1.460   4.886   9.572  0.0000  0.0000  0.0000
 8616OM     OM1 8616   1.544   5.103   0.082  0.0000  0.0000  0.0000
 8617OM     OM1 8617   1.780   5.048   1.358  0.0000  0.0000  0.0000
 8618OM     OM1 8618   1.943   5.228   1.274  0.0000  0.0000  0.0000
 8619OM     OM1 8619   1.965   3.482   1.109  0.0000  0.0000  0.0000
 8620OM     OM1 8620   2.016   3.255   0.984  0.0000  0.0000  0.0000
 8621OM     OM1 8621   9.273   3.262   8.327  0.0000  0.0000  0.0000
 8622OM     OM1 8622   5.547   4.222   8.905  0.0000  0.0000  0.0000
 8623OM     OM1 8623   5.861   4.273   9.068  0.0000  0.0000  0.0000
 8624OM     OM1 8624   5.762   4.464   9.224  0.0000  0.0000  0.0000
 8625OM     OM1 8625   0.539   4.959   9.499  0.0000  0.0000  0.0000
 8626OM     OM1 8626   6.491   1.637   9.445  0.0000  0.0000  0.0000
 8627OM     OM1 8627   6.578   1.886   9.433  0.0000  0.0000  0.0000
 8628OM     OM1 8628   6.714   1.698   9.558  0.0000  0.0000  0.0000
 8629OM     OM1 8629   6.701   1.708   9.298  0.0000  0.0000  0.0000
 8630OM     OM1 8630   7.196   9.276   1.071  0.0000  0.0000  0.0000
 8631OM     OM1 8631   0.162   6.245   8.982  0.0000  0.0000  0.0000
 8632OM     OM1 8632   0.313   6.199   9.185  0.0000  0.0000  0.0000
 8633OM     OM1 8633   0.286   6.024   8.992  0.0000  0.0000  0.0000
 8634OM     OM1 8634   3.594   1.888   1.348  0.0000  0.0000  0.0000
 8635OM     OM1 8635   3.443   2.085   1.402  0.0000  0.0000  0.0000
 8636OM     OM1 8636   3.561   2.087   1.170  0.0000  0.0000  0.0000
 8637OM     OM1 8637   8.559   7.295   8.723  0.0000  0.0000  0.0000
 8638OM     OM1 8638   8.514   7.200   8.956  0.0000  0.0000  0.0000
 8639OM     OM1 8639   8.314   7.256   8.795  0.0000  0.0000  0.0000
 8640OM     OM1 8640   2.283   8.156   9.443  0.0000  0.0000  0.0000
 8641OM     OM1 8641   5.640   5.628   9.118  0.0000  0.0000  0.0000
 8642OM     OM1 8642   5.719   5.530   9.343  0.0000  0.0000  0.0000
 8643OM     OM1 8643   4.282   1.641   9.349  0.0000  0.0000  0.0000
 8644OM     OM1 8644   4.322   1.475   9.551  0.0000  0.0000  0.0000
 8645OM     OM1 8645   2.310   1.305   1.003  0.0000  0.0000  0.0000
 8646OM     OM1 8646   2.492   1.201   0.860  0.0000  0.0000  0.0000
 8647OM     OM1 8647   0.705   1.365   8.381  0.0000  0.0000  0.0000
 8648OM     OM1 8648   0.734   1.123   8.332  0.0000  0.0000  0.0000
 8649OM     OM1 8649   0.050   5.897   0.334  0.0000  0.0000  0.0000
 8650OM     OM1 8650   0.035   5.888   0.074  0.0000  0.0000  0.0000
 8651OM     OM1 8651   7.257   2.592   0.372  0.0000  0.0000  0.0000
 8652OM     OM1 8652   5.891   8.290   0.226  0.0000  0.0000  0.0000
 8653OM     OM1 8653   1.597   8.092   0.659  0.0000  0.0000  0.0000
 8654OM     OM1 8654   1.668   8.264   0.485  0.0000  0.0000  0.0000
 8655OM     OM1 8655   4.359   3.857   0.627  0.0000  0.0000  0.0000
 8656OM     OM1 8656   4.424   3.708   0.835  0.0000  0.0000  0.0000
 8657OM     OM1 8657   7.800   2.599   8.389  0.0000  0.0000  0.0000
 8658OM     OM1 8658   7.856   2.852   8.316  0.0000  0.0000  0.0000
 8659OM     OM1 8659   4.375   2.103   8.711  0.0000  0.0000  0.0000
 8660OM     OM1 8660   1.027   3.135   9.083  0.0000  0.0000  0.0000
 8661OM     OM1 8661   1.044   3.221   9.337  0.0000  0.0000  0.0000
 8662OM     OM1 8662   1.773   5.395   8.668  0.0000  0.0000  0.0000
 8663OM     OM1 8663   1.542   5.384   8.783  0.0000  0.0000  0.0000
 8664OM     OM1 8664   1.605   5.181   8.643  0.0000  0.0000  0.0000
 8665OM     OM1 8665   1.551   5.398   8.521  0.0000  0.0000  0.0000
 8666OM     OM1 8666   5.543   3.281   9.024  0.0000  0.0000  0.0000
 8667OM     OM1 8667   5.295   3.188   9.128  0.0000  0.0000  0.0000
 8668OM     OM1 8668   5.349   3.194   8.666  0.0000  0.0000  0.0000
 8669OM     OM1 8669   2.921   0.217   9.431  0.0000  0.0000  0.0000
 8670OM     OM1 8670   9.424   4.643   9.001  0.0000  0.0000  0.0000
 8671OM     OM1 8671   9.481   4.734   8.768  0.0000  0.0000  0.0000
 8672OM     OM1 8672   5.019   2.926   8.469  0.0000  0.0000  0.0000
 8673OM     OM1 8673   1.634   2.277   8.747  0.0000  0.0000  0.0000
 8674OM     OM1 8674   1.830   2.409   8.846  0.0000  0.0000  0.0000
 8675OM     OM1 8675   3.241   3.688   0.741  0.0000  0.0000  0.0000
 8676OM     OM1 8676   3.050   3.663   0.571  0.0000  0.0000  0.0000
 8677OM     OM1 8677   2.965   3.714   0.801  0.0000  0.0000  0.0000
 8678OM     OM1 8678   0.250   1.697   0.336  0.0000  0.0000  0.0000
 8679OM     OM1 8679   5.298   6.833   0.584  0.0000  0.0000  0.0000
 8680OM     OM1 8680   5.087   6.966   0.475  0.0000  0.0000  0.0000
 8681OM     OM1 8681   1.292   2.806   9.404  0.0000  0.0000  0.0000
 8682OM     OM1 8682   1.263   2.605   9.556  0.0000  0.0000  0.0000
 8683OM     OM1 8683   1.236   2.578   9.305  0.0000  0.0000  0.0000
 8684OM     OM1 8684   1.046   2.705   9.418  0.0000  0.0000  0.0000
 8685OM     OM1 8685   0.151   2.150   0.125  0.0000  0.0000  0.0000
 8686OM     OM1 8686   1.618   7.900   8.744  0.0000  0.0000  0.0000
 8687OM     OM1 8687   1.787   7.974   8.931  0.0000  0.0000  0.0000
 8688OM     OM1 8688   3.211   6.670   0.126  0.0000  0.0000  0.0000
 8689OM     OM1 8689   3.255   6.427   0.036  0.0000  0.0000  0.0000
 8690OM     OM1 8690   5.654   8.032   9.403  0.0000  0.0000  0.0000
 8691OM     OM1 8691   9.059   2.675   0.480  0.0000  0.0000  0.0000
 8692OM     OM1 8692   9.016   2.913   0.418  0.0000  0.0000  0.0000
 8693OM     OM1 8693   8.920   2.716   0.268  0.0000  0.0000  0.0000
 8694OM     OM1 8694   9.167   2.777   0.253  0.0000  0.0000  0.0000
 8695OM     OM1 8695   5.043   0.639   0.385  0.0000  0.0000  0.0000
 8696OM     OM1 8696   8.132   7.887   8.813  0.0000  0.0000  0.0000
 8697OM     OM1 8697   0.622   5.648   8.775  0.0000  0.0000  0.0000
 8698OM     OM1 8698   8.612   1.316   0.406  0.0000  0.0000  0.0000
 8699OM     OM1 8699   8.772   1.363   0.214  0.0000  0.0000  0.0000
 8700OM     OM1 8700   7.302   9.078   1.202  0.0000  0.0000  0.0000
 8701OM     OM1 8701   7.107   8.911   1.218  0.0000  0.0000  0.0000
 8702OM     OM1 8702   7.530   7.427   0.530  0.0000  0.0000  0.0000
 8703OM     OM1 8703   7.342   7.610   0.483  0.0000  0.0000  0.0000
 8704OM     OM1 8704   5.966   1.109   0.312  0.0000  0.0000  0.0000
 8705OM     OM1 8705   5.931   1.351   0.226  0.0000  0.0000  0.0000
 8706OM     OM1 8706   4.714   7.269   9.330  0.0000  0.0000  0.0000
 8707OM     OM1 8707   7.935   6.455   8.484  0.0000  0.0000  0.0000
 8708OM     OM1 8708   7.919   6.679   8.602  0.0000  0.0000  0.0000
 8709OM     OM1 8709   7.866   6.673   8.343  0.0000  0.0000  0.0000
 8710OM     OM1 8710   9.516   0.867   8.970  0.0000  0.0000  0.0000
 8711OM     OM1 8711   0.052   0.709   8.822  0.0000  0.0000  0.0000
 8712OM     OM1 8712   6.388   3.998   0.239  0.0000  0.0000  0.0000
 8713OM     OM1 8713   0.636   4.642   1.160  0.0000  0.0000  0.0000
 8714OM     OM1 8714   0.501   4.836   1.046  0.0000  0.0000  0.0000
 8715OM     OM1 8715   2.241   4.123   1.073  0.0000  0.0000  0.0000
 8716OM     OM1 8716   5.129   8.500   9.212  0.0000  0.0000  0.0000
 8717OM     OM1 8717   4.871   8.467   9.247  0.0000  0.0000  0.0000
 8718OM     OM1 8718   4.972   8.696   9.148  0.0000  0.0000  0.0000
 8719OM     OM1 8719   3.745   4.242   0.124  0.0000  0.0000  0.0000
 8720OM     OM1 8720   3.741   4.500   0.123  0.0000  0.0000  0.0000
 8721OM     OM1 8721   1.341   6.388   0.555  0.0000  0.0000  0.0000
 8722OM     OM1 8722   1.308   6.187   0.409  0.0000  0.0000  0.0000
 8723OM     OM1 8723   8.920   7.484   0.965  0.0000  0.0000  0.0000
 8724OM     OM1 8724   8.807   7.706   0.912  0.0000  0.0000  0.0000
 8725OM     OM1 8725   8.909   7.676   1.150  0.0000  0.0000  0.0000
 8726OM     OM1 8726   4.642   9.102   9.504  0.0000  0.0000  0.0000
 8727OM     OM1 8727   4.473   8.962   9.348  0.0000  0.0000  0.0000
 8728OM     OM1 8728   9.285   4.281   0.437  0.0000  0.0000  0.0000
 8729OM     OM1 8729   9.502   4.175   0.348  0.0000  0.0000  0.0000
 8730OM     OM1 8730   9.330   4.051   0.519  0.0000  0.0000  0.0000
 8731OM     OM1 8731   0.435   8.696   8.446  0.0000  0.0000  0.0000
 8732OM     OM1 8732   0.355   8.463   8.528  0.0000  0.0000  0.0000
 8733OM     OM1 8733   5.165   2.116   9.327  0.0000  0.0000  0.0000
 8734OM     OM1 8734   7.804   8.930   0.666  0.0000  0.0000  0.0000
 8735OM     OM1 8735   7.773   9.184   0.967  0.0000  0.0000  0.0000
 8736OM     OM1 8736   4.732   7.645   0.337  0.0000  0.0000  0.0000
 8737OM     OM1 8737   6.208   9.197   9.267  0.0000  0.0000  0.0000
 8738OM     OM1 8738   6.477   3.442   0.543  0.0000  0.0000  0.0000
 8739OM     OM1 8739   6.678   3.286   0.594  0.0000  0.0000  0.0000
 8740OM     OM1 8740   6.550   3.417   0.787  0.0000  0.0000  0.0000
 8741OM     OM1 8741   8.282   5.156   0.602  0.0000  0.0000  0.0000
 8742OM     OM1 8742   2.399   3.693   9.469  0.0000  0.0000  0.0000
 8743OM     OM1 8743   2.590   3.763   9.303  0.0000  0.0000  0.0000
 8744OM     OM1 8744   1.898   5.586   0.365  0.0000  0.0000  0.0000
 8745OM     OM1 8745   1.978   5.410   0.541  0.0000  0.0000  0.0000
 8746OM     OM1 8746   1.049   6.776   8.964  0.0000  0.0000  0.0000
 8747OM     OM1 8747   0.803   1.150   0.527  0.0000  0.0000  0.0000
 8748OM     OM1 8748   0.572   1.073   0.448  0.0000  0.0000  0.0000
 8749OM     OM1 8749   0.642   1.073   0.712  0.0000  0.0000  0.0000
 8750OM     OM1 8750   1.945   2.724   9.421  0.0000  0.0000  0.0000
 8751OM     OM1 8751   0.688   1.114   0.215  0.0000  0.0000  0.0000
 8752OM     OM1 8752   0.139   9.145   9.489  0.0000  0.0000  0.0000
 8753OM     OM1 8753   9.508   9.179   9.365  0.0000  0.0000  0.0000
 8754OM     OM1 8754   3.506   4.407   9.280  0.0000  0.0000  0.0000
 8755OM     OM1 8755   3.615   4.510   9.068  0.0000  0.0000  0.0000
 8756OM     OM1 8756   3.644   4.632   9.300  0.0000  0.0000  0.0000
 8757OM     OM1 8757   0.266   8.988   0.040  0.0000  0.0000  0.0000
 8758OM     OM1 8758   2.715   0.364   9.485  0.0000  0.0000  0.0000
 8759OM     OM1 8759   2.741   0.631   9.517  0.0000  0.0000  0.0000
 8760OM     OM1 8760   3.452   5.550   8.202  0.0000  0.0000  0.0000
 8761OM     OM1 8761   3.324   5.366   8.324  0.0000  0.0000  0.0000
 8762OM     OM1 8762   2.454   4.128   0.621  0.0000  0.0000  0.0000
 8763OM     OM1 8763   5.891   7.184   8.708  0.0000  0.0000  0.0000
 8764OM     OM1 8764   0.930   6.248   0.670  0.0000  0.0000  0.0000
 8765OM     OM1 8765   1.188   6.165   0.719  0.0000  0.0000  0.0000
 8766OM     OM1 8766   1.293   2.541   0.566  0.0000  0.0000  0.0000
 8767OM     OM1 8767   1.295   2.281   0.590  0.0000  0.0000  0.0000
 8768OM     OM1 8768   0.364   8.629   9.039  0.0000  0.0000  0.0000
 8769OM     OM1 8769   0.591   8.688   9.162  0.0000  0.0000  0.0000
 8770OM     OM1 8770   5.018   5.789   9.561  0.0000  0.0000  0.0000
 8771OM     OM1 8771   5.031   5.754   0.223  0.0000  0.0000  0.0000
 8772OM     OM1 8772   0.746   6.127   0.505  0.0000  0.0000  0.0000
 8773OM     OM1 8773   4.661   7.280   0.928  0.0000  0.0000  0.0000
 8774OM     OM1 8774   4.439   7.148   0.870  0.0000  0.0000  0.0000
 8775OM     OM1 8775   8.532   6.365   0.095  0.0000  0.0000  0.0000
 8776OM     OM1 8776   8.445   6.119   0.034  0.0000  0.0000  0.0000
 8777OM     OM1 8777   2.418   5.007   1.086  0.0000  0.0000  0.0000
 8778OM     OM1 8778   7.929   3.382   0.802  0.0000  0.0000  0.0000
 8779OM     OM1 8779   7.955   3.493   0.571  0.0000  0.0000  0.0000
 8780OM     OM1 8780   8.875   3.993   0.756  0.0000  0.0000  0.0000
 8781OM     OM1 8781   9.069   4.017   0.576  0.0000  0.0000  0.0000
 8782OM     OM1 8782   8.838   3.915   0.502  0.0000  0.0000  0.0000
 8783OM     OM1 8783   1.714   9.421   9.293  0.0000  0.0000  0.0000
 8784OM     OM1 8784   1.909   9.347   9.447  0.0000  0.0000  0.0000
 8785OM     OM1 8785   4.110   3.101   1.136  0.0000  0.0000  0.0000
 8786OM     OM1 8786   3.756   9.263   9.340  0.0000  0.0000  0.0000
 8787OM     OM1 8787   3.901   9.177   9.533  0.0000  0.0000  0.0000
 8788OM     OM1 8788   1.686   2.485   9.053  0.0000  0.0000  0.0000
 8789OM     OM1 8789   1.931   2.573   9.020  0.0000  0.0000  0.0000
 8790OM     OM1 8790   4.348   1.456   0.718  0.0000  0.0000  0.0000
 8791OM     OM1 8791   4.266   1.515   0.486  0.0000  0.0000  0.0000
 8792OM     OM1 8792   4.477   1.361   0.523  0.0000  0.0000  0.0000
 8793OM     OM1 8793   3.009   1.174   8.466  0.0000  0.0000  0.0000
 8794OM     OM1 8794   3.261   1.188   8.412  0.0000  0.0000  0.0000
 8795OM     OM1 8795   0.340   2.822   9.272  0.0000  0.0000  0.0000
 8796OM     OM1 8796   6.829   6.679   9.266  0.0000  0.0000  0.0000
 8797OM     OM1 8797   6.864   6.463   9.399  0.0000  0.0000  0.0000
 8798OM     OM1 8798   5.159   1.043   0.960  0.0000  0.0000  0.0000
 8799OM     OM1 8799   5.286   0.969   1.185  0.0000  0.0000  0.0000
 8800OM     OM1 8800   6.585   8.680   9.113  0.0000  0.0000  0.0000
 8801OM     OM1 8801   6.428   8.478   9.084  0.0000  0.0000  0.0000
 8802OM     OM1 8802   6.599   8.531   8.899  0.0000  0.0000  0.0000
 8803OM     OM1 8803   7.582   5.130   9.100  0.0000  0.0000  0.0000
 8804OM     OM1 8804   7.348   5.217   9.138  0.0000  0.0000  0.0000
 8805OM     OM1 8805   3.997   2.010   9.567  0.0000  0.0000  0.0000
 8806OM     OM1 8806   4.205   2.093   0.084  0.0000  0.0000  0.0000
 8807OM     OM1 8807   3.972   2.065   0.222  0.0000  0.0000  0.0000
 8808OM     OM1 8808   4.229   0.410   8.693  0.0000  0.0000  0.0000
 8809OM     OM1 8809   7.242   5.305   8.919  0.0000  0.0000  0.0000
 8810OM     OM1 8810   7.462   5.411   8.992  0.0000  0.0000  0.0000
 8811OM     OM1 8811   7.247   5.464   9.130  0.0000  0.0000  0.0000
 8812OM     OM1 8812   4.665   9.071   0.466  0.0000  0.0000  0.0000
 8813OM     OM1 8813   6.302   5.681   8.403  0.0000  0.0000  0.0000
 8814OM     OM1 8814   6.489   9.534   0.571  0.0000  0.0000  0.0000
 8815OM     OM1 8815   2.335   6.345   8.406  0.0000  0.0000  0.0000
 8816OM     OM1 8816   2.426   6.274   8.695  0.0000  0.0000  0.0000
 8817OM     OM1 8817   5.388   6.404   9.142  0.0000  0.0000  0.0000
 8818OM     OM1 8818   3.787   6.035   0.369  0.0000  0.0000  0.0000
 8819OM     OM1 8819   3.780   6.229   0.189  0.0000  0.0000  0.0000
 8820OM     OM1 8820   1.418   0.357   9.531  0.0000  0.0000  0.0000
 8821OM     OM1 8821   1.345   2.286   8.386  0.0000  0.0000  0.0000
 8822OM     OM1 8822   9.453   9.218   1.330  0.0000  0.0000  0.0000
 8823OM     OM1 8823   3.153   8.235   8.744  0.0000  0.0000  0.0000
 8824OM     OM1 8824   3.009   8.031   8.690  0.0000  0.0000  0.0000
 8825OM     OM1 8825   3.714   3.905   0.750  0.0000  0.0000  0.0000
 8826OM     OM1 8826   5.662   3.439   8.846  0.0000  0.0000  0.0000
 8827OM     OM1 8827   2.672   9.285   8.574  0.0000  0.0000  0.0000
 8828OM     OM1 8828   2.855   9.348   8.388  0.0000  0.0000  0.0000
 8829OM     OM1 8829   2.739   9.103   8.416  0.0000  0.0000  0.0000
 8830OM     OM1 8830   5.431   8.904   0.270  0.0000  0.0000  0.0000
 8831OM     OM1 8831   7.368   2.612   9.491  0.0000  0.0000  0.0000
 8832OM     OM1 8832   7.287   2.555   0.124  0.0000  0.0000  0.0000
 8833OM     OM1 8833   7.474   2.733   0.107  0.0000  0.0000  0.0000
 8834OM     OM1 8834   7.239   2.795   0.014  0.0000  0.0000  0.0000
 8835OM     OM1 8835   2.957   0.559   8.848  0.0000  0.0000  0.0000
 8836OM     OM1 8836   2.295   6.720   9.273  0.0000  0.0000  0.0000
 8837OM     OM1 8837   8.228   0.286   9.516  0.0000  0.0000  0.0000
 8838OM     OM1 8838   8.582   9.257   0.080  0.0000  0.0000  0.0000
 8839OM     OM1 8839   8.382   9.137   9.584  0.0000  0.0000  0.0000
 8840OM     OM1 8840   8.366   9.385   0.081  0.0000  0.0000  0.0000
 8841OM     OM1 8841   4.315   6.831   1.270  0.0000  0.0000  0.0000
 8842OM     OM1 8842   4.369   6.956   1.039  0.0000  0.0000  0.0000
 8843OM     OM1 8843   5.718   6.612   8.573  0.0000  0.0000  0.0000
 8844OM     OM1 8844   5.495   6.456   8.582  0.0000  0.0000  0.0000
 8845OM     OM1 8845   4.115   6.487   9.286  0.0000  0.0000  0.0000
 8846OM     OM1 8846   3.992   6.553   9.496  0.0000  0.0000  0.0000
 8847OM     OM1 8847   4.418   9.278   0.657  0.0000  0.0000  0.0000
 8848OM     OM1 8848   4.409   0.096   0.729  0.0000  0.0000  0.0000
 8849OM     OM1 8849   9.043   2.242   0.357  0.0000  0.0000  0.0000
 8850OM     OM1 8850   9.120   5.706   0.162  0.0000  0.0000  0.0000
 8851OM     OM1 8851   0.831   4.171   8.316  0.0000  0.0000  0.0000
 8852OM     OM1 8852   3.729   9.066   8.892  0.0000  0.0000  0.0000
 8853OM     OM1 8853   3.754   9.078   9.147  0.0000  0.0000  0.0000
 8854OM     OM1 8854   3.605   8.899   9.053  0.0000  0.0000  0.0000
 8855OM     OM1 8855   3.885   2.643   9.302  0.0000  0.0000  0.0000
 8856OM     OM1 8856   3.635   2.899   9.203  0.0000  0.0000  0.0000
 8857OM     OM1 8857   3.732   3.110   9.321  0.0000  0.0000  0.0000
 8858OM     OM1 8858   7.124   4.400   0.241  0.0000  0.0000  0.0000
 8859OM     OM1 8859   7.332   4.316   0.115  0.0000  0.0000  0.0000
 8860OM     OM1 8860   7.212   4.539   0.043  0.0000  0.0000  0.0000
 8861OM     OM1 8861   7.854   5.359   0.755  0.0000  0.0000  0.0000
 8862OM     OM1 8862   7.852   5.159   0.587  0.0000  0.0000  0.0000
 8863OM     OM1 8863   8.063   5.312   0.579  0.0000  0.0000  0.0000
 8864OM     OM1 8864   0.818   1.809   8.508  0.0000  0.0000  0.0000
 8865OM     OM1 8865   0.783   2.044   8.367  0.0000  0.0000  0.0000
 8866OM     OM1 8866   6.337   1.434   8.449  0.0000  0.0000  0.0000
 8867OM     OM1 8867   6.123   1.316   8.381  0.0000  0.0000  0.0000
 8868OM     OM1 8868   5.868   2.132   0.849  0.0000  0.0000  0.0000
 8869OM     OM1 8869   3.172   9.488   1.259  0.0000  0.0000  0.0000
 8870OM     OM1 8870   0.787   6.732   0.587  0.0000  0.0000  0.0000
 8871OM     OM1 8871   0.639   6.779   0.370  0.0000  0.0000  0.0000
 8872OM     OM1 8872   8.541   5.923   9.505  0.0000  0.0000  0.0000
 8873OM     OM1 8873   9.202   7.931   8.508  0.0000  0.0000  0.0000
 8874OM     OM1 8874   9.097   8.131   8.385  0.0000  0.0000  0.0000
 8875OM     OM1 8875   8.961   7.908   8.423  0.0000  0.0000  0.0000
 8876OM     OM1 8876   6.343   4.666   1.225  0.0000  0.0000  0.0000
 8877OM     OM1 8877   4.345   2.673   1.131  0.0000  0.0000  0.0000
 8878OM     OM1 8878   3.823   8.529   8.349  0.0000  0.0000  0.0000
 8879OM     OM1 8879   3.848   8.287   8.273  0.0000  0.0000  0.0000
 8880OM     OM1 8880   6.938   1.753   9.208  0.0000  0.0000  0.0000
 8881OM     OM1 8881   8.591   0.704   8.796  0.0000  0.0000  0.0000
 8882OM     OM1 8882   8.567   0.715   9.052  0.0000  0.0000  0.0000
 8883OM     OM1 8883   4.926   8.431   0.844  0.0000  0.0000  0.0000
 8884OM     OM1 8884   4.912   4.225   9.366  0.0000  0.0000  0.0000
 8885OM     OM1 8885   5.155   4.238   9.473  0.0000  0.0000  0.0000
 8886OM     OM1 8886   3.734   5.285   0.288  0.0000  0.0000  0.0000
 8887OM     OM1 8887   3.571   5.170   0.457  0.0000  0.0000  0.0000
 8888OM     OM1 8888   3.284   8.777   0.548  0.0000  0.0000  0.0000
 8889OM     OM1 8889   3.362   8.902   0.340  0.0000  0.0000  0.0000
 8890OM     OM1 8890   3.104   8.868   0.401  0.0000  0.0000  0.0000
 8891OM     OM1 8891   2.157   6.881   8.821  0.0000  0.0000  0.0000
 8892OM     OM1 8892   2.173   6.783   9.053  0.0000  0.0000  0.0000
 8893OM     OM1 8893   5.807   3.793   9.412  0.0000  0.0000  0.0000
 8894OM     OM1 8894   5.582   3.867   0.346  0.0000  0.0000  0.0000
 8895OM     OM1 8895   4.785   4.958   0.713  0.0000  0.0000  0.0000
 8896OM     OM1 8896   7.919   7.569   8.952  0.0000  0.0000  0.0000
 8897OM     OM1 8897   8.054   7.653   8.736  0.0000  0.0000  0.0000
 8898OM     OM1 8898   7.979   7.415   8.760  0.0000  0.0000  0.0000
 8899OM     OM1 8899   9.597   6.069   8.875  0.0000  0.0000  0.0000
 8900OM     OM1 8900   4.918   4.361   0.653  0.0000  0.0000  0.0000
 8901OM     OM1 8901   4.930   4.132   0.762  0.0000  0.0000  0.0000
 8902OM     OM1 8902   0.033   3.251   8.905  0.0000  0.0000  0.0000
 8903OM     OM1 8903   9.387   3.216   8.959  0.0000  0.0000  0.0000
 8904OM     OM1 8904   7.876   2.479   0.216  0.0000  0.0000  0.0000
 8905OM     OM1 8905   8.065   2.527   0.039  0.0000  0.0000  0.0000
 8906OM     OM1 8906   8.111   2.405   0.265  0.0000  0.0000  0.0000
 8907OM     OM1 8907   0.268   9.172   8.622  0.0000  0.0000  0.0000
 8908OM     OM1 8908   4.049   1.346   1.245  0.0000  0.0000  0.0000
 8909OM     OM1 8909   3.883   2.694   8.829  0.0000  0.0000  0.0000
 8910OM     OM1 8910   3.753   2.868   8.972  0.0000  0.0000  0.0000
 8911OM     OM1 8911   8.950   1.474   8.849  0.0000  0.0000  0.0000
 8912OM     OM1 8912   8.978   1.720   8.911  0.0000  0.0000  0.0000
 8913OM     OM1 8913   3.132   4.184   1.074  0.0000  0.0000  0.0000
 8914OM     OM1 8914   3.588   4.274   8.982  0.0000  0.0000  0.0000
 8915OM     OM1 8915   3.780   4.427   8.888  0.0000  0.0000  0.0000
 8916OM     OM1 8916   2.037   1.301   8.299  0.0000  0.0000  0.0000
 8917OM     OM1 8917   1.905   4.229   0.218  0.0000  0.0000  0.0000
 8918OM     OM1 8918   2.200   1.908   0.042  0.0000  0.0000  0.0000
 8919OM     OM1 8919   2.107   2.063   9.464  0.0000  0.0000  0.0000
 8920OM     OM1 8920   2.178   1.819   9.398  0.0000  0.0000  0.0000
 8921OM     OM1 8921   7.638   9.434   9.349  0.0000  0.0000  0.0000
 8922OM     OM1 8922   7.679   9.206   9.227  0.0000  0.0000  0.0000
 8923OM     OM1 8923   3.393   6.662   1.348  0.0000  0.0000  0.0000
 8924OM     OM1 8924   7.863   8.231   9.045  0.0000  0.0000  0.0000
 8925OM     OM1 8925   7.620   8.150   9.079  0.0000  0.0000  0.0000
 8926OM     OM1 8926   7.828   7.976   9.105  0.0000  0.0000  0.0000
 8927OM     OM1 8927   4.316   7.682   1.336  0.0000  0.0000  0.0000
 8928OM     OM1 8928   9.179   1.220   8.238  0.0000  0.0000  0.0000
 8929OM     OM1 8929   8.480   8.586   9.307  0.0000  0.0000  0.0000
 8930OM     OM1 8930   8.448   2.775   8.884  0.0000  0.0000  0.0000
 8931OM     OM1 8931   8.637   2.939   8.897  0.0000  0.0000  0.0000
 8932OM     OM1 8932   8.685   2.672   8.902  0.0000  0.0000  0.0000
 8933OM     OM1 8933   8.574   2.797   9.106  0.0000  0.0000  0.0000
 8934OM     OM1 8934   3.401   0.842   9.356  0.0000  0.0000  0.0000
 8935OM     OM1 8935   3.422   0.843   9.097  0.0000  0.0000  0.0000
 8936OM     OM1 8936   5.517   4.467   0.400  0.0000  0.0000  0.0000
 8937OM     OM1 8937   0.720   5.847   1.008  0.0000  0.0000  0.0000
 8938OM     OM1 8938   0.659   5.884   1.263  0.0000  0.0000  0.0000
 8939OM     OM1 8939   8.565   4.548   9.289  0.0000  0.0000  0.0000
 8940OM     OM1 8940   0.537   6.004   0.405  0.0000  0.0000  0.0000
 8941OM     OM1 8941   3.644   4.717   8.747  0.0000  0.0000  0.0000
 8942OM     OM1 8942   2.168   3.011   8.283  0.0000  0.0000  0.0000
 8943OM     OM1 8943   2.902   2.853   9.206  0.0000  0.0000  0.0000
 8944OM     OM1 8944   2.736   2.660   9.162  0.0000  0.0000  0.0000
 8945OM     OM1 8945   2.708   2.905   9.054  0.0000  0.0000  0.0000
 8946OM     OM1 8946   2.893   2.737   8.970  0.0000  0.0000  0.0000
 8947OM     OM1 8947   8.608   4.540   0.739  0.0000  0.0000  0.0000
 8948OM     OM1 8948   8.790   4.514   0.913  0.0000  0.0000  0.0000
 8949OM     OM1 8949   2.472   2.019   0.267  0.0000  0.0000  0.0000
 8950OM     OM1 8950   2.347   2.248   0.264  0.0000  0.0000  0.0000
 8951OM     OM1 8951   2.567   2.211   0.113  0.0000  0.0000  0.0000
 8952OM     OM1 8952   2.591   2.227   0.364  0.0000  0.0000  0.0000
 8953OM     OM1 8953   4.244   6.176   9.293  0.0000  0.0000  0.0000
 8954OM     OM1 8954   1.789   3.686   1.134  0.0000  0.0000  0.0000
 8955OM     OM1 8955   1.590   3.799   1.023  0.0000  0.0000  0.0000
 8956OM     OM1 8956   1.645   3.865   1.269  0.0000  0.0000  0.0000
 8957OM     OM1 8957   9.229   6.309   0.660  0.0000  0.0000  0.0000
 8958OM     OM1 8958   9.385   6.120   0.718  0.0000  0.0000  0.0000
 8959OM     OM1 8959   9.132   6.081   0.771  0.0000  0.0000  0.0000
 8960OM     OM1 8960   9.116   6.601   9.484  0.0000  0.0000  0.0000
 8961OM     OM1 8961   0.924   0.892   1.354  0.0000  0.0000  0.0000
 8962OM     OM1 8962   8.773   5.191   8.318  0.0000  0.0000  0.0000
 8963OM     OM1 8963   6.636   9.345   0.029  0.0000  0.0000  0.0000
 8964OM     OM1 8964   1.363   9.066   9.252  0.0000  0.0000  0.0000
 8965OM     OM1 8965   1.553   9.242   9.198  0.0000  0.0000  0.0000
 8966OM     OM1 8966   1.552   9.109   9.426  0.0000  0.0000  0.0000
 8967OM     OM1 8967   9.273   6.792   9.393  0.0000  0.0000  0.0000
 8968OM     OM1 8968   2.411   5.789   8.692  0.0000  0.0000  0.0000
 8969OM     OM1 8969   2.502   5.957   8.870  0.0000  0.0000  0.0000
 8970OM     OM1 8970   7.663   5.451   0.914  0.0000  0.0000  0.0000
 8971OM     OM1 8971   6.121   4.285   0.761  0.0000  0.0000  0.0000
 8972OM     OM1 8972   6.361   4.296   0.885  0.0000  0.0000  0.0000
 8973OM     OM1 8973   6.244   4.066   0.838  0.0000  0.0000  0.0000
 8974OM     OM1 8974   5.194   5.341   1.200  0.0000  0.0000  0.0000
 8975OM     OM1 8975   4.550   8.502   1.233  0.0000  0.0000  0.0000
 8976OM     OM1 8976   2.808   7.193   9.040  0.0000  0.0000  0.0000
 8977OM     OM1 8977   2.731   7.603   8.776  0.0000  0.0000  0.0000
 8978OM     OM1 8978   2.761   7.448   8.581  0.0000  0.0000  0.0000
 8979OM     OM1 8979   7.186   1.045   1.132  0.0000  0.0000  0.0000
 8980OM     OM1 8980   7.018   1.250   1.143  0.0000  0.0000  0.0000
 8981OM     OM1 8981   7.023   1.096   0.942  0.0000  0.0000  0.0000
 8982OM     OM1 8982   8.170   7.425   9.394  0.0000  0.0000  0.0000
 8983OM     OM1 8983   8.245   7.291   0.006  0.0000  0.0000  0.0000
 8984OM     OM1 8984   0.059   4.757   8.583  0.0000  0.0000  0.0000
 8985OM     OM1 8985   0.227   4.845   8.403  0.0000  0.0000  0.0000
 8986OM     OM1 8986   0.697   8.841   0.409  0.0000  0.0000  0.0000
 8987OM     OM1 8987   6.187   1.951   8.854  0.0000  0.0000  0.0000
 8988OM     OM1 8988   6.213   1.911   9.114  0.0000  0.0000  0.0000
 8989OM     OM1 8989   6.166   2.153   9.014  0.0000  0.0000  0.0000
 8990OM     OM1 8990   1.707   7.936   1.103  0.0000  0.0000  0.0000
 8991OM     OM1 8991   3.583   3.934   0.454  0.0000  0.0000  0.0000
 8992OM     OM1 8992   3.806   3.793   0.413  0.0000  0.0000  0.0000
 8993OM     OM1 8993   6.332   0.520   0.818  0.0000  0.0000  0.0000
 8994OM     OM1 8994   6.105   0.622   0.937  0.0000  0.0000  0.0000
 8995OM     OM1 8995   8.673   0.177   8.907  0.0000  0.0000  0.0000
 8996OM     OM1 8996   2.478   8.185   0.442  0.0000  0.0000  0.0000
 8997OM     OM1 8997   2.606   8.123   0.658  0.0000  0.0000  0.0000
 8998OM     OM1 8998   6.347   2.434   9.372  0.0000  0.0000  0.0000
 8999OM     OM1 8999   0.679   7.737   0.416  0.0000  0.0000  0.0000
 9000OM     OM1 9000   0.809   7.864   0.594  0.0000  0.0000  0.0000
 9001OM     OM1 9001   3.171   8.505   8.314  0.0000  0.0000  0.0000
 9002OM     OM1 9002   0.975   9.445   8.639  0.0000  0.0000  0.0000
 9003OM     OM1 9003   0.796   9.601   8.538  0.0000  0.0000  0.0000
 9004OM     OM1 9004   0.803   9.352   8.460  0.0000  0.0000  0.0000
 9005OM     OM1 9005   3.487   7.630   1.231  0.0000  0.0000  0.0000
 9006OM     OM1 9006   7.641   8.773   0.381  0.0000  0.0000  0.0000
 9007OM     OM1 9007   7.668   8.755   0.134  0.0000  0.0000  0.0000
 9008OM     OM1 9008   7.682   8.533   0.266  0.0000  0.0000  0.0000
 9009OM     OM1 9009   2.407   9.272   8.603  0.0000  0.0000  0.0000
 9010OM     OM1 9010   1.047   8.028   8.352  0.0000  0.0000  0.0000
 9011OM     OM1 9011   5.180   9.437   1.285  0.0000  0.0000  0.0000
 9012OM     OM1 9012   5.144   0.086   1.184  0.0000  0.0000  0.0000
 9013OM     OM1 9013   2.986   5.541   9.019  0.0000  0.0000  0.0000
 9014OM     OM1 9014   2.972   5.283   8.951  0.0000  0.0000  0.0000
 9015OM     OM1 9015   5.848   6.974   0.726  0.0000  0.0000  0.0000
 9016OM     OM1 9016   5.744   7.205   0.675  0.0000  0.0000  0.0000
 9017OM     OM1 9017   5.777   6.751   0.609  0.0000  0.0000  0.0000
 9018OM     OM1 9018   7.898   4.424   0.840  0.0000  0.0000  0.0000
 9019OM     OM1 9019   4.311   3.059   9.367  0.0000  0.0000  0.0000
 9020OM     OM1 9020   3.227   8.044   0.856  0.0000  0.0000  0.0000
 9021OM     OM1 9021   3.096   8.076   1.092  0.0000  0.0000  0.0000
 9022OM     OM1 9022   3.606   0.916   0.112  0.0000  0.0000  0.0000
 9023OM     OM1 9023   3.580   0.770   0.327  0.0000  0.0000  0.0000
 9024OM     OM1 9024   3.856   4.291   8.478  0.0000  0.0000  0.0000
 9025OM     OM1 9025   4.035   4.395   8.316  0.0000  0.0000  0.0000
 9026OM     OM1 9026   4.775   1.667   0.799  0.0000  0.0000  0.0000
 9027OM     OM1 9027   4.687   1.790   0.589  0.0000  0.0000  0.0000
 9028OM     OM1 9028   4.617   1.880   0.826  0.0000  0.0000  0.0000
 9029OM     OM1 9029   3.786   4.737   8.523  0.0000  0.0000  0.0000
 9030OM     OM1 9030   3.878   4.601   8.729  0.0000  0.0000  0.0000
 9031OM     OM1 9031   7.651   0.521   1.142  0.0000  0.0000  0.0000
 9032OM     OM1 9032   7.847   0.435   1.287  0.0000  0.0000  0.0000
 9033OM     OM1 9033   7.892   0.597   1.087  0.0000  0.0000  0.0000
 9034OM     OM1 9034   0.079   1.651   8.588  0.0000  0.0000  0.0000
 9035OM     OM1 9035   1.649   8.824   8.400  0.0000  0.0000  0.0000
 9036OM     OM1 9036   6.045   0.018   0.045  0.0000  0.0000  0.0000
 9037OM     OM1 9037   6.250   0.132   0.140  0.0000  0.0000  0.0000
 9038OM     OM1 9038   0.593   5.454   0.240  0.0000  0.0000  0.0000
 9039OM     OM1 9039   0.657   5.592   0.025  0.0000  0.0000  0.0000
 9040OM     OM1 9040   1.841   6.863   9.169  0.0000  0.0000  0.0000
 9041OM     OM1 9041   1.842   7.009   9.588  0.0000  0.0000  0.0000
 9042OM     OM1 9042   1.856   6.800   9.426  0.0000  0.0000  0.0000
 9043OM     OM1 9043   2.068   6.838   9.282  0.0000  0.0000  0.0000
 9044OM     OM1 9044   3.782   9.116   0.565  0.0000  0.0000  0.0000
 9045OM     OM1 9045   4.318   2.183   9.455  0.0000  0.0000  0.0000
 9046OM     OM1 9046   2.306   6.266   0.844  0.0000  0.0000  0.0000
 9047OM     OM1 9047   2.410   6.150   1.048  0.0000  0.0000  0.0000
 9048OM     OM1 9048   9.182   8.297   1.302  0.0000  0.0000  0.0000
 9049OM     OM1 9049   5.913   5.997   9.118  0.0000  0.0000  0.0000
 9050OM     OM1 9050   5.889   6.183   9.303  0.0000  0.0000  0.0000
 9051OM     OM1 9051   5.733   5.318   8.634  0.0000  0.0000  0.0000
 9052OM     OM1 9052   5.996   5.324   8.701  0.0000  0.0000  0.0000
 9053OM     OM1 9053   5.183   3.759   8.578  0.0000  0.0000  0.0000
 9054OM     OM1 9054   7.665   7.765   1.291  0.0000  0.0000  0.0000
 9055OM     OM1 9055   7.843   7.640   1.164  0.0000  0.0000  0.0000
 9056OM     OM1 9056   8.774   5.646   8.554  0.0000  0.0000  0.0000
 9057OM     OM1 9057   7.947   6.566   0.224  0.0000  0.0000  0.0000
 9058OM     OM1 9058   8.202   6.626   0.153  0.0000  0.0000  0.0000
 9059OM     OM1 9059   8.104   6.652   0.404  0.0000  0.0000  0.0000
 9060OM     OM1 9060   3.188   4.148   0.820  0.0000  0.0000  0.0000
 9061OM     OM1 9061   3.513   3.852   1.090  0.0000  0.0000  0.0000
 9062OM     OM1 9062   2.597   4.434   0.020  0.0000  0.0000  0.0000
 9063OM     OM1 9063   2.465   4.283   0.170  0.0000  0.0000  0.0000
 9064OM     OM1 9064   2.458   4.552   0.201  0.0000  0.0000  0.0000
 9065OM     OM1 9065   0.806   3.676   9.546  0.0000  0.0000  0.0000
 9066OM     OM1 9066   2.213   7.332   0.496  0.0000  0.0000  0.0000
 9067OM     OM1 9067   3.761   3.448   8.314  0.0000  0.0000  0.0000
 9068OM     OM1 9068   5.254   2.714   0.016  0.0000  0.0000  0.0000
 9069OM     OM1 9069   5.235   2.645   0.243  0.0000  0.0000  0.0000
 9070OM     OM1 9070   3.381   7.728   0.002  0.0000  0.0000  0.0000
 9071OM     OM1 9071   3.550   7.902   9.534  0.0000  0.0000  0.0000
 9072OM     OM1 9072   6.015   6.377   0.979  0.0000  0.0000  0.0000
 9073OM     OM1 9073   6.218   6.329   0.605  0.0000  0.0000  0.0000
 9074OM     OM1 9074   3.043   5.838   0.465  0.0000  0.0000  0.0000
 9075OM     OM1 9075   3.283   5.929   0.523  0.0000  0.0000  0.0000
 9076OM     OM1 9076   0.646   2.657   0.651  0.0000  0.0000  0.0000
 9077OM     OM1 9077   0.581   2.874   0.787  0.0000  0.0000  0.0000
 9078OM     OM1 9078   0.756   2.879   0.587  0.0000  0.0000  0.0000
 9079OM     OM1 9079   0.501   2.860   0.547  0.0000  0.0000  0.0000
 9080OM     OM1 9080   3.221   9.049   9.115  0.0000  0.0000  0.0000
 9081OM     OM1 9081   3.205   8.958   8.875  0.0000  0.0000  0.0000
 9082OM     OM1 9082   3.316   9.349   8.801  0.0000  0.0000  0.0000
 9083OM     OM1 9083   3.141   9.208   8.923  0.0000  0.0000  0.0000
 9084OM     OM1 9084   6.760   2.340   0.572  0.0000  0.0000  0.0000
 9085OM     OM1 9085   5.971   1.898   0.786  0.0000  0.0000  0.0000
 9086OM     OM1 9086   0.855   1.099   8.754  0.0000  0.0000  0.0000
 9087OM     OM1 9087   6.867   5.503   0.661  0.0000  0.0000  0.0000
 9088OM     OM1 9088   4.402   1.419   1.200  0.0000  0.0000  0.0000
 9089OM     OM1 9089   4.388   1.681   1.208  0.0000  0.0000  0.0000
 9090OM     OM1 9090   4.577   1.548   1.328  0.0000  0.0000  0.0000
 9091OM     OM1 9091   8.715   7.848   8.489  0.0000  0.0000  0.0000
 9092OM     OM1 9092   8.517   7.844   8.329  0.0000  0.0000  0.0000
 9093OM     OM1 9093   8.561   8.055   8.513  0.0000  0.0000  0.0000
 9094OM     OM1 9094   8.687   8.287   8.513  0.0000  0.0000  0.0000
 9095OM     OM1 9095   8.740   8.116   8.695  0.0000  0.0000  0.0000
 9096OM     OM1 9096   3.399   8.796   8.938  0.0000  0.0000  0.0000
 9097OM     OM1 9097   3.216   8.724   8.772  0.0000  0.0000  0.0000
 9098OM     OM1 9098   4.866   6.036   8.398  0.0000  0.0000  0.0000
 9099OM     OM1 9099   8.970   8.781   0.162  0.0000  0.0000  0.0000
 9100OM     OM1 9100   8.964   8.711   9.521  0.0000  0.0000  0.0000
 9101OM     OM1 9101   7.065   7.165   9.417  0.0000  0.0000  0.0000
 9102OM     OM1 9102   6.968   7.077   9.194  0.0000  0.0000  0.0000
 9103OM     OM1 9103   4.521   0.147   1.223  0.0000  0.0000  0.0000
 9104OM     OM1 9104   4.669   0.368   1.240  0.0000  0.0000  0.0000
 9105OM     OM1 9105   2.830   8.013   9.582  0.0000  0.0000  0.0000
 9106OM     OM1 9106   3.059   8.131   9.479  0.0000  0.0000  0.0000
 9107OM     OM1 9107   3.035   7.886   9.581  0.0000  0.0000  0.0000
 9108OM     OM1 9108   2.925   9.537   0.027  0.0000  0.0000  0.0000
 9109OM     OM1 9109   3.103   4.031   0.603  0.0000  0.0000  0.0000
 9110OM     OM1 9110   5.234   8.340   8.487  0.0000  0.0000  0.0000
 9111OM     OM1 9111   5.472   8.140   8.371  0.0000  0.0000  0.0000
 9112OM     OM1 9112   5.147   8.136   8.627  0.0000  0.0000  0.0000
 9113OM     OM1 9113   1.556   8.225   0.877  0.0000  0.0000  0.0000
 9114OM     OM1 9114   0.567   7.721   0.190  0.0000  0.0000  0.0000
 9115OM     OM1 9115   0.817   7.693   0.108  0.0000  0.0000  0.0000
 9116OM     OM1 9116   0.626   7.666   9.546  0.0000  0.0000  0.0000
 9117OM     OM1 9117   7.204   3.872   0.854  0.0000  0.0000  0.0000
 9118OM     OM1 9118   7.160   4.026   1.048  0.0000  0.0000  0.0000
 9119OM     OM1 9119   7.071   3.822   1.182  0.0000  0.0000  0.0000
 9120OM     OM1 9120   7.145   4.124   0.795  0.0000  0.0000  0.0000
 9121OM     OM1 9121   7.134   2.545   9.394  0.0000  0.0000  0.0000
 9122OM     OM1 9122   6.959   2.486   9.209  0.0000  0.0000  0.0000
 9123OM     OM1 9123   7.152   0.395   8.798  0.0000  0.0000  0.0000
 9124OM     OM1 9124   7.288   0.238   8.653  0.0000  0.0000  0.0000
 9125OM     OM1 9125   7.068   0.148   8.785  0.0000  0.0000  0.0000
 9126OM     OM1 9126   7.126   9.604   8.990  0.0000  0.0000  0.0000
 9127OM     OM1 9127   3.177   7.761   0.147  0.0000  0.0000  0.0000
 9128OM     OM1 9128   2.936   7.682   0.143  0.0000  0.0000  0.0000
 9129OM     OM1 9129   6.408   9.203   9.097  0.0000  0.0000  0.0000
 9130OM     OM1 9130   2.779   4.572   9.081  0.0000  0.0000  0.0000
 9131OM     OM1 9131   2.847   4.331   9.033  0.0000  0.0000  0.0000
 9132OM     OM1 9132   3.043   4.509   9.067  0.0000  0.0000  0.0000
 9133OM     OM1 9133   2.904   4.425   9.268  0.0000  0.0000  0.0000
 9134OM     OM1 9134   0.833   0.234   9.578  0.0000  0.0000  0.0000
 9135OM     OM1 9135   6.186   4.587   0.240  0.0000  0.0000  0.0000
 9136OM     OM1 9136   6.170   4.374   0.390  0.0000  0.0000  0.0000
 9137OM     OM1 9137   3.550   2.718   9.027  0.0000  0.0000  0.0000
 9138OM     OM1 9138   3.471   2.484   8.922  0.0000  0.0000  0.0000
 9139OM     OM1 9139   4.077   0.730   8.333  0.0000  0.0000  0.0000
 9140OM     OM1 9140   4.141   0.979   8.320  0.0000  0.0000  0.0000
 9141OM     OM1 9141   2.279   1.338   0.117  0.0000  0.0000  0.0000
 9142OM     OM1 9142   4.561   2.967   9.362  0.0000  0.0000  0.0000
 9143OM     OM1 9143   7.305   4.944   1.200  0.0000  0.0000  0.0000
 9144OM     OM1 9144   7.244   4.700   1.120  0.0000  0.0000  0.0000
 9145OM     OM1 9145   8.578   8.782   0.653  0.0000  0.0000  0.0000
 9146OM     OM1 9146   9.197   8.828   9.561  0.0000  0.0000  0.0000
 9147OM     OM1 9147   9.182   9.076   0.048  0.0000  0.0000  0.0000
 9148OM     OM1 9148   9.328   9.017   9.447  0.0000  0.0000  0.0000
 9149OM     OM1 9149   2.208   9.108   9.399  0.0000  0.0000  0.0000
 9150OM     OM1 9150   2.388   9.258   9.291  0.0000  0.0000  0.0000
 9151OM     OM1 9151   2.278   9.067   9.151  0.0000  0.0000  0.0000
 9152OM     OM1 9152   3.659   7.060   0.268  0.0000  0.0000  0.0000
 9153OM     OM1 9153   3.653   7.148   0.509  0.0000  0.0000  0.0000
 9154OM     OM1 9154   3.434   7.157   0.384  0.0000  0.0000  0.0000
 9155OM     OM1 9155   6.755   7.565   8.901  0.0000  0.0000  0.0000
 9156OM     OM1 9156   7.002   8.314   0.239  0.0000  0.0000  0.0000
 9157OM     OM1 9157   7.264   8.332   0.260  0.0000  0.0000  0.0000
 9158OM     OM1 9158   6.713   8.482   0.831  0.0000  0.0000  0.0000
 9159OM     OM1 9159   6.973   8.285   1.044  0.0000  0.0000  0.0000
 9160OM     OM1 9160   3.207   1.510   0.385  0.0000  0.0000  0.0000
 9161OM     OM1 9161   3.261   1.566   0.626  0.0000  0.0000  0.0000
 9162OM     OM1 9162   3.332   1.337   0.528  0.0000  0.0000  0.0000
 9163OM     OM1 9163   0.926   2.341   8.489  0.0000  0.0000  0.0000
 9164OM     OM1 9164   0.746   2.299   8.315  0.0000  0.0000  0.0000
 9165OM     OM1 9165   0.675   2.403   8.548  0.0000  0.0000  0.0000
 9166OM     OM1 9166   0.759   6.793   0.144  0.0000  0.0000  0.0000
 9167OM     OM1 9167   0.500   6.811   0.145  0.0000  0.0000  0.0000
 9168OM     OM1 9168   4.533   8.329   8.373  0.0000  0.0000  0.0000
 9169OM     OM1 9169   4.756   1.775   8.585  0.0000  0.0000  0.0000
 9170OM     OM1 9170   8.516   2.472   0.377  0.0000  0.0000  0.0000
 9171OM     OM1 9171   8.672   2.596   0.203  0.0000  0.0000  0.0000
 9172OM     OM1 9172   3.493   2.822   8.403  0.0000  0.0000  0.0000
 9173OM     OM1 9173   8.585   8.270   0.291  0.0000  0.0000  0.0000
 9174OM     OM1 9174   8.781   7.896   0.219  0.0000  0.0000  0.0000
 9175OM     OM1 9175   8.651   8.064   0.419  0.0000  0.0000  0.0000
 9176OM     OM1 9176   4.573   8.671   0.818  0.0000  0.0000  0.0000
 9177OM     OM1 9177   4.489   8.869   0.684  0.0000  0.0000  0.0000
 9178OM     OM1 9178   1.359   6.646   0.573  0.0000  0.0000  0.0000
 9179OM     OM1 9179   0.958   9.124   8.691  0.0000  0.0000  0.0000
 9180OM     OM1 9180   1.313   8.882   8.419  0.0000  0.0000  0.0000
 9181OM     OM1 9181   1.102   9.267   8.530  0.0000  0.0000  0.0000
 9182OM     OM1 9182   7.045   7.711   0.861  0.0000  0.0000  0.0000
 9183OM     OM1 9183   9.334   6.050   8.425  0.0000  0.0000  0.0000
 9184OM     OM1 9184   9.479   6.032   8.645  0.0000  0.0000  0.0000
 9185OM     OM1 9185   4.190   7.578   9.164  0.0000  0.0000  0.0000
 9186OM     OM1 9186   4.371   8.442   9.418  0.0000  0.0000  0.0000
 9187OM     OM1 9187   7.591   5.296   8.790  0.0000  0.0000  0.0000
 9188OM     OM1 9188   1.393   6.050   0.613  0.0000  0.0000  0.0000
 9189OM     OM1 9189   8.281   5.480   1.349  0.0000  0.0000  0.0000
 9190OM     OM1 9190   8.275   5.241   1.240  0.0000  0.0000  0.0000
 9191OM     OM1 9191   8.477   5.320   1.384  0.0000  0.0000  0.0000
 9192OM     OM1 9192   2.826   1.129   8.643  0.0000  0.0000  0.0000
 9193OM     OM1 9193   1.994   1.134   1.295  0.0000  0.0000  0.0000
 9194OM     OM1 9194   9.335   5.109   1.367  0.0000  0.0000  0.0000
 9195OM     OM1 9195   7.558   8.149   0.857  0.0000  0.0000  0.0000
 9196OM     OM1 9196   5.512   4.089   0.206  0.0000  0.0000  0.0000
 9197OM     OM1 9197   5.380   4.179   9.602  0.0000  0.0000  0.0000
 9198OM     OM1 9198   3.807   0.301   0.928  0.0000  0.0000  0.0000
 9199OM     OM1 9199   3.917   0.077   0.869  0.0000  0.0000  0.0000
 9200OM     OM1 9200   4.042   0.310   0.806  0.0000  0.0000  0.0000
 9201OM     OM1 9201   0.817   6.940   1.025  0.0000  0.0000  0.0000
 9202OM     OM1 9202   1.044   6.983   1.144  0.0000  0.0000  0.0000
 9203OM     OM1 9203   6.924   3.526   9.536  0.0000  0.0000  0.0000
 9204OM     OM1 9204   6.881   3.327   0.108  0.0000  0.0000  0.0000
 9205OM     OM1 9205   2.933   3.956   8.733  0.0000  0.0000  0.0000
 9206OM     OM1 9206   2.816   4.093   8.920  0.0000  0.0000  0.0000
 9207OM     OM1 9207   3.956   5.012   9.383  0.0000  0.0000  0.0000
 9208OM     OM1 9208   3.861   4.786   9.306  0.0000  0.0000  0.0000
 9209OM     OM1 9209   4.081   4.886   9.189  0.0000  0.0000  0.0000
 9210OM     OM1 9210   9.037   5.393   1.090  0.0000  0.0000  0.0000
 9211OM     OM1 9211   9.036   5.304   0.852  0.0000  0.0000  0.0000
 9212OM     OM1 9212   8.829   5.260   1.016  0.0000  0.0000  0.0000
 9213OM     OM1 9213   2.002   5.249   9.300  0.0000  0.0000  0.0000
 9214OM     OM1 9214   9.313   7.357   9.066  0.0000  0.0000  0.0000
 9215OM     OM1 9215   9.187   4.431   0.953  0.0000  0.0000  0.0000
 9216OM     OM1 9216   8.856   4.367   1.112  0.0000  0.0000  0.0000
 9217OM     OM1 9217   2.804   4.966   0.917  0.0000  0.0000  0.0000
 9218OM     OM1 9218   2.662   5.000   1.132  0.0000  0.0000  0.0000
 9219OM     OM1 9219   9.350   3.259   0.903  0.0000  0.0000  0.0000
 9220OM     OM1 9220   3.649   8.571   0.224  0.0000  0.0000  0.0000
 9221OM     OM1 9221   3.599   8.823   0.278  0.0000  0.0000  0.0000
 9222OM     OM1 9222   4.155   6.472   0.718  0.0000  0.0000  0.0000
 9223OM     OM1 9223   7.730   1.806   0.479  0.0000  0.0000  0.0000
 9224OM     OM1 9224   7.854   1.825   0.707  0.0000  0.0000  0.0000
 9225OM     OM1 9225   1.437   5.966   0.370  0.0000  0.0000  0.0000
 9226OM     OM1 9226   5.968   0.952   9.231  0.0000  0.0000  0.0000
 9227OM     OM1 9227   5.887   1.053   9.463  0.0000  0.0000  0.0000
 9228OM     OM1 9228   1.179   1.722   0.072  0.0000  0.0000  0.0000
 9229OM     OM1 9229   2.044   7.150   1.206  0.0000  0.0000  0.0000
 9230OM     OM1 9230   1.804   7.248   1.162  0.0000  0.0000  0.0000
 9231OM     OM1 9231   1.900   7.068   1.010  0.0000  0.0000  0.0000
 9232OM     OM1 9232   3.853   4.790   0.639  0.0000  0.0000  0.0000
 9233OM     OM1 9233   3.653   4.929   0.538  0.0000  0.0000  0.0000
 9234OM     OM1 9234   2.253   7.809   0.897  0.0000  0.0000  0.0000
 9235OM     OM1 9235   2.420   7.990   0.786  0.0000  0.0000  0.0000
 9236OM     OM1 9236   1.644   2.083   0.073  0.0000  0.0000  0.0000
 9237OM     OM1 9237   1.887   2.164   9.580  0.0000  0.0000  0.0000
 9238OM     OM1 9238   7.671   0.945   0.781  0.0000  0.0000  0.0000
 9239OM     OM1 9239   7.701   0.943   0.524  0.0000  0.0000  0.0000
 9240OM     OM1 9240   9.389   2.883   8.659  0.0000  0.0000  0.0000
 9241OM     OM1 9241   9.146   2.972   8.620  0.0000  0.0000  0.0000
 9242OM     OM1 9242   9.270   3.011   8.853  0.0000  0.0000  0.0000
 9243OM     OM1 9243   2.639   1.379   9.443  0.0000  0.0000  0.0000
 9244OM     OM1 9244   2.713   1.142   9.367  0.0000  0.0000  0.0000
 9245OM     OM1 9245   5.852   5.208   0.863  0.0000  0.0000  0.0000
 9246OM     OM1 9246   5.838   5.470   0.910  0.0000  0.0000  0.0000
 9247OM     OM1 9247   5.676   5.313   1.022  0.0000  0.0000  0.0000
 9248OM     OM1 9248   9.074   8.610   8.657  0.0000  0.0000  0.0000
 9249OM     OM1 9249   8.851   8.728   8.627  0.0000  0.0000  0.0000
 9250OM     OM1 9250   8.854   8.474   8.593  0.0000  0.0000  0.0000
 9251OM     OM1 9251   5.779   0.727   0.431  0.0000  0.0000  0.0000
 9252OM     OM1 9252   5.980   0.844   0.309  0.0000  0.0000  0.0000
 9253OM     OM1 9253   3.152   6.773   0.368  0.0000  0.0000  0.0000
 9254OM     OM1 9254   7.561   8.166   8.358  0.0000  0.0000  0.0000
 9255OM     OM1 9255   4.907   1.374   9.243  0.0000  0.0000  0.0000
 9256OM     OM1 9256   4.733   1.186   9.256  0.0000  0.0000  0.0000
 9257OM     OM1 9257   8.744   6.770   8.962  0.0000  0.0000  0.0000
 9258OM     OM1 9258   8.622   6.559   8.890  0.0000  0.0000  0.0000
 9259OM     OM1 9259   8.872   3.430   9.297  0.0000  0.0000  0.0000
 9260OM     OM1 9260   9.026   3.608   9.165  0.0000  0.0000  0.0000
 9261OM     OM1 9261   1.093   0.292   8.680  0.0000  0.0000  0.0000
 9262OM     OM1 9262   1.230   0.446   8.829  0.0000  0.0000  0.0000
 9263OM     OM1 9263   2.563   7.525   8.297  0.0000  0.0000  0.0000
 9264OM     OM1 9264   2.811   7.453   8.329  0.0000  0.0000  0.0000
 9265OM     OM1 9265   8.940   8.963   8.608  0.0000  0.0000  0.0000
 9266OM     OM1 9266   5.139   1.643   0.309  0.0000  0.0000  0.0000
 9267OM     OM1 9267   5.274   1.842   0.209  0.0000  0.0000  0.0000
 9268OM     OM1 9268   5.162   1.856   0.457  0.0000  0.0000  0.0000
 9269OM     OM1 9269   5.548   7.333   1.397  0.0000  0.0000  0.0000
 9270OM     OM1 9270   5.360   0.205   1.181  0.0000  0.0000  0.0000
 9271OM     OM1 9271   5.611   0.154   1.187  0.0000  0.0000  0.0000
 9272OM     OM1 9272   3.852   5.290   8.997  0.0000  0.0000  0.0000
 9273OM     OM1 9273   3.621   5.177   9.077  0.0000  0.0000  0.0000
 9274OM     OM1 9274   3.850   5.111   9.174  0.0000  0.0000  0.0000
 9275OM     OM1 9275   5.608   5.850   8.976  0.0000  0.0000  0.0000
 9276OM     OM1 9276   0.515   6.509   1.252  0.0000  0.0000  0.0000
 9277OM     OM1 9277   5.761   3.534   0.716  0.0000  0.0000  0.0000
 9278OM     OM1 9278   5.935   0.076   9.098  0.0000  0.0000  0.0000
 9279OM     OM1 9279   8.329   2.731   9.178  0.0000  0.0000  0.0000
 9280OM     OM1 9280   8.118   2.884   9.200  0.0000  0.0000  0.0000
 9281OM     OM1 9281   8.205   2.794   8.965  0.0000  0.0000  0.0000
 9282OM     OM1 9282   6.883   6.860   9.094  0.0000  0.0000  0.0000
 9283OM     OM1 9283   1.399   1.582   8.522  0.0000  0.0000  0.0000
 9284OM     OM1 9284   1.202   1.312   8.248  0.0000  0.0000  0.0000
 9285OM     OM1 9285   7.293   3.632   0.760  0.0000  0.0000  0.0000
 9286OM     OM1 9286   9.452   0.205   8.382  0.0000  0.0000  0.0000
 9287OM     OM1 9287   3.776   0.866   8.639  0.0000  0.0000  0.0000
 9288OM     OM1 9288   3.969   1.003   8.518  0.0000  0.0000  0.0000
 9289OM     OM1 9289   0.925   3.486   8.599  0.0000  0.0000  0.0000
 9290OM     OM1 9290   1.144   3.494   8.738  0.0000  0.0000  0.0000
 9291OM     OM1 9291   0.936   3.553   8.863  0.0000  0.0000  0.0000
 9292OM     OM1 9292   1.796   5.351   9.165  0.0000  0.0000  0.0000
 9293OM     OM1 9293   1.786   5.104   9.240  0.0000  0.0000  0.0000
 9294OM     OM1 9294   7.326   7.312   8.583  0.0000  0.0000  0.0000
 9295OM     OM1 9295   7.558   9.349   9.052  0.0000  0.0000  0.0000
 9296OM     OM1 9296   7.368   9.529   9.062  0.0000  0.0000  0.0000
 9297OM     OM1 9297   2.025   0.105   8.746  0.0000  0.0000  0.0000
 9298OM     OM1 9298   1.880   9.529   8.622  0.0000  0.0000  0.0000
 9299OM     OM1 9299   1.861   9.548   8.877  0.0000  0.0000  0.0000
 9300OM     OM1 9300   2.547   8.825   9.395  0.0000  0.0000  0.0000
 9301OM     OM1 9301   2.721   8.829   9.602  0.0000  0.0000  0.0000
 9302OM     OM1 9302   5.527   7.337   9.451  0.0000  0.0000  0.0000
 9303OM     OM1 9303   5.603   7.093   9.379  0.0000  0.0000  0.0000
 9304OM     OM1 9304   7.869   2.931   9.193  0.0000  0.0000  0.0000
 9305OM     OM1 9305   6.707   4.056   1.128  0.0000  0.0000  0.0000
 9306OM     OM1 9306   6.638   3.866   0.969  0.0000  0.0000  0.0000
 9307OM     OM1 9307   6.810   3.811   1.155  0.0000  0.0000  0.0000
 9308OM     OM1 9308   3.139   9.088   0.537  0.0000  0.0000  0.0000
 9309OM     OM1 9309   7.814   3.366   0.400  0.0000  0.0000  0.0000
 9310OM     OM1 9310   0.657   5.000   0.331  0.0000  0.0000  0.0000
 9311OM     OM1 9311   0.572   5.246   0.390  0.0000  0.0000  0.0000
 9312OM     OM1 9312   0.999   4.868   8.750  0.0000  0.0000  0.0000
 9313OM     OM1 9313   0.847   4.731   8.576  0.0000  0.0000  0.0000
 9314OM     OM1 9314   0.808   4.982   8.606  0.0000  0.0000  0.0000
 9315OM     OM1 9315   5.002   0.487   0.177  0.0000  0.0000  0.0000
 9316OM     OM1 9316   4.807   0.528   0.348  0.0000  0.0000  0.0000
 9317OM     OM1 9317   1.605   1.020   9.345  0.0000  0.0000  0.0000
 9318OM     OM1 9318   0.808   2.795   9.463  0.0000  0.0000  0.0000
 9319OM     OM1 9319   0.894   2.795   0.104  0.0000  0.0000  0.0000
 9320OM     OM1 9320   0.716   2.965   0.029  0.0000  0.0000  0.0000
 9321OM     OM1 9321   0.262   4.027   0.927  0.0000  0.0000  0.0000
 9322OM     OM1 9322   0.489   3.950   0.817  0.0000  0.0000  0.0000
 9323OM     OM1 9323   9.126   6.100   8.857  0.0000  0.0000  0.0000
 9324OM     OM1 9324   2.161   7.133   8.899  0.0000  0.0000  0.0000
 9325OM     OM1 9325   1.956   6.981   8.960  0.0000  0.0000  0.0000
 9326OM     OM1 9326   6.784   8.357   0.373  0.0000  0.0000  0.0000
 9327OM     OM1 9327   6.719   8.516   0.572  0.0000  0.0000  0.0000
 9328OM     OM1 9328   7.684   1.609   8.794  0.0000  0.0000  0.0000
 9329OM     OM1 9329   7.271   1.600   8.495  0.0000  0.0000  0.0000
 9330OM     OM1 9330   3.047   2.850   0.587  0.0000  0.0000  0.0000
 9331OM     OM1 9331   2.690   0.874   9.387  0.0000  0.0000  0.0000
 9332OM     OM1 9332   2.780   0.987   9.176  0.0000  0.0000  0.0000
 9333OM     OM1 9333   2.523   1.010   9.236  0.0000  0.0000  0.0000
 9334OM     OM1 9334   0.409   4.537   0.285  0.0000  0.0000  0.0000
 9335OM     OM1 9335   0.606   4.587   0.133  0.0000  0.0000  0.0000
 9336OM     OM1 9336   8.289   4.698   8.907  0.0000  0.0000  0.0000
 9337OM     OM1 9337   6.206   2.387   9.124  0.0000  0.0000  0.0000
 9338OM     OM1 9338   6.152   2.358   8.866  0.0000  0.0000  0.0000
 9339OM     OM1 9339   9.174   0.380   0.688  0.0000  0.0000  0.0000
 9340OM     OM1 9340   2.166   2.195   0.701  0.0000  0.0000  0.0000
 9341OM     OM1 9341   1.961   2.322   0.797  0.0000  0.0000  0.0000
 9342OM     OM1 9342   7.273   1.563   9.367  0.0000  0.0000  0.0000
 9343OM     OM1 9343   7.409   1.773   9.448  0.0000  0.0000  0.0000
 9344OM     OM1 9344   0.099   9.536   1.059  0.0000  0.0000  0.0000
 9345OM     OM1 9345   0.023   0.033   0.835  0.0000  0.0000  0.0000
 9346OM     OM1 9346   2.926   4.081   0.124  0.0000  0.0000  0.0000
 9347OM     OM1 9347   7.399   4.455   9.079  0.0000  0.0000  0.0000
 9348OM     OM1 9348   7.456   7.753   1.453  0.0000  0.0000  0.0000
 9349OM     OM1 9349   2.431   8.861   9.153  0.0000  0.0000  0.0000
 9350OM     OM1 9350   3.028   7.073   9.078  0.0000  0.0000  0.0000
 9351OM     OM1 9351   2.531   6.935   9.276  0.0000  0.0000  0.0000
 9352OM     OM1 9352   2.701   7.071   9.407  0.0000  0.0000  0.0000
 9353OM     OM1 9353   1.784   5.773   8.415  0.0000  0.0000  0.0000
 9354OM     OM1 9354   1.784   7.930   9.187  0.0000  0.0000  0.0000
 9355OM     OM1 9355   5.982   4.036   9.050  0.0000  0.0000  0.0000
 9356OM     OM1 9356   6.068   4.234   8.906  0.0000  0.0000  0.0000
 9357OM     OM1 9357   9.583   0.884   0.369  0.0000  0.0000  0.0000
 9358OM     OM1 9358   8.019   1.140   0.680  0.0000  0.0000  0.0000
 9359OM     OM1 9359   8.268   1.313   0.937  0.0000  0.0000  0.0000
 9360OM     OM1 9360   8.141   1.093   0.894  0.0000  0.0000  0.0000
 9361OM     OM1 9361   3.099   8.185   0.485  0.0000  0.0000  0.0000
 9362OM     OM1 9362   9.044   4.221   1.035  0.0000  0.0000  0.0000
 9363OM     OM1 9363   4.629   5.026   9.262  0.0000  0.0000  0.0000
 9364OM     OM1 9364   4.863   4.972   9.171  0.0000  0.0000  0.0000
 9365OM     OM1 9365   3.184   5.127   0.199  0.0000  0.0000  0.0000
 9366OM     OM1 9366   2.968   4.987   0.240  0.0000  0.0000  0.0000
 9367OM     OM1 9367   3.198   4.893   0.308  0.0000  0.0000  0.0000
 9368OM     OM1 9368   3.125   5.929   8.773  0.0000  0.0000  0.0000
 9369OM     OM1 9369   3.135   5.737   8.942  0.0000  0.0000  0.0000
 9370OM     OM1 9370   2.731   0.469   0.576  0.0000  0.0000  0.0000
 9371OM     OM1 9371   6.658   0.828   0.769  0.0000  0.0000  0.0000
 9372OM     OM1 9372   6.656   0.624   0.613  0.0000  0.0000  0.0000
 9373OM     OM1 9373   2.199   5.382   0.674  0.0000  0.0000  0.0000
 9374OM     OM1 9374   2.187   9.510   0.993  0.0000  0.0000  0.0000
 9375OM     OM1 9375   1.747   0.631   8.316  0.0000  0.0000  0.0000
 9376OM     OM1 9376   9.310   3.989   0.910  0.0000  0.0000  0.0000
 9377OM     OM1 9377   9.251   3.865   0.687  0.0000  0.0000  0.0000
 9378OM     OM1 9378   1.567   2.949   0.147  0.0000  0.0000  0.0000
 9379OM     OM1 9379   1.370   2.830   0.281  0.0000  0.0000  0.0000
 9380OM     OM1 9380   1.213   2.087   9.392  0.0000  0.0000  0.0000
 9381OM     OM1 9381   1.384   1.903   9.356  0.0000  0.0000  0.0000
 9382OM     OM1 9382   1.534   5.451   0.216  0.0000  0.0000  0.0000
 9383OM     OM1 9383   1.603   5.340   9.595  0.0000  0.0000  0.0000
 9384OM     OM1 9384   1.863   7.936   8.681  0.0000  0.0000  0.0000
 9385OM     OM1 9385   8.273   2.894   8.731  0.0000  0.0000  0.0000
 9386OM     OM1 9386   8.293   3.116   8.586  0.0000  0.0000  0.0000
 9387OM     OM1 9387   8.429   3.078   8.807  0.0000  0.0000  0.0000
 9388OM     OM1 9388   7.595   5.908   1.123  0.0000  0.0000  0.0000
 9389OM     OM1 9389   4.716   0.696   8.961  0.0000  0.0000  0.0000
 9390OM     OM1 9390   4.823   0.711   9.200  0.0000  0.0000  0.0000
 9391OM     OM1 9391   3.266   7.349   0.322  0.0000  0.0000  0.0000
 9392OM     OM1 9392   1.565   8.647   0.629  0.0000  0.0000  0.0000
 9393OM     OM1 9393   5.750   4.062   8.624  0.0000  0.0000  0.0000
 9394OM     OM1 9394   5.525   4.157   8.530  0.0000  0.0000  0.0000
 9395OM     OM1 9395   5.602   3.945   8.430  0.0000  0.0000  0.0000
 9396OM     OM1 9396   6.740   6.219   9.385  0.0000  0.0000  0.0000
 9397OM     OM1 9397   8.559   2.476   9.016  0.0000  0.0000  0.0000
 9398OM     OM1 9398   8.508   2.336   9.233  0.0000  0.0000  0.0000
 9399OM     OM1 9399   8.318   2.367   9.032  0.0000  0.0000  0.0000
 9400OM     OM1 9400   4.592   0.717   9.326  0.0000  0.0000  0.0000
 9401OM     OM1 9401   7.831   1.915   0.268  0.0000  0.0000  0.0000
 9402OM     OM1 9402   1.032   8.131   1.236  0.0000  0.0000  0.0000
 9403OM     OM1 9403   0.784   8.181   1.188  0.0000  0.0000  0.0000
 9404OM     OM1 9404   7.629   0.013   0.731  0.0000  0.0000  0.0000
 9405OM     OM1 9405   3.864   9.211   1.366  0.0000  0.0000  0.0000
 9406OM     OM1 9406   5.394   0.165   0.248  0.0000  0.0000  0.0000
 9407OM     OM1 9407   5.235   1.873   0.791  0.0000  0.0000  0.0000
 9408OM     OM1 9408   5.246   2.057   0.621  0.0000  0.0000  0.0000
 9409OM     OM1 9409   8.715   1.194   0.603  0.0000  0.0000  0.0000
 9410OM     OM1 9410   7.272   6.227   0.451  0.0000  0.0000  0.0000
 9411OM     OM1 9411   7.316   6.015   0.596  0.0000  0.0000  0.0000
 9412OM     OM1 9412   6.928   7.049   8.931  0.0000  0.0000  0.0000
 9413OM     OM1 9413   6.690   7.127   8.881  0.0000  0.0000  0.0000
 9414OM     OM1 9414   5.270   9.477   8.932  0.0000  0.0000  0.0000
 9415OM     OM1 9415   9.233   8.125   8.676  0.0000  0.0000  0.0000
 9416OM     OM1 9416   9.193   8.391   8.682  0.0000  0.0000  0.0000
 9417OM     OM1 9417   9.152   8.255   8.887  0.0000  0.0000  0.0000
 9418OM     OM1 9418   8.989   8.207   8.701  0.0000  0.0000  0.0000
 9419OM     OM1 9419   6.135   6.670   9.043  0.0000  0.0000  0.0000
 9420OM     OM1 9420   5.082   5.930   9.127  0.0000  0.0000  0.0000
 9421OM     OM1 9421   5.262   5.812   9.291  0.0000  0.0000  0.0000
 9422OM     OM1 9422   5.007   5.755   9.303  0.0000  0.0000  0.0000
 9423OM     OM1 9423   8.807   1.516   8.436  0.0000  0.0000  0.0000
 9424OM     OM1 9424   8.977   1.327   8.368  0.0000  0.0000  0.0000
 9425OM     OM1 9425   9.014   1.465   8.594  0.0000  0.0000  0.0000
 9426OM     OM1 9426   1.956   9.413   0.084  0.0000  0.0000  0.0000
 9427OM     OM1 9427   6.464   5.843   0.371  0.0000  0.0000  0.0000
 9428OM     OM1 9428   2.550   0.655   0.554  0.0000  0.0000  0.0000
 9429OM     OM1 9429   2.519   0.903   0.595  0.0000  0.0000  0.0000
 9430OM     OM1 9430   1.608   9.367   1.234  0.0000  0.0000  0.0000
 9431OM     OM1 9431   6.251   7.303   8.901  0.0000  0.0000  0.0000
 9432OM     OM1 9432   2.635   5.723   9.459  0.0000  0.0000  0.0000
 9433OM     OM1 9433   2.714   5.689   0.094  0.0000  0.0000  0.0000
 9434OM     OM1 9434   2.171   3.231   0.010  0.0000  0.0000  0.0000
 9435OM     OM1 9435   8.538   6.768   9.130  0.0000  0.0000  0.0000
 9436OM     OM1 9436   8.304   6.660   9.212  0.0000  0.0000  0.0000
 9437OM     OM1 9437   6.108   0.140   0.359  0.0000  0.0000  0.0000
 9438OM     OM1 9438   9.440   4.777   0.119  0.0000  0.0000  0.0000
 9439OM     OM1 9439   9.538   5.002   0.196  0.0000  0.0000  0.0000
 9440OM     OM1 9440   0.554   6.608   0.004  0.0000  0.0000  0.0000
 9441OM     OM1 9441   8.920   8.326   8.392  0.0000  0.0000  0.0000
 9442OM     OM1 9442   3.958   5.430   0.271  0.0000  0.0000  0.0000
 9443OM     OM1 9443   3.844   5.365   0.501  0.0000  0.0000  0.0000
 9444OM     OM1 9444   8.899   1.230   1.101  0.0000  0.0000  0.0000
 9445OM     OM1 9445   5.715   1.011   0.075  0.0000  0.0000  0.0000
 9446OM     OM1 9446   5.967   0.971   0.090  0.0000  0.0000  0.0000
 9447OM     OM1 9447   5.800   0.820   9.546  0.0000  0.0000  0.0000
 9448OM     OM1 9448   3.225   7.573   8.490  0.0000  0.0000  0.0000
 9449OM     OM1 9449   2.966   7.594   8.499  0.0000  0.0000  0.0000
 9450OM     OM1 9450   3.132   7.759   8.641  0.0000  0.0000  0.0000
 9451OM     OM1 9451   7.629   6.383   9.326  0.0000  0.0000  0.0000
 9452OM     OM1 9452   7.723   6.578   0.098  0.0000  0.0000  0.0000
 9453OM     OM1 9453   3.641   1.249   8.955  0.0000  0.0000  0.0000
 9454OM     OM1 9454   3.753   1.263   9.200  0.0000  0.0000  0.0000
 9455OM     OM1 9455   3.979   0.717   9.363  0.0000  0.0000  0.0000
 9456OM     OM1 9456   4.870   9.134   8.315  0.0000  0.0000  0.0000
 9457OM     OM1 9457   7.133   6.924   9.049  0.0000  0.0000  0.0000
 9458OM     OM1 9458   6.941   1.950   8.324  0.0000  0.0000  0.0000
 9459OM     OM1 9459   6.902   6.490   0.955  0.0000  0.0000  0.0000
 9460OM     OM1 9460   7.110   6.570   1.105  0.0000  0.0000  0.0000
 9461OM     OM1 9461   5.851   3.034   0.173  0.0000  0.0000  0.0000
 9462OM     OM1 9462   5.735   2.804   0.177  0.0000  0.0000  0.0000
 9463OM     OM1 9463   5.887   2.875   0.378  0.0000  0.0000  0.0000
 9464OM     OM1 9464   6.313   4.637   8.362  0.0000  0.0000  0.0000
 9465OM     OM1 9465   2.823   4.784   1.093  0.0000  0.0000  0.0000
 9466OM     OM1 9466   1.474   3.905   0.822  0.0000  0.0000  0.0000
 9467OM     OM1 9467   8.864   7.299   0.778  0.0000  0.0000  0.0000
 9468OM     OM1 9468   8.777   7.191   0.550  0.0000  0.0000  0.0000
 9469OM     OM1 9469   4.479   0.537   0.945  0.0000  0.0000  0.0000
 9470OM     OM1 9470   4.655   0.686   0.834  0.0000  0.0000  0.0000
 9471OM     OM1 9471   4.713   0.554   1.062  0.0000  0.0000  0.0000
 9472OM     OM1 9472   8.820   2.471   8.981  0.0000  0.0000  0.0000
 9473OM     OM1 9473   4.975   5.197   9.107  0.0000  0.0000  0.0000
 9474OM     OM1 9474   4.956   5.133   9.350  0.0000  0.0000  0.0000
 9475OM     OM1 9475   4.732   8.502   8.909  0.0000  0.0000  0.0000
 9476OM     OM1 9476   4.581   8.587   9.104  0.0000  0.0000  0.0000
 9477OM     OM1 9477   4.684   8.351   9.110  0.0000  0.0000  0.0000
 9478OM     OM1 9478   2.875   1.884   1.060  0.0000  0.0000  0.0000
 9479OM     OM1 9479   7.012   1.677   1.074  0.0000  0.0000  0.0000
 9480OM     OM1 9480   6.866   1.575   0.892  0.0000  0.0000  0.0000
 9481OM     OM1 9481   3.695   8.679   1.111  0.0000  0.0000  0.0000
 9482OM     OM1 9482   7.129   2.679   8.640  0.0000  0.0000  0.0000
 9483OM     OM1 9483   3.104   3.425   8.836  0.0000  0.0000  0.0000
 9484OM     OM1 9484   1.674   5.118   9.470  0.0000  0.0000  0.0000
 9485OM     OM1 9485   1.355   5.420   0.017  0.0000  0.0000  0.0000
 9486OM     OM1 9486   5.253   0.057   9.212  0.0000  0.0000  0.0000
 9487OM     OM1 9487   4.968   9.463   9.405  0.0000  0.0000  0.0000
 9488OM     OM1 9488   9.443   6.471   0.663  0.0000  0.0000  0.0000
 9489OM     OM1 9489   9.232   6.521   0.523  0.0000  0.0000  0.0000
 9490OM     OM1 9490   7.698   1.216   0.071  0.0000  0.0000  0.0000
 9491OM     OM1 9491   7.868   1.159   0.243  0.0000  0.0000  0.0000
 9492OM     OM1 9492   5.326   7.226   1.320  0.0000  0.0000  0.0000
 9493OM     OM1 9493   4.185   7.078   0.913  0.0000  0.0000  0.0000
 9494OM     OM1 9494   7.733   6.437   0.324  0.0000  0.0000  0.0000
 9495OM     OM1 9495   0.426   0.542   9.167  0.0000  0.0000  0.0000
 9496OM     OM1 9496   7.996   4.965   9.318  0.0000  0.0000  0.0000
 9497OM     OM1 9497   0.217   6.021   9.358  0.0000  0.0000  0.0000
 9498OM     OM1 9498   0.119   6.257   9.347  0.0000  0.0000  0.0000
 9499OM     OM1 9499   4.094   1.615   1.116  0.0000  0.0000  0.0000
 9500OM     OM1 9500   5.198   4.498   1.262  0.0000  0.0000  0.0000
 9501OM     OM1 9501   4.696   0.932   9.229  0.0000  0.0000  0.0000
 9502OM     OM1 9502   4.509   1.104   9.157  0.0000  0.0000  0.0000
 9503OM     OM1 9503   7.660   7.257   9.124  0.0000  0.0000  0.0000
 9504OM     OM1 9504   8.992   4.729   8.487  0.0000  0.0000  0.0000
 9505OM     OM1 9505   1.342   7.379   1.260  0.0000  0.0000  0.0000
 9506OM     OM1 9506   1.165   7.546   1.166  0.0000  0.0000  0.0000
 9507OM     OM1 9507   0.968   0.241   0.703  0.0000  0.0000  0.0000
 9508OM     OM1 9508   0.882   0.010   0.592  0.0000  0.0000  0.0000
 9509OM     OM1 9509   1.422   4.854   1.018  0.0000  0.0000  0.0000
 9510OM     OM1 9510   4.563   0.121   8.462  0.0000  0.0000  0.0000
 9511OM     OM1 9511   4.872   0.445   8.596  0.0000  0.0000  0.0000
 9512OM     OM1 9512   4.687   0.549   8.744  0.0000  0.0000  0.0000
 9513OM     OM1 9513   1.726   4.686   9.227  0.0000  0.0000  0.0000
 9514OM     OM1 9514   1.577   4.697   9.447  0.0000  0.0000  0.0000
 9515OM     OM1 9515   1.478   4.712   9.198  0.0000  0.0000  0.0000
 9516OM     OM1 9516   1.619   4.911   9.308  0.0000  0.0000  0.0000
 9517OM     OM1 9517   3.942   7.152   1.017  0.0000  0.0000  0.0000
 9518OM     OM1 9518   6.954   2.288   9.041  0.0000  0.0000  0.0000
 9519OM     OM1 9519   0.877   5.010   0.973  0.0000  0.0000  0.0000
 9520OM     OM1 9520   5.101   1.461   8.425  0.0000  0.0000  0.0000
 9521OM     OM1 9521   3.852   1.412   0.711  0.0000  0.0000  0.0000
 9522OM     OM1 9522   8.540   2.881   0.225  0.0000  0.0000  0.0000
 9523OM     OM1 9523   2.785   1.729   9.465  0.0000  0.0000  0.0000
 9524OM     OM1 9524   3.017   1.852   9.435  0.0000  0.0000  0.0000
 9525OM     OM1 9525   8.659   2.803   0.714  0.0000  0.0000  0.0000
 9526OM     OM1 9526   7.091   1.881   0.921  0.0000  0.0000  0.0000
 9527OM     OM1 9527   8.767   6.676   1.007  0.0000  0.0000  0.0000
 9528OM     OM1 9528   8.720   6.554   0.784  0.0000  0.0000  0.0000
 9529OM     OM1 9529   1.464   2.717   0.633  0.0000  0.0000  0.0000
 9530OM     OM1 9530   1.246   2.798   0.504  0.0000  0.0000  0.0000
 9531OM     OM1 9531   1.247   2.706   0.760  0.0000  0.0000  0.0000
 9532OM     OM1 9532   3.119   3.912   0.097  0.0000  0.0000  0.0000
 9533OM     OM1 9533   2.949   3.945   9.511  0.0000  0.0000  0.0000
 9534OM     OM1 9534   2.922   4.183   9.382  0.0000  0.0000  0.0000
 9535OM     OM1 9535   1.880   9.160   0.037  0.0000  0.0000  0.0000
 9536OM     OM1 9536   7.635   8.057   0.128  0.0000  0.0000  0.0000
 9537OM     OM1 9537   7.703   7.861   9.586  0.0000  0.0000  0.0000
 9538OM     OM1 9538   6.373   9.390   8.912  0.0000  0.0000  0.0000
 9539OM     OM1 9539   6.408   0.025   8.836  0.0000  0.0000  0.0000
 9540OM     OM1 9540   0.770   4.842   0.133  0.0000  0.0000  0.0000
 9541OM     OM1 9541   6.549   9.307   1.156  0.0000  0.0000  0.0000
 9542OM     OM1 9542   6.326   9.176   1.181  0.0000  0.0000  0.0000
 9543OM     OM1 9543   6.465   9.152   0.961  0.0000  0.0000  0.0000
 9544OM     OM1 9544   6.348   9.382   1.014  0.0000  0.0000  0.0000
 9545OM     OM1 9545   8.065   1.957   9.295  0.0000  0.0000  0.0000
 9546OM     OM1 9546   1.901   5.813   0.232  0.0000  0.0000  0.0000
 9547OM     OM1 9547   6.795   9.080   8.521  0.0000  0.0000  0.0000
 9548OM     OM1 9548   6.988   8.964   8.390  0.0000  0.0000  0.0000
 9549OM     OM1 9549   1.938   8.944   8.241  0.0000  0.0000  0.0000
 9550OM     OM1 9550   4.793   2.869   0.869  0.0000  0.0000  0.0000
 9551OM     OM1 9551   4.867   2.614   0.899  0.0000  0.0000  0.0000
 9552OM     OM1 9552   0.676   1.337   9.041  0.0000  0.0000  0.0000
 9553OM     OM1 9553   0.792   1.552   8.938  0.0000  0.0000  0.0000
 9554OM     OM1 9554   0.792   1.337   8.801  0.0000  0.0000  0.0000
 9555OM     OM1 9555   5.990   7.162   0.612  0.0000  0.0000  0.0000
 9556OM     OM1 9556   6.558   6.351   8.503  0.0000  0.0000  0.0000
 9557OM     OM1 9557   6.635   6.102   8.511  0.0000  0.0000  0.0000
 9558OM     OM1 9558   7.788   3.801   1.438  0.0000  0.0000  0.0000
 9559OM     OM1 9559   3.427   6.363   9.141  0.0000  0.0000  0.0000
 9560OM     OM1 9560   3.693   6.364   9.189  0.0000  0.0000  0.0000
 9561OM     OM1 9561   8.266   6.908   8.318  0.0000  0.0000  0.0000
 9562OM     OM1 9562   8.262   6.644   8.379  0.0000  0.0000  0.0000
 9563OM     OM1 9563   2.152   7.360   1.308  0.0000  0.0000  0.0000
 9564OM     OM1 9564   3.080   8.502   8.722  0.0000  0.0000  0.0000
 9565OM     OM1 9565   7.221   4.550   0.912  0.0000  0.0000  0.0000
 9566OM     OM1 9566   7.414   4.724   0.936  0.0000  0.0000  0.0000
 9567OM     OM1 9567   2.456   5.660   0.033  0.0000  0.0000  0.0000
 9568OM     OM1 9568   5.999   2.883   8.300  0.0000  0.0000  0.0000
 9569OM     OM1 9569   9.356   5.977   8.874  0.0000  0.0000  0.0000
 9570OM     OM1 9570   9.544   5.820   8.783  0.0000  0.0000  0.0000
 9571OM     OM1 9571   1.851   9.030   0.259  0.0000  0.0000  0.0000
 9572OM     OM1 9572   1.654   4.441   9.240  0.0000  0.0000  0.0000
 9573OM     OM1 9573   3.891   8.676   8.556  0.0000  0.0000  0.0000
 9574OM     OM1 9574   4.125   1.625   8.459  0.0000  0.0000  0.0000
 9575OM     OM1 9575   4.279   1.408   8.503  0.0000  0.0000  0.0000
 9576OM     OM1 9576   2.735   2.837   8.524  0.0000  0.0000  0.0000
 9577OM     OM1 9577   2.786   2.698   8.740  0.0000  0.0000  0.0000
 9578OM     OM1 9578   1.586   4.177   8.456  0.0000  0.0000  0.0000
 9579OM     OM1 9579   4.331   9.292   9.038  0.0000  0.0000  0.0000
 9580OM     OM1 9580   7.867   8.859   0.028  0.0000  0.0000  0.0000
 9581OM     OM1 9581   6.305   3.530   1.191  0.0000  0.0000  0.0000
 9582OM     OM1 9582   6.115   3.611   1.040  0.0000  0.0000  0.0000
 9583OM     OM1 9583   6.111   3.665   1.294  0.0000  0.0000  0.0000
 9584OM     OM1 9584   7.075   3.426   8.797  0.0000  0.0000  0.0000
 9585OM     OM1 9585   7.045   3.632   8.617  0.0000  0.0000  0.0000
 9586OM     OM1 9586   4.151   7.231   0.596  0.0000  0.0000  0.0000
 9587OM     OM1 9587   7.811   7.572   0.916  0.0000  0.0000  0.0000
 9588OM     OM1 9588   0.629   7.999   0.731  0.0000  0.0000  0.0000
 9589OM     OM1 9589   0.880   7.989   0.807  0.0000  0.0000  0.0000
 9590OM     OM1 9590   0.801   8.126   0.590  0.0000  0.0000  0.0000
 9591OM     OM1 9591   6.233   9.541   0.592  0.0000  0.0000  0.0000
 9592OM     OM1 9592   6.179   9.468   0.835  0.0000  0.0000  0.0000
 9593OM     OM1 9593   6.123   3.841   0.916  0.0000  0.0000  0.0000
 9594OM     OM1 9594   6.388   3.864   0.909  0.0000  0.0000  0.0000
 9595OM     OM1 9595   3.829   9.562   0.659  0.0000  0.0000  0.0000
 9596OM     OM1 9596   3.673   0.166   0.624  0.0000  0.0000  0.0000
 9597OM     OM1 9597   3.719   9.502   0.874  0.0000  0.0000  0.0000
 9598OM     OM1 9598   9.064   2.045   8.549  0.0000  0.0000  0.0000
 9599OM     OM1 9599   8.825   2.148   8.603  0.0000  0.0000  0.0000
 9600OM     OM1 9600   7.669   5.063   0.729  0.0000  0.0000  0.0000
 9601OM     OM1 9601   7.782   3.047   8.477  0.0000  0.0000  0.0000
 9602OM     OM1 9602   7.972   3.090   8.309  0.0000  0.0000  0.0000
 9603OM     OM1 9603   9.515   1.492   8.469  0.0000  0.0000  0.0000
 9604OM     OM1 9604   6.340   0.026   9.185  0.0000  0.0000  0.0000
 9605OM     OM1 9605   6.509   9.438   9.128  0.0000  0.0000  0.0000
 9606OM     OM1 9606   9.334   0.439   8.367  0.0000  0.0000  0.0000
 9607OM     OM1 9607   9.539   7.567   0.726  0.0000  0.0000  0.0000
 9608OM     OM1 9608   9.284   7.600   0.668  0.0000  0.0000  0.0000
 9609OM     OM1 9609   5.105   8.036   9.492  0.0000  0.0000  0.0000
 9610OM     OM1 9610   5.208   7.933   9.274  0.0000  0.0000  0.0000
 9611OM     OM1 9611   5.077   8.157   9.270  0.0000  0.0000  0.0000
 9612OM     OM1 9612   4.599   1.366   0.301  0.0000  0.0000  0.0000
 9613OM     OM1 9613   4.646   1.562   0.469  0.0000  0.0000  0.0000
 9614OM     OM1 9614   7.622   3.837   8.623  0.0000  0.0000  0.0000
 9615OM     OM1 9615   7.604   4.093   8.637  0.0000  0.0000  0.0000
 9616OM     OM1 9616   0.452   2.799   8.684  0.0000  0.0000  0.0000
 9617OM     OM1 9617   0.672   2.827   8.806  0.0000  0.0000  0.0000
 9618OM     OM1 9618   9.017   3.081   0.623  0.0000  0.0000  0.0000
 9619OM     OM1 9619   6.437   5.135   9.218  0.0000  0.0000  0.0000
 9620OM     OM1 9620   3.774   4.112   9.056  0.0000  0.0000  0.0000
 9621OM     OM1 9621   6.544   9.067   8.505  0.0000  0.0000  0.0000
 9622OM     OM1 9622   8.075   0.156   8.224  0.0000  0.0000  0.0000
 9623OM     OM1 9623   0.678   8.721   8.557  0.0000  0.0000  0.0000
 9624OM     OM1 9624   0.792   8.493   8.637  0.0000  0.0000  0.0000
 9625OM     OM1 9625   0.942   8.685   8.586  0.0000  0.0000  0.0000
 9626OM     OM1 9626   5.868   5.234   0.362  0.0000  0.0000  0.0000
 9627OM     OM1 9627   6.097   5.207   0.249  0.0000  0.0000  0.0000
 9628OM     OM1 9628   5.998   5.015   0.409  0.0000  0.0000  0.0000
 9629OM     OM1 9629   6.096   5.232   0.507  0.0000  0.0000  0.0000
 9630OM     OM1 9630   8.393   4.508   0.894  0.0000  0.0000  0.0000
 9631OM     OM1 9631   8.447   4.698   1.077  0.0000  0.0000  0.0000
 9632OM     OM1 9632   8.367   6.556   8.832  0.0000  0.0000  0.0000
 9633OM     OM1 9633   8.486   6.327   8.884  0.0000  0.0000  0.0000
 9634OM     OM1 9634   8.216   6.707   8.980  0.0000  0.0000  0.0000
 9635OM     OM1 9635   1.828   3.108   0.889  0.0000  0.0000  0.0000
 9636OM     OM1 9636   1.569   3.111   0.920  0.0000  0.0000  0.0000
 9637OM     OM1 9637   3.653   1.350   9.428  0.0000  0.0000  0.0000
 9638OM     OM1 9638   2.660   7.980   0.882  0.0000  0.0000  0.0000
 9639OM     OM1 9639   2.533   8.199   0.897  0.0000  0.0000  0.0000
 9640OM     OM1 9640   0.138   4.047   8.957  0.0000  0.0000  0.0000
 9641OM     OM1 9641   7.168   7.547   0.305  0.0000  0.0000  0.0000
 9642OM     OM1 9642   4.127   1.202   8.455  0.0000  0.0000  0.0000
 9643OM     OM1 9643   3.931   1.128   8.300  0.0000  0.0000  0.0000
 9644OM     OM1 9644   3.991   5.001   1.326  0.0000  0.0000  0.0000
 9645OM     OM1 9645   3.904   5.246   1.303  0.0000  0.0000  0.0000
 9646OM     OM1 9646   4.928   4.448   8.854  0.0000  0.0000  0.0000
 9647OM     OM1 9647   5.010   4.693   8.820  0.0000  0.0000  0.0000
 9648OM     OM1 9648   8.198   0.858   1.245  0.0000  0.0000  0.0000
 9649OM     OM1 9649   5.154   4.211   0.872  0.0000  0.0000  0.0000
 9650OM     OM1 9650   5.233   4.405   1.020  0.0000  0.0000  0.0000
 9651OM     OM1 9651   5.414   4.239   0.917  0.0000  0.0000  0.0000
 9652OM     OM1 9652   2.969   1.076   1.153  0.0000  0.0000  0.0000
 9653OM     OM1 9653   5.583   0.276   8.335  0.0000  0.0000  0.0000
 9654OM     OM1 9654   8.668   0.455   1.126  0.0000  0.0000  0.0000
 9655OM     OM1 9655   8.142   9.375   0.824  0.0000  0.0000  0.0000
 9656OM     OM1 9656   8.344   9.361   0.974  0.0000  0.0000  0.0000
 9657OM     OM1 9657   7.592   0.434   9.301  0.0000  0.0000  0.0000
 9658OM     OM1 9658   3.998   1.561   0.881  0.0000  0.0000  0.0000
 9659OM     OM1 9659   4.061   1.542   0.636  0.0000  0.0000  0.0000
 9660OM     OM1 9660   3.853   1.676   0.689  0.0000  0.0000  0.0000
 9661OM     OM1 9661   4.256   4.192   8.570  0.0000  0.0000  0.0000
 9662OM     OM1 9662   4.012   4.125   8.588  0.0000  0.0000  0.0000
 9663OM     OM1 9663   4.160   4.025   8.394  0.0000  0.0000  0.0000
 9664OM     OM1 9664   4.872   5.377   8.945  0.0000  0.0000  0.0000
 9665OM     OM1 9665   3.236   1.988   8.560  0.0000  0.0000  0.0000
 9666OM     OM1 9666   3.049   2.101   8.703  0.0000  0.0000  0.0000
 9667OM     OM1 9667   4.251   6.397   8.487  0.0000  0.0000  0.0000
 9668OM     OM1 9668   4.348   6.611   8.365  0.0000  0.0000  0.0000
 9669OM     OM1 9669   4.392   6.571   8.616  0.0000  0.0000  0.0000
 9670OM     OM1 9670   4.515   6.422   8.451  0.0000  0.0000  0.0000
 9671OM     OM1 9671   6.601   4.183   9.131  0.0000  0.0000  0.0000
 9672OM     OM1 9672   8.585   5.355   8.229  0.0000  0.0000  0.0000
 9673OM     OM1 9673   0.618   0.047   1.195  0.0000  0.0000  0.0000
 9674OM     OM1 9674   6.235   4.754   8.583  0.0000  0.0000  0.0000
 9675OM     OM1 9675   7.571   1.899   0.284  0.0000  0.0000  0.0000
 9676OM     OM1 9676   1.296   8.077   9.499  0.0000  0.0000  0.0000
 9677OM     OM1 9677   0.190   3.064   1.014  0.0000  0.0000  0.0000
 9678OM     OM1 9678   0.326   3.046   1.232  0.0000  0.0000  0.0000
 9679OM     OM1 9679   0.130   2.886   1.200  0.0000  0.0000  0.0000
 9680OM     OM1 9680   9.438   4.761   9.234  0.0000  0.0000  0.0000
 9681OM     OM1 9681   9.407   4.694   9.481  0.0000  0.0000  0.0000
 9682OM     OM1 9682   9.195   4.761   9.339  0.0000  0.0000  0.0000
 9683OM     OM1 9683   6.727   1.950   8.477  0.0000  0.0000  0.0000
 9684OM     OM1 9684   2.614   4.204   9.031  0.0000  0.0000  0.0000
 9685OM     OM1 9685   3.781   6.252   8.980  0.0000  0.0000  0.0000
 9686OM     OM1 9686   3.560   6.278   8.814  0.0000  0.0000  0.0000
 9687OM     OM1 9687   9.147   1.000   0.168  0.0000  0.0000  0.0000
 9688OM     OM1 9688   9.109   0.886   0.388  0.0000  0.0000  0.0000
 9689OM     OM1 9689   5.457   6.176   9.258  0.0000  0.0000  0.0000
 9690OM     OM1 9690   9.395   6.580   8.231  0.0000  0.0000  0.0000
 9691OM     OM1 9691   6.764   6.445   8.378  0.0000  0.0000  0.0000
 9692OM     OM1 9692   8.716   0.354   0.351  0.0000  0.0000  0.0000
 9693OM     OM1 9693   1.712   9.393   9.043  0.0000  0.0000  0.0000
 9694OM     OM1 9694   5.376   5.630   0.254  0.0000  0.0000  0.0000
 9695OM     OM1 9695   5.143   5.559   0.348  0.0000  0.0000  0.0000
 9696OM     OM1 9696   2.045   0.299   8.919  0.0000  0.0000  0.0000
 9697OM     OM1 9697   2.153   0.406   9.135  0.0000  0.0000  0.0000
 9698OM     OM1 9698   3.956   4.352   8.715  0.0000  0.0000  0.0000
 9699OM     OM1 9699   5.509   3.761   1.091  0.0000  0.0000  0.0000
 9700OM     OM1 9700   5.505   4.017   1.030  0.0000  0.0000  0.0000
 9701OM     OM1 9701   5.730   3.924   1.102  0.0000  0.0000  0.0000
 9702OM     OM1 9702   9.280   3.614   9.185  0.0000  0.0000  0.0000
 9703OM     OM1 9703   9.458   3.785   9.237  0.0000  0.0000  0.0000
 9704OM     OM1 9704   9.351   3.690   9.440  0.0000  0.0000  0.0000
 9705OM     OM1 9705   4.018   7.156   9.242  0.0000  0.0000  0.0000
 9706OM     OM1 9706   4.260   7.060   9.242  0.0000  0.0000  0.0000
 9707OM     OM1 9707   3.922   7.202   9.479  0.0000  0.0000  0.0000
 9708OM     OM1 9708   3.071   6.653   8.448  0.0000  0.0000  0.0000
 9709OM     OM1 9709   7.013   2.897   0.089  0.0000  0.0000  0.0000
 9710OM     OM1 9710   7.695   6.448   0.574  0.0000  0.0000  0.0000
 9711OM     OM1 9711   7.513   6.328   0.419  0.0000  0.0000  0.0000
 9712OM     OM1 9712   8.495   0.819   8.587  0.0000  0.0000  0.0000
 9713OM     OM1 9713   8.245   0.828   8.509  0.0000  0.0000  0.0000
 9714OM     OM1 9714   1.177   2.290   8.577  0.0000  0.0000  0.0000
 9715OM     OM1 9715   1.036   2.499   8.657  0.0000  0.0000  0.0000
 9716OM     OM1 9716   2.732   0.973   0.461  0.0000  0.0000  0.0000
 9717OM     OM1 9717   2.935   1.095   0.333  0.0000  0.0000  0.0000
 9718OM     OM1 9718   6.301   0.315   0.315  0.0000  0.0000  0.0000
 9719OM     OM1 9719   1.300   5.255   9.187  0.0000  0.0000  0.0000
 9720OM     OM1 9720   1.102   5.417   9.237  0.0000  0.0000  0.0000
 9721OM     OM1 9721   1.060   5.180   9.142  0.0000  0.0000  0.0000
 9722OM     OM1 9722   8.500   8.075   0.628  0.0000  0.0000  0.0000
 9723OM     OM1 9723   8.708   8.129   0.784  0.0000  0.0000  0.0000
 9724OM     OM1 9724   9.271   0.268   8.554  0.0000  0.0000  0.0000
 9725OM     OM1 9725   6.347   0.067   0.387  0.0000  0.0000  0.0000
 9726OM     OM1 9726   8.651   6.998   9.062  0.0000  0.0000  0.0000
 9727OM     OM1 9727   0.263   7.313   1.237  0.0000  0.0000  0.0000
 9728OM     OM1 9728   7.921   6.590   0.586  0.0000  0.0000  0.0000
 9729OM     OM1 9729   3.623   0.295   0.240  0.0000  0.0000  0.0000
 9730OM     OM1 9730   3.515   0.301   0.476  0.0000  0.0000  0.0000
 9731OM     OM1 9731   2.737   1.949   9.087  0.0000  0.0000  0.0000
 9732OM     OM1 9732   5.173   6.764   1.160  0.0000  0.0000  0.0000
 9733OM     OM1 9733   5.235   6.566   1.001  0.0000  0.0000  0.0000
 9734OM     OM1 9734   4.999   6.571   1.100  0.0000  0.0000  0.0000
 9735OM     OM1 9735   5.075   6.742   0.916  0.0000  0.0000  0.0000
 9736OM     OM1 9736   2.457   7.156   9.165  0.0000  0.0000  0.0000
 9737OM     OM1 9737   2.377   7.104   9.404  0.0000  0.0000  0.0000
 9738OM     OM1 9738   2.282   6.968   9.201  0.0000  0.0000  0.0000
 9739OM     OM1 9739   7.100   1.366   0.218  0.0000  0.0000  0.0000
 9740OM     OM1 9740   6.415   8.002   8.463  0.0000  0.0000  0.0000
 9741OM     OM1 9741   4.582   2.531   9.482  0.0000  0.0000  0.0000
 9742OM     OM1 9742   7.541   6.886   8.563  0.0000  0.0000  0.0000
 9743OM     OM1 9743   7.766   6.891   8.431  0.0000  0.0000  0.0000
 9744OM     OM1 9744   5.445   5.339   1.133  0.0000  0.0000  0.0000
 9745OM     OM1 9745   5.274   5.425   0.958  0.0000  0.0000  0.0000
 9746OM     OM1 9746   7.034   8.077   0.904  0.0000  0.0000  0.0000
 9747OM     OM1 9747   6.786   8.105   1.015  0.0000  0.0000  0.0000
 9748OM     OM1 9748   7.465   2.155   0.683  0.0000  0.0000  0.0000
 9749OM     OM1 9749   7.133   8.845   8.559  0.0000  0.0000  0.0000
 9750OM     OM1 9750   7.223   9.025   8.378  0.0000  0.0000  0.0000
 9751OM     OM1 9751   0.063   2.635   1.168  0.0000  0.0000  0.0000
 9752OM     OM1 9752   0.111   2.543   0.929  0.0000  0.0000  0.0000
 9753OM     OM1 9753   9.470   2.559   1.005  0.0000  0.0000  0.0000
 9754OM     OM1 9754   5.153   0.950   9.237  0.0000  0.0000  0.0000
 9755OM     OM1 9755   5.759   5.640   1.092  0.0000  0.0000  0.0000
 9756OM     OM1 9756   5.954   5.464   1.143  0.0000  0.0000  0.0000
 9757OM     OM1 9757   5.028   3.503   0.663  0.0000  0.0000  0.0000
 9758OM     OM1 9758   5.158   3.325   0.812  0.0000  0.0000  0.0000
 9759OM     OM1 9759   6.724   3.176   9.381  0.0000  0.0000  0.0000
 9760OM     OM1 9760   6.572   2.986   9.304  0.0000  0.0000  0.0000
 9761OM     OM1 9761   9.106   1.879   8.744  0.0000  0.0000  0.0000
 9762OM     OM1 9762   9.206   1.845   0.225  0.0000  0.0000  0.0000
 9763OM     OM1 9763   9.024   2.036   0.206  0.0000  0.0000  0.0000
 9764OM     OM1 9764   6.926   6.066   1.164  0.0000  0.0000  0.0000
 9765OM     OM1 9765   6.839   6.175   1.388  0.0000  0.0000  0.0000
 9766OM     OM1 9766   9.080   3.106   8.400  0.0000  0.0000  0.0000
 9767OM     OM1 9767   0.619   5.062   1.026  0.0000  0.0000  0.0000
 9768OM     OM1 9768   0.819   5.131   1.192  0.0000  0.0000  0.0000
 9769OM     OM1 9769   6.122   5.353   0.732  0.0000  0.0000  0.0000
 9770OM     OM1 9770   6.034   5.103   0.716  0.0000  0.0000  0.0000
 9771OM     OM1 9771   1.146   2.375   1.121  0.0000  0.0000  0.0000
 9772OM     OM1 9772   1.036   2.181   1.004  0.0000  0.0000  0.0000
 9773OM     OM1 9773   1.429   7.760   8.633  0.0000  0.0000  0.0000
 9774OM     OM1 9774   5.724   5.871   1.189  0.0000  0.0000  0.0000
 9775OM     OM1 9775   6.976   4.185   0.254  0.0000  0.0000  0.0000
 9776OM     OM1 9776   1.108   2.805   0.276  0.0000  0.0000  0.0000
 9777OM     OM1 9777   1.463   2.708   0.077  0.0000  0.0000  0.0000
 9778OM     OM1 9778   4.937   9.402   8.560  0.0000  0.0000  0.0000
 9779OM     OM1 9779   5.067   9.480   8.775  0.0000  0.0000  0.0000
 9780OM     OM1 9780   6.445   1.063   0.221  0.0000  0.0000  0.0000
 9781OM     OM1 9781   2.326   0.699   8.510  0.0000  0.0000  0.0000
 9782OM     OM1 9782   2.171   0.616   8.707  0.0000  0.0000  0.0000
 9783OM     OM1 9783   0.101   7.002   9.361  0.0000  0.0000  0.0000
 9784OM     OM1 9784   0.120   7.270   9.385  0.0000  0.0000  0.0000
 9785OM     OM1 9785   0.289   7.134   9.244  0.0000  0.0000  0.0000
 9786OM     OM1 9786   3.580   9.053   0.411  0.0000  0.0000  0.0000
 9787OM     OM1 9787   6.361   6.770   0.086  0.0000  0.0000  0.0000
 9788OM     OM1 9788   6.570   6.825   9.564  0.0000  0.0000  0.0000
 9789OM     OM1 9789   2.704   7.256   0.723  0.0000  0.0000  0.0000
 9790OM     OM1 9790   2.856   3.311   0.591  0.0000  0.0000  0.0000
 9791OM     OM1 9791   2.808   3.521   0.747  0.0000  0.0000  0.0000
 9792OM     OM1 9792   2.919   3.277   0.835  0.0000  0.0000  0.0000
 9793OM     OM1 9793   9.001   1.971   8.961  0.0000  0.0000  0.0000
 9794OM     OM1 9794   1.676   1.550   8.937  0.0000  0.0000  0.0000
 9795OM     OM1 9795   1.518   1.647   8.738  0.0000  0.0000  0.0000
 9796OM     OM1 9796   9.482   0.819   1.029  0.0000  0.0000  0.0000
 9797OM     OM1 9797   9.453   1.005   1.224  0.0000  0.0000  0.0000
 9798OM     OM1 9798   7.421   7.286   0.715  0.0000  0.0000  0.0000
 9799OM     OM1 9799   7.478   7.164   0.494  0.0000  0.0000  0.0000
 9800OM     OM1 9800   0.262   1.905   0.165  0.0000  0.0000  0.0000
 9801OM     OM1 9801   0.310   1.654   0.092  0.0000  0.0000  0.0000
 9802OM     OM1 9802   7.060   5.875   1.060  0.0000  0.0000  0.0000
 9803OM     OM1 9803   7.142   6.129   1.034  0.0000  0.0000  0.0000
 9804OM     OM1 9804   2.667   5.407   8.383  0.0000  0.0000  0.0000
 9805OM     OM1 9805   3.842   1.905   9.396  0.0000  0.0000  0.0000
 9806OM     OM1 9806   3.405   1.801   8.628  0.0000  0.0000  0.0000
 9807OM     OM1 9807   5.026   6.989   8.528  0.0000  0.0000  0.0000
 9808OM     OM1 9808   8.934   9.458   8.416  0.0000  0.0000  0.0000
 9809OM     OM1 9809   7.263   7.560   9.398  0.0000  0.0000  0.0000
 9810OM     OM1 9810   7.018   7.562   9.485  0.0000  0.0000  0.0000
 9811OM     OM1 9811   8.001   1.796   0.907  0.0000  0.0000  0.0000
 9812OM     OM1 9812   8.109   1.860   0.679  0.0000  0.0000  0.0000
 9813OM     OM1 9813   2.129   5.782   9.418  0.0000  0.0000  0.0000
 9814OM     OM1 9814   1.931   5.803   9.582  0.0000  0.0000  0.0000
 9815OM     OM1 9815   1.897   5.696   9.349  0.0000  0.0000  0.0000
 9816OM     OM1 9816   0.241   8.162   9.280  0.0000  0.0000  0.0000
 9817OM     OM1 9817   0.344   4.620   0.576  0.0000  0.0000  0.0000
 9818OM     OM1 9818   0.127   4.753   0.540  0.0000  0.0000  0.0000
 9819OM     OM1 9819   2.907   7.370   0.831  0.0000  0.0000  0.0000
 9820OM     OM1 9820   2.934   7.536   0.639  0.0000  0.0000  0.0000
 9821OM     OM1 9821   6.737   1.674   9.045  0.0000  0.0000  0.0000
 9822OM     OM1 9822   8.759   1.057   8.391  0.0000  0.0000  0.0000
 9823OM     OM1 9823   8.940   1.117   8.219  0.0000  0.0000  0.0000
 9824OM     OM1 9824   1.352   8.214   8.550  0.0000  0.0000  0.0000
 9825OM     OM1 9825   7.532   2.125   1.109  0.0000  0.0000  0.0000
 9826OM     OM1 9826   2.208   6.027   9.390  0.0000  0.0000  0.0000
 9827OM     OM1 9827   8.356   2.955   8.393  0.0000  0.0000  0.0000
 9828OM     OM1 9828   8.214   3.176   8.344  0.0000  0.0000  0.0000
 9829OM     OM1 9829   2.133   7.505   9.187  0.0000  0.0000  0.0000
 9830OM     OM1 9830   2.323   7.670   9.274  0.0000  0.0000  0.0000
 9831OM     OM1 9831   1.173   4.166   0.402  0.0000  0.0000  0.0000
 9832OM     OM1 9832   1.060   4.175   0.170  0.0000  0.0000  0.0000
 9833OM     OM1 9833   0.986   4.004   0.351  0.0000  0.0000  0.0000
 9834OM     OM1 9834   6.598   9.270   8.929  0.0000  0.0000  0.0000
 9835OM     OM1 9835   0.955   0.271   8.450  0.0000  0.0000  0.0000
 9836OM     OM1 9836   8.505   2.120   9.382  0.0000  0.0000  0.0000
 9837OM     OM1 9837   8.362   1.893   9.401  0.0000  0.0000  0.0000
 9838OM     OM1 9838   8.245   2.120   9.395  0.0000  0.0000  0.0000
 9839OM     OM1 9839   7.014   1.036   9.349  0.0000  0.0000  0.0000
 9840OM     OM1 9840   7.183   0.841   9.381  0.0000  0.0000  0.0000
 9841OM     OM1 9841   1.575   8.499   0.420  0.0000  0.0000  0.0000
 9842OM     OM1 9842   1.504   8.747   0.400  0.0000  0.0000  0.0000
 9843OM     OM1 9843   2.975   7.334   8.502  0.0000  0.0000  0.0000
 9844OM     OM1 9844   3.011   7.122   8.359  0.0000  0.0000  0.0000
 9845OM     OM1 9845   3.194   1.876   0.021  0.0000  0.0000  0.0000
 9846OM     OM1 9846   3.303   1.802   0.249  0.0000  0.0000  0.0000
 9847OM     OM1 9847   3.233   1.623   0.056  0.0000  0.0000  0.0000
 9848OM     OM1 9848   7.332   4.016   9.311  0.0000  0.0000  0.0000
 9849OM     OM1 9849   0.624   5.475   0.507  0.0000  0.0000  0.0000
 9850OM     OM1 9850   0.860   5.387   0.539  0.0000  0.0000  0.0000
 9851OM     OM1 9851   8.566   9.547   0.933  0.0000  0.0000  0.0000
 9852OM     OM1 9852   5.942   1.698   1.404  0.0000  0.0000  0.0000
 9853OM     OM1 9853   6.160   1.678   1.277  0.0000  0.0000  0.0000
 9854OM     OM1 9854   1.988   3.305   0.191  0.0000  0.0000  0.0000
 9855OM     OM1 9855   3.850   8.929   8.591  0.0000  0.0000  0.0000
 9856OM     OM1 9856   3.760   9.167   8.656  0.0000  0.0000  0.0000
 9857OM     OM1 9857   1.051   7.138   0.135  0.0000  0.0000  0.0000
 9858OM     OM1 9858   2.905   0.010   8.382  0.0000  0.0000  0.0000
 9859OM     OM1 9859   3.052   0.219   8.310  0.0000  0.0000  0.0000
 9860OM     OM1 9860   1.156   8.305   0.554  0.0000  0.0000  0.0000
 9861OM     OM1 9861   0.927   8.327   0.669  0.0000  0.0000  0.0000
 9862OM     OM1 9862   3.194   0.949   9.482  0.0000  0.0000  0.0000
 9863OM     OM1 9863   2.976   0.964   9.344  0.0000  0.0000  0.0000
 9864OM     OM1 9864   5.316   7.356   8.823  0.0000  0.0000  0.0000
 9865OM     OM1 9865   1.668   3.720   0.788  0.0000  0.0000  0.0000
 9866OM     OM1 9866   1.861   3.795   0.638  0.0000  0.0000  0.0000
 9867OM     OM1 9867   4.468   1.681   0.799  0.0000  0.0000  0.0000
 9868OM     OM1 9868   4.459   1.461   0.951  0.0000  0.0000  0.0000
 9869OM     OM1 9869   4.252   1.606   0.903  0.0000  0.0000  0.0000
 9870OM     OM1 9870   3.204   6.892   9.001  0.0000  0.0000  0.0000
 9871OM     OM1 9871   4.245   0.265   0.638  0.0000  0.0000  0.0000
 9872OM     OM1 9872   4.425   0.166   0.470  0.0000  0.0000  0.0000
 9873OM     OM1 9873   6.016   4.029   8.590  0.0000  0.0000  0.0000
 9874OM     OM1 9874   5.908   3.973   8.817  0.0000  0.0000  0.0000
 9875OM     OM1 9875   7.634   8.655   8.537  0.0000  0.0000  0.0000
 9876OM     OM1 9876   7.769   8.520   8.717  0.0000  0.0000  0.0000
 9877OM     OM1 9877   7.985   1.638   1.117  0.0000  0.0000  0.0000
 9878OM     OM1 9878   7.919   1.545   0.878  0.0000  0.0000  0.0000
 9879OM     OM1 9879   4.553   8.280   0.438  0.0000  0.0000  0.0000
 9880OM     OM1 9880   1.314   6.804   0.774  0.0000  0.0000  0.0000
 9881OM     OM1 9881   1.215   6.885   0.550  0.0000  0.0000  0.0000
 9882OM     OM1 9882   2.213   6.135   8.732  0.0000  0.0000  0.0000
 9883OM     OM1 9883   2.322   6.261   8.933  0.0000  0.0000  0.0000
 9884OM     OM1 9884   6.221   6.648   0.276  0.0000  0.0000  0.0000
 9885OM     OM1 9885   0.439   9.336   0.897  0.0000  0.0000  0.0000
 9886OM     OM1 9886   1.163   7.967   9.305  0.0000  0.0000  0.0000
 9887OM     OM1 9887   4.932   2.209   0.242  0.0000  0.0000  0.0000
 9888OM     OM1 9888   5.076   2.576   0.418  0.0000  0.0000  0.0000
 9889OM     OM1 9889   5.041   2.454   0.203  0.0000  0.0000  0.0000
 9890OM     OM1 9890   5.629   6.375   9.208  0.0000  0.0000  0.0000
 9891OM     OM1 9891   5.854   6.509   9.239  0.0000  0.0000  0.0000
 9892OM     OM1 9892   5.630   6.626   9.207  0.0000  0.0000  0.0000
 9893OM     OM1 9893   4.086   0.687   0.528  0.0000  0.0000  0.0000
 9894OM     OM1 9894   4.191   0.510   0.671  0.0000  0.0000  0.0000
 9895OM     OM1 9895   2.901   2.476   9.250  0.0000  0.0000  0.0000
 9896OM     OM1 9896   9.150   6.605   0.295  0.0000  0.0000  0.0000
 9897OM     OM1 9897   4.064   0.184   0.000  0.0000  0.0000  0.0000
 9898OM     OM1 9898   3.870   0.275   0.143  0.0000  0.0000  0.0000
 9899OM     OM1 9899   6.774   3.195   1.279  0.0000  0.0000  0.0000
 9900OM     OM1 9900   8.085   1.168   0.362  0.0000  0.0000  0.0000
 9901OM     OM1 9901   7.862   1.205   0.497  0.0000  0.0000  0.0000
 9902OM     OM1 9902   7.929   0.964   0.421  0.0000  0.0000  0.0000
 9903OM     OM1 9903   3.034   3.732   1.282  0.0000  0.0000  0.0000
 9904OM     OM1 9904   2.875   3.511   1.262  0.0000  0.0000  0.0000
 9905OM     OM1 9905   2.819   3.730   1.134  0.0000  0.0000  0.0000
 9906OM     OM1 9906   1.268   5.522   9.391  0.0000  0.0000  0.0000
 9907OM     OM1 9907   1.095   5.455   9.578  0.0000  0.0000  0.0000
 9908OM     OM1 9908   6.974   0.853   8.915  0.0000  0.0000  0.0000
 9909OM     OM1 9909   6.810   0.658   8.906  0.0000  0.0000  0.0000
 9910OM     OM1 9910   7.320   9.257   8.422  0.0000  0.0000  0.0000
 9911OM     OM1 9911   3.055   9.394   8.763  0.0000  0.0000  0.0000
 9912OM     OM1 9912   7.641   8.561   9.316  0.0000  0.0000  0.0000
 9913OM     OM1 9913   6.957   3.669   0.990  0.0000  0.0000  0.0000
 9914OM     OM1 9914   5.526   0.257   8.795  0.0000  0.0000  0.0000
 9915OM     OM1 9915   5.785   0.226   8.809  0.0000  0.0000  0.0000
 9916OM     OM1 9916   5.036   2.329   9.310  0.0000  0.0000  0.0000
 9917OM     OM1 9917   2.715   5.009   0.673  0.0000  0.0000  0.0000
 9918OM     OM1 9918   2.764   5.004   0.418  0.0000  0.0000  0.0000
 9919OM     OM1 9919   3.995   6.588   8.566  0.0000  0.0000  0.0000
 9920OM     OM1 9920   4.137   6.432   8.713  0.0000  0.0000  0.0000
 9921OM     OM1 9921   7.115   4.809   8.758  0.0000  0.0000  0.0000
 9922OM     OM1 9922   3.572   6.180   0.341  0.0000  0.0000  0.0000
 9923OM     OM1 9923   3.372   6.660   0.321  0.0000  0.0000  0.0000
 9924OM     OM1 9924   7.842   7.442   9.166  0.0000  0.0000  0.0000
 9925OM     OM1 9925   7.852   7.715   9.148  0.0000  0.0000  0.0000
 9926OM     OM1 9926   8.001   1.309   0.937  0.0000  0.0000  0.0000
 9927OM     OM1 9927   2.682   9.502   8.302  0.0000  0.0000  0.0000
 9928OM     OM1 9928   7.506   7.538   9.507  0.0000  0.0000  0.0000
 9929OM     OM1 9929   4.679   2.812   9.192  0.0000  0.0000  0.0000
 9930OM     OM1 9930   2.484   0.852   8.355  0.0000  0.0000  0.0000
 9931OM     OM1 9931   8.703   4.981   9.387  0.0000  0.0000  0.0000
 9932OM     OM1 9932   8.578   5.034   0.003  0.0000  0.0000  0.0000
 9933OM     OM1 9933   4.352   4.841   1.115  0.0000  0.0000  0.0000
 9934OM     OM1 9934   7.852   0.725   0.533  0.0000  0.0000  0.0000
 9935OM     OM1 9935   3.560   9.256   8.805  0.0000  0.0000  0.0000
 9936OM     OM1 9936   0.138   4.388   9.546  0.0000  0.0000  0.0000
 9937OM     OM1 9937   9.589   4.265   9.382  0.0000  0.0000  0.0000
 9938OM     OM1 9938   6.251   7.718   0.503  0.0000  0.0000  0.0000
 9939OM     OM1 9939   8.161   7.819   8.556  0.0000  0.0000  0.0000
 9940OM     OM1 9940   8.040   8.122   8.889  0.0000  0.0000  0.0000
 9941OM     OM1 9941   3.972   7.168   0.138  0.0000  0.0000  0.0000
 9942OM     OM1 9942   3.755   7.091   0.030  0.0000  0.0000  0.0000
 9943OM     OM1 9943   1.344   0.627   8.682  0.0000  0.0000  0.0000
 9944OM     OM1 9944   6.081   7.386   0.664  0.0000  0.0000  0.0000
 9945OM     OM1 9945   1.810   4.885   0.515  0.0000  0.0000  0.0000
 9946OM     OM1 9946   1.613   4.847   0.356  0.0000  0.0000  0.0000
 9947OM     OM1 9947   8.751   2.592   0.852  0.0000  0.0000  0.0000
 9948OM     OM1 9948   8.977   2.595   0.974  0.0000  0.0000  0.0000
 9949OM     OM1 9949   8.542   6.711   1.130  0.0000  0.0000  0.0000
 9950OM     OM1 9950   8.486   6.473   1.241  0.0000  0.0000  0.0000
 9951OM     OM1 9951   4.698   3.776   9.206  0.0000  0.0000  0.0000
 9952OM     OM1 9952   4.501   3.945   9.218  0.0000  0.0000  0.0000
 9953OM     OM1 9953   4.683   3.965   9.029  0.0000  0.0000  0.0000
 9954OM     OM1 9954   4.751   4.025   9.271  0.0000  0.0000  0.0000
 9955OM     OM1 9955   5.481   5.636   8.910  0.0000  0.0000  0.0000
 9956OM     OM1 9956   1.520   8.668   0.157  0.0000  0.0000  0.0000
 9957OM     OM1 9957   9.063   9.303   0.138  0.0000  0.0000  0.0000
 9958OM     OM1 9958   0.898   3.137   9.542  0.0000  0.0000  0.0000
 9959OM     OM1 9959   8.981   8.940   9.120  0.0000  0.0000  0.0000
 9960OM     OM1 9960   9.067   8.865   9.344  0.0000  0.0000  0.0000
 9961OM     OM1 9961   4.918   1.011   0.843  0.0000  0.0000  0.0000
 9962OM     OM1 9962   8.544   1.539   8.439  0.0000  0.0000  0.0000
 9963OM     OM1 9963   8.669   1.310   8.397  0.0000  0.0000  0.0000
 9964OM     OM1 9964   7.630   3.243   8.529  0.0000  0.0000  0.0000
 9965OM     OM1 9965   4.529   5.220   1.090  0.0000  0.0000  0.0000
 9966OM     OM1 9966   4.267   5.173   1.079  0.0000  0.0000  0.0000
 9967OM     OM1 9967   6.468   4.310   8.951  0.0000  0.0000  0.0000
 9968OM     OM1 9968   4.752   8.230   0.074  0.0000  0.0000  0.0000
 9969OM     OM1 9969   4.955   8.072   0.095  0.0000  0.0000  0.0000
 9970OM     OM1 9970   1.474   6.657   9.192  0.0000  0.0000  0.0000
 9971OM     OM1 9971   6.195   4.453   1.237  0.0000  0.0000  0.0000
 9972OM     OM1 9972   6.197   4.607   1.015  0.0000  0.0000  0.0000
 9973OM     OM1 9973   0.158   4.258   0.901  0.0000  0.0000  0.0000
 9974OM     OM1 9974   0.145   3.840   8.711  0.0000  0.0000  0.0000
 9975OM     OM1 9975   0.173   3.784   8.949  0.0000  0.0000  0.0000
 9976OM     OM1 9976   2.344   7.564   0.475  0.0000  0.0000  0.0000
 9977OM     OM1 9977   7.999   8.502   8.604  0.0000  0.0000  0.0000
 9978OM     OM1 9978   8.375   8.752   8.420  0.0000  0.0000  0.0000
 9979OM     OM1 9979   3.360   5.746   0.704  0.0000  0.0000  0.0000
 9980OM     OM1 9980   3.482   5.963   0.696  0.0000  0.0000  0.0000
 9981OM     OM1 9981   3.525   3.275   0.247  0.0000  0.0000  0.0000
 9982OM     OM1 9982   5.454   4.403   8.717  0.0000  0.0000  0.0000
 9983OM     OM1 9983   1.027   5.078   8.902  0.0000  0.0000  0.0000
 9984OM     OM1 9984   1.138   0.442   0.746  0.0000  0.0000  0.0000
 9985OM     OM1 9985   1.319   0.324   0.886  0.0000  0.0000  0.0000
 9986OM     OM1 9986   0.202   7.488   9.517  0.0000  0.0000  0.0000
 9987OM     OM1 9987   0.078   0.657   0.337  0.0000  0.0000  0.0000
 9988OM     OM1 9988   6.488   4.908   9.093  0.0000  0.0000  0.0000
 9989OM     OM1 9989   6.433   4.676   9.200  0.0000  0.0000  0.0000
 9990OM     OM1 9990   1.400   0.891   1.290  0.0000  0.0000  0.0000
 9991OM     OM1 9991   0.778   6.100   1.342  0.0000  0.0000  0.0000
 9992OM     OM1 9992   0.647   6.282   1.201  0.0000  0.0000  0.0000
 9993OM     OM1 9993   3.754   9.353   1.179  0.0000  0.0000  0.0000
 9994OM     OM1 9994   4.143   9.460   1.047  0.0000  0.0000  0.0000
 9995OM     OM1 9995   4.010   9.381   1.253  0.0000  0.0000  0.0000
 9996OM     OM1 9996   5.494   1.097   0.007  0.0000  0.0000  0.0000
 9997OM     OM1 9997   8.697   7.138   8.559  0.0000  0.0000  0.0000
 9998OM     OM1 9998   8.647   7.396   8.510  0.0000  0.0000  0.0000
 9999OM     OM1 9999   8.726   7.259   0.275  0.0000  0.0000  0.0000
10000OM     OM110000   8.778   7.432   0.456  0.0000  0.0000  0.0000
10001OM     OM110001   8.956   7.252   0.380  0.0000  0.0000  0.0000
10002OM     OM110002   1.153   4.299   8.681  0.0000  0.0000  0.0000
10003OM     OM110003   1.331   4.165   8.781  0.0000  0.0000  0.0000
10004OM     OM110004   1.380   4.301   8.559  0.0000  0.0000  0.0000
10005OM     OM110005   2.155   6.196   9.592  0.0000  0.0000  0.0000
10006OM     OM110006   1.960   6.284   0.118  0.0000  0.0000  0.0000
10007OM     OM110007   5.593   5.727   0.362  0.0000  0.0000  0.0000
10008OM     OM110008   6.542   6.008   1.066  0.0000  0.0000  0.0000
10009OM     OM110009   3.800   9.321   8.855  0.0000  0.0000  0.0000
10010OM     OM110010   2.052   1.952   0.258  0.0000  0.0000  0.0000
10011OM     OM110011   2.285   1.844   0.280  0.0000  0.0000  0.0000
10012OM     OM110012   8.075   4.448   8.235  0.0000  0.0000  0.0000
10013OM     OM110013   0.781   8.314   9.211  0.0000  0.0000  0.0000
10014OM     OM110014   0.721   8.083   9.109  0.0000  0.0000  0.0000
10015OM     OM110015   8.042   4.203   8.776  0.0000  0.0000  0.0000
10016OM     OM110016   6.863   0.566   0.463  0.0000  0.0000  0.0000
10017OM     OM110017   6.969   0.616   0.224  0.0000  0.0000  0.0000
10018OM     OM110018   1.947   4.669   0.496  0.0000  0.0000  0.0000
10019OM     OM110019   1.895   4.455   0.354  0.0000  0.0000  0.0000
10020OM     OM110020   2.036   4.649   0.245  0.0000  0.0000  0.0000
10021OM     OM110021   2.228   1.532   1.083  0.0000  0.0000  0.0000
10022OM     OM110022   8.343   8.751   8.882  0.0000  0.0000  0.0000
10023OM     OM110023   8.444   8.812   8.662  0.0000  0.0000  0.0000
10024OM     OM110024   8.102   8.809   8.906  0.0000  0.0000  0.0000
10025OM     OM110025   1.440   2.477   9.169  0.0000  0.0000  0.0000
10026OM     OM110026   1.469   0.305   0.180  0.0000  0.0000  0.0000
10027OM     OM110027   4.313   3.023   0.308  0.0000  0.0000  0.0000
10028OM     OM110028   4.374   3.271   0.363  0.0000  0.0000  0.0000
10029OM     OM110029   9.319   7.879   8.733  0.0000  0.0000  0.0000
10030OM     OM110030   6.948   2.629   1.342  0.0000  0.0000  0.0000
10031OM     OM110031   7.463   9.359   8.621  0.0000  0.0000  0.0000
10032OM     OM110032   7.517   0.108   8.554  0.0000  0.0000  0.0000
10033OM     OM110033   0.471   2.372   1.267  0.0000  0.0000  0.0000
10034OM     OM110034   6.444   4.055   1.343  0.0000  0.0000  0.0000
10035OM     OM110035   6.607   4.244   1.266  0.0000  0.0000  0.0000
10036OM     OM110036   6.368   4.298   1.357  0.0000  0.0000  0.0000
10037OM     OM110037   0.790   6.113   8.768  0.0000  0.0000  0.0000
10038OM     OM110038   0.771   6.364   8.697  0.0000  0.0000  0.0000
10039OM     OM110039   6.750   5.322   0.127  0.0000  0.0000  0.0000
10040OM     OM110040   0.715   6.299   9.096  0.0000  0.0000  0.0000
10041OM     OM110041   0.913   7.759   9.482  0.0000  0.0000  0.0000
10042OM     OM110042   6.107   0.829   8.543  0.0000  0.0000  0.0000
10043OM     OM110043   6.084   1.068   8.438  0.0000  0.0000  0.0000
10044OM     OM110044   2.294   0.705   8.915  0.0000  0.0000  0.0000
10045OM     OM110045   2.429   0.908   9.016  0.0000  0.0000  0.0000
10046OM     OM110046   4.038   4.764   8.470  0.0000  0.0000  0.0000
10047OM     OM110047   3.878   4.938   8.372  0.0000  0.0000  0.0000
10048OM     OM110048   1.503   9.137   1.290  0.0000  0.0000  0.0000
10049OM     OM110049   1.912   1.842   8.432  0.0000  0.0000  0.0000
10050OM     OM110050   2.086   1.947   8.602  0.0000  0.0000  0.0000
10051OM     OM110051   2.973   3.052   0.712  0.0000  0.0000  0.0000
10052OM     OM110052   8.234   1.821   0.458  0.0000  0.0000  0.0000
10053OM     OM110053   7.443   0.445   8.203  0.0000  0.0000  0.0000
10054OM     OM110054   2.154   2.665   0.490  0.0000  0.0000  0.0000
10055OM     OM110055   6.673   8.858   8.593  0.0000  0.0000  0.0000
10056OM     OM110056   7.451   8.024   0.644  0.0000  0.0000  0.0000
10057OM     OM110057   0.240   8.022   0.642  0.0000  0.0000  0.0000
10058OM     OM110058   0.274   8.049   0.387  0.0000  0.0000  0.0000
10059OM     OM110059   8.652   4.008   0.347  0.0000  0.0000  0.0000
10060OM     OM110060   8.663   3.746   0.405  0.0000  0.0000  0.0000
10061OM     OM110061   8.837   3.867   0.244  0.0000  0.0000  0.0000
10062OM     OM110062   3.088   1.288   0.591  0.0000  0.0000  0.0000
10063OM     OM110063   0.070   8.071   8.470  0.0000  0.0000  0.0000
10064OM     OM110064   0.188   8.318   8.664  0.0000  0.0000  0.0000
10065OM     OM110065   5.057   7.562   0.395  0.0000  0.0000  0.0000
10066OM     OM110066   4.889   7.675   0.546  0.0000  0.0000  0.0000
10067OM     OM110067   2.383   3.449   8.561  0.0000  0.0000  0.0000
10068OM     OM110068   2.950   3.311   8.472  0.0000  0.0000  0.0000
10069OM     OM110069   2.923   3.566   8.371  0.0000  0.0000  0.0000
10070OM     OM110070   1.437   8.530   9.563  0.0000  0.0000  0.0000
10071OM     OM110071   1.281   4.642   9.037  0.0000  0.0000  0.0000
10072OM     OM110072   6.791   0.950   0.950  0.0000  0.0000  0.0000
10073OM     OM110073   6.530   0.974   0.939  0.0000  0.0000  0.0000
10074OM     OM110074   5.260   0.675   8.795  0.0000  0.0000  0.0000
10075OM     OM110075   5.153   0.804   8.349  0.0000  0.0000  0.0000
10076OM     OM110076   8.146   2.731   1.118  0.0000  0.0000  0.0000
10077OM     OM110077   4.963   5.150   0.643  0.0000  0.0000  0.0000
10078OM     OM110078   5.184   5.068   0.522  0.0000  0.0000  0.0000
10079OM     OM110079   5.177   5.310   0.591  0.0000  0.0000  0.0000
10080OM     OM110080   1.214   7.307   8.341  0.0000  0.0000  0.0000
10081OM     OM110081   1.393   7.564   8.482  0.0000  0.0000  0.0000
10082OM     OM110082   2.170   0.127   1.113  0.0000  0.0000  0.0000
10083OM     OM110083   5.156   6.973   8.297  0.0000  0.0000  0.0000
10084OM     OM110084   4.923   7.343   8.541  0.0000  0.0000  0.0000
10085OM     OM110085   0.955   1.361   8.319  0.0000  0.0000  0.0000
10086OM     OM110086   1.027   1.124   8.239  0.0000  0.0000  0.0000
10087OM     OM110087   8.563   4.900   1.198  0.0000  0.0000  0.0000
10088OM     OM110088   5.031   1.164   9.187  0.0000  0.0000  0.0000
10089OM     OM110089   3.473   5.053   0.677  0.0000  0.0000  0.0000
10090OM     OM110090   6.154   6.428   0.375  0.0000  0.0000  0.0000
10091OM     OM110091   7.807   5.074   9.190  0.0000  0.0000  0.0000
10092OM     OM110092   7.764   4.966   9.434  0.0000  0.0000  0.0000
10093OM     OM110093   6.088   3.824   8.922  0.0000  0.0000  0.0000
10094OM     OM110094   5.827   3.826   9.002  0.0000  0.0000  0.0000
10095OM     OM110095   1.949   0.699   9.212  0.0000  0.0000  0.0000
10096OM     OM110096   1.775   0.893   9.194  0.0000  0.0000  0.0000
10097OM     OM110097   5.386   7.119   8.739  0.0000  0.0000  0.0000
10098OM     OM110098   3.602   7.630   0.424  0.0000  0.0000  0.0000
10099OM     OM110099   3.733   7.394   0.467  0.0000  0.0000  0.0000
10100OM     OM110100   3.483   7.399   0.441  0.0000  0.0000  0.0000
10101OM     OM110101   5.392   4.679   0.326  0.0000  0.0000  0.0000
10102OM     OM110102   1.638   1.912   9.437  0.0000  0.0000  0.0000
10103OM     OM110103   1.573   1.674   9.471  0.0000  0.0000  0.0000
10104OM     OM110104   3.918   2.525   1.237  0.0000  0.0000  0.0000
10105OM     OM110105   1.034   5.338   8.454  0.0000  0.0000  0.0000
10106OM     OM110106   3.389   5.238   8.986  0.0000  0.0000  0.0000
10107OM     OM110107   3.619   8.131   9.445  0.0000  0.0000  0.0000
10108OM     OM110108   2.136   5.030   0.634  0.0000  0.0000  0.0000
10109OM     OM110109   1.987   4.835   0.701  0.0000  0.0000  0.0000
10110OM     OM110110   2.993   8.682   8.896  0.0000  0.0000  0.0000
10111OM     OM110111   2.989   8.739   8.649  0.0000  0.0000  0.0000
10112OM     OM110112   1.437   2.134   8.865  0.0000  0.0000  0.0000
10113OM     OM110113   1.428   2.196   8.617  0.0000  0.0000  0.0000
10114OM     OM110114   3.833   3.431   8.580  0.0000  0.0000  0.0000
10115OM     OM110115   8.768   7.678   0.363  0.0000  0.0000  0.0000
10116OM     OM110116   8.653   7.629   0.590  0.0000  0.0000  0.0000
10117OM     OM110117   1.547   1.129   0.663  0.0000  0.0000  0.0000
10118OM     OM110118   1.370   0.964   0.568  0.0000  0.0000  0.0000
10119OM     OM110119   5.337   2.269   1.088  0.0000  0.0000  0.0000
10120OM     OM110120   3.420   3.158   0.461  0.0000  0.0000  0.0000
10121OM     OM110121   8.380   3.259   1.242  0.0000  0.0000  0.0000
10122OM     OM110122   2.320   7.307   9.012  0.0000  0.0000  0.0000
10123OM     OM110123   7.540   1.845   9.239  0.0000  0.0000  0.0000
10124OM     OM110124   3.194   4.682   8.279  0.0000  0.0000  0.0000
10125OM     OM110125   2.095   2.204   0.308  0.0000  0.0000  0.0000
10126OM     OM110126   2.090   2.037   0.506  0.0000  0.0000  0.0000
10127OM     OM110127   7.658   2.611   0.248  0.0000  0.0000  0.0000
10128OM     OM110128   0.661   3.530   0.528  0.0000  0.0000  0.0000
10129OM     OM110129   8.680   7.841   0.738  0.0000  0.0000  0.0000
10130OM     OM110130   8.820   7.966   0.931  0.0000  0.0000  0.0000
10131OM     OM110131   7.192   4.459   8.931  0.0000  0.0000  0.0000
10132OM     OM110132   2.575   8.381   0.038  0.0000  0.0000  0.0000
10133OM     OM110133   2.781   8.287   9.536  0.0000  0.0000  0.0000
10134OM     OM110134   2.539   8.161   9.518  0.0000  0.0000  0.0000
10135OM     OM110135   2.667   8.134   0.120  0.0000  0.0000  0.0000
10136OM     OM110136   2.529   0.789   9.558  0.0000  0.0000  0.0000
10137OM     OM110137   2.956   8.715   9.154  0.0000  0.0000  0.0000
10138OM     OM110138   1.247   0.988   0.336  0.0000  0.0000  0.0000
10139OM     OM110139   7.929   2.828   0.993  0.0000  0.0000  0.0000
10140OM     OM110140   9.508   1.675   8.292  0.0000  0.0000  0.0000
10141OM     OM110141   8.509   7.584   8.363  0.0000  0.0000  0.0000
10142OM     OM110142   8.152   7.482   0.150  0.0000  0.0000  0.0000
10143OM     OM110143   5.858   6.492   8.398  0.0000  0.0000  0.0000
10144OM     OM110144   8.713   6.503   8.464  0.0000  0.0000  0.0000
10145OM     OM110145   0.807   1.306   1.088  0.0000  0.0000  0.0000
10146OM     OM110146   0.775   1.060   1.202  0.0000  0.0000  0.0000
10147OM     OM110147   0.671   1.117   0.973  0.0000  0.0000  0.0000
10148OM     OM110148   7.272   6.542   1.313  0.0000  0.0000  0.0000
10149OM     OM110149   7.154   6.338   1.196  0.0000  0.0000  0.0000
10150OM     OM110150   8.975   9.548   0.166  0.0000  0.0000  0.0000
10151OM     OM110151   8.833   9.352   0.041  0.0000  0.0000  0.0000
10152OM     OM110152   8.842   4.821   0.273  0.0000  0.0000  0.0000
10153OM     OM110153   3.949   1.253   1.010  0.0000  0.0000  0.0000
10154OM     OM110154   4.154   1.394   1.011  0.0000  0.0000  0.0000
10155OM     OM110155   8.593   1.215   9.343  0.0000  0.0000  0.0000
10156OM     OM110156   8.265   1.288   9.156  0.0000  0.0000  0.0000
10157OM     OM110157   2.639   1.118   0.663  0.0000  0.0000  0.0000
10158OM     OM110158   3.305   3.775   1.219  0.0000  0.0000  0.0000
10159OM     OM110159   1.116   0.984   8.441  0.0000  0.0000  0.0000
10160OM     OM110160   0.897   5.556   0.112  0.0000  0.0000  0.0000
10161OM     OM110161   0.891   0.483   0.699  0.0000  0.0000  0.0000
10162OM     OM110162   0.662   0.509   0.820  0.0000  0.0000  0.0000
10163OM     OM110163   6.365   0.279   9.269  0.0000  0.0000  0.0000
10164OM     OM110164   6.374   0.496   9.143  0.0000  0.0000  0.0000
10165OM     OM110165   7.838   4.346   8.260  0.0000  0.0000  0.0000
10166OM     OM110166   4.792   3.101   0.991  0.0000  0.0000  0.0000
10167OM     OM110167   1.067   2.293   9.400  0.0000  0.0000  0.0000
10168OM     OM110168   0.169   1.924   9.279  0.0000  0.0000  0.0000
10169OM     OM110169   0.147   2.097   9.074  0.0000  0.0000  0.0000
10170OM     OM110170   1.430   3.660   0.851  0.0000  0.0000  0.0000
10171OM     OM110171   3.221   3.042   0.596  0.0000  0.0000  0.0000
10172OM     OM110172   2.775   9.420   0.661  0.0000  0.0000  0.0000
10173OM     OM110173   3.017   9.296   0.616  0.0000  0.0000  0.0000
10174OM     OM110174   6.012   0.257   8.923  0.0000  0.0000  0.0000
10175OM     OM110175   5.080   3.189   9.285  0.0000  0.0000  0.0000
10176OM     OM110176   5.132   2.974   9.140  0.0000  0.0000  0.0000
10177OM     OM110177   1.459   4.811   8.960  0.0000  0.0000  0.0000
10178OM     OM110178   4.903   3.620   9.161  0.0000  0.0000  0.0000
10179OM     OM110179   5.051   3.445   9.265  0.0000  0.0000  0.0000
10180OM     OM110180   5.160   3.665   9.171  0.0000  0.0000  0.0000
10181OM     OM110181   8.539   7.848   0.517  0.0000  0.0000  0.0000
10182OM     OM110182   8.451   7.724   0.734  0.0000  0.0000  0.0000
10183OM     OM110183   0.177   1.975   9.543  0.0000  0.0000  0.0000
10184OM     OM110184   0.392   2.099   0.043  0.0000  0.0000  0.0000
10185OM     OM110185   7.335   5.206   1.234  0.0000  0.0000  0.0000
10186OM     OM110186   7.589   1.939   8.997  0.0000  0.0000  0.0000
10187OM     OM110187   6.523   3.266   8.741  0.0000  0.0000  0.0000
10188OM     OM110188   6.717   3.162   8.883  0.0000  0.0000  0.0000
10189OM     OM110189   6.662   9.082   8.746  0.0000  0.0000  0.0000
10190OM     OM110190   1.769   5.650   8.641  0.0000  0.0000  0.0000
10191OM     OM110191   1.931   5.555   8.819  0.0000  0.0000  0.0000
10192OM     OM110192   4.563   9.572   9.144  0.0000  0.0000  0.0000
10193OM     OM110193   4.404   0.028   8.960  0.0000  0.0000  0.0000
10194OM     OM110194   4.627   8.671   1.077  0.0000  0.0000  0.0000
10195OM     OM110195   4.793   8.537   1.281  0.0000  0.0000  0.0000
10196OM     OM110196   0.047   2.375   8.659  0.0000  0.0000  0.0000
10197OM     OM110197   0.193   2.247   8.486  0.0000  0.0000  0.0000
10198OM     OM110198   2.124   6.143   0.719  0.0000  0.0000  0.0000
10199OM     OM110199   5.543   7.112   1.247  0.0000  0.0000  0.0000
10200OM     OM110200   2.909   1.985   8.894  0.0000  0.0000  0.0000
10201OM     OM110201   4.294   1.067   9.300  0.0000  0.0000  0.0000
10202OM     OM110202   4.272   1.171   9.060  0.0000  0.0000  0.0000
10203OM     OM110203   6.292   5.733   9.546  0.0000  0.0000  0.0000
10204OM     OM110204   7.331   1.991   0.216  0.0000  0.0000  0.0000
10205OM     OM110205   3.700   5.893   0.564  0.0000  0.0000  0.0000
10206OM     OM110206   9.296   0.342   0.240  0.0000  0.0000  0.0000
10207OM     OM110207   9.139   0.124   0.259  0.0000  0.0000  0.0000
10208OM     OM110208   9.354   0.147   0.083  0.0000  0.0000  0.0000
10209OM     OM110209   1.005   8.750   9.461  0.0000  0.0000  0.0000
10210OM     OM110210   1.264   8.691   9.459  0.0000  0.0000  0.0000
10211OM     OM110211   9.201   1.452   8.790  0.0000  0.0000  0.0000
10212OM     OM110212   9.429   1.339   8.878  0.0000  0.0000  0.0000
10213OM     OM110213   1.102   7.527   8.258  0.0000  0.0000  0.0000
10214OM     OM110214   0.520   2.356   8.973  0.0000  0.0000  0.0000
10215OM     OM110215   0.645   2.577   8.876  0.0000  0.0000  0.0000
10216OM     OM110216   0.817   6.519   0.732  0.0000  0.0000  0.0000
10217OM     OM110217   0.496   7.917   0.345  0.0000  0.0000  0.0000
10218OM     OM110218   2.794   4.805   0.237  0.0000  0.0000  0.0000
10219OM     OM110219   2.725   5.044   0.165  0.0000  0.0000  0.0000
10220OM     OM110220   4.019   5.630   1.023  0.0000  0.0000  0.0000
10221OM     OM110221   4.124   5.842   1.138  0.0000  0.0000  0.0000
10222OM     OM110222   3.966   5.687   1.278  0.0000  0.0000  0.0000
10223OM     OM110223   0.222   2.029   0.952  0.0000  0.0000  0.0000
10224OM     OM110224   9.565   4.558   0.028  0.0000  0.0000  0.0000
10225OM     OM110225   3.557   7.815   8.928  0.0000  0.0000  0.0000
10226OM     OM110226   3.532   7.568   8.858  0.0000  0.0000  0.0000
10227OM     OM110227   3.343   7.738   8.796  0.0000  0.0000  0.0000
10228OM     OM110228   2.358   3.537   9.001  0.0000  0.0000  0.0000
10229OM     OM110229   0.441   2.307   8.490  0.0000  0.0000  0.0000
10230OM     OM110230   9.518   4.364   8.451  0.0000  0.0000  0.0000
10231OM     OM110231   1.353   8.439   8.680  0.0000  0.0000  0.0000
10232OM     OM110232   2.372   4.080   9.023  0.0000  0.0000  0.0000
10233OM     OM110233   2.571   3.977   9.153  0.0000  0.0000  0.0000
10234OM     OM110234   1.871   8.897   0.025  0.0000  0.0000  0.0000
10235OM     OM110235   1.658   9.039   0.063  0.0000  0.0000  0.0000
10236OM     OM110236   6.265   6.955   0.559  0.0000  0.0000  0.0000
10237OM     OM110237   6.219   7.204   0.503  0.0000  0.0000  0.0000
10238OM     OM110238   0.478   4.820   8.360  0.0000  0.0000  0.0000
10239OM     OM110239   0.402   5.056   8.403  0.0000  0.0000  0.0000
10240OM     OM110240   9.354   7.102   9.025  0.0000  0.0000  0.0000
10241OM     OM110241   9.297   7.251   8.817  0.0000  0.0000  0.0000
10242OM     OM110242   7.819   3.923   9.577  0.0000  0.0000  0.0000
10243OM     OM110243   7.794   4.098   9.381  0.0000  0.0000  0.0000
10244OM     OM110244   8.584   3.004   0.438  0.0000  0.0000  0.0000
10245OM     OM110245   4.142   2.686   9.318  0.0000  0.0000  0.0000
10246OM     OM110246   7.837   7.873   9.347  0.0000  0.0000  0.0000
10247OM     OM110247   3.196   6.378   9.007  0.0000  0.0000  0.0000
10248OM     OM110248   4.710   6.310   9.220  0.0000  0.0000  0.0000
10249OM     OM110249   4.882   6.104   9.157  0.0000  0.0000  0.0000
10250OM     OM110250   3.963   0.850   0.690  0.0000  0.0000  0.0000
10251OM     OM110251   7.406   4.133   9.540  0.0000  0.0000  0.0000
10252OM     OM110252   7.546   4.156   9.319  0.0000  0.0000  0.0000
10253OM     OM110253   1.520   4.027   9.000  0.0000  0.0000  0.0000
10254OM     OM110254   1.642   4.200   9.145  0.0000  0.0000  0.0000
10255OM     OM110255   1.252   1.962   8.952  0.0000  0.0000  0.0000
10256OM     OM110256   5.974   2.922   0.623  0.0000  0.0000  0.0000
10257OM     OM110257   6.128   2.958   0.413  0.0000  0.0000  0.0000
10258OM     OM110258   8.751   0.760   8.607  0.0000  0.0000  0.0000
10259OM     OM110259   8.353   0.604   8.591  0.0000  0.0000  0.0000
10260OM     OM110260   4.819   8.214   9.289  0.0000  0.0000  0.0000
10261OM     OM110261   4.639   8.406   9.354  0.0000  0.0000  0.0000
10262OM     OM110262   9.540   0.629   0.845  0.0000  0.0000  0.0000
10263OM     OM110263   8.289   2.383   0.457  0.0000  0.0000  0.0000
10264OM     OM110264   8.045   2.481   0.510  0.0000  0.0000  0.0000
10265OM     OM110265   4.243   7.766   8.649  0.0000  0.0000  0.0000
10266OM     OM110266   1.937   3.519   0.332  0.0000  0.0000  0.0000
10267OM     OM110267   1.976   3.762   0.423  0.0000  0.0000  0.0000
10268OM     OM110268   6.262   4.380   8.812  0.0000  0.0000  0.0000
10269OM     OM110269   6.329   4.513   9.026  0.0000  0.0000  0.0000
10270OM     OM110270   4.138   2.634   1.269  0.0000  0.0000  0.0000
10271OM     OM110271   4.102   2.652   1.011  0.0000  0.0000  0.0000
10272OM     OM110272   8.086   9.070   8.861  0.0000  0.0000  0.0000
10273OM     OM110273   7.737   9.182   8.969  0.0000  0.0000  0.0000
10274OM     OM110274   8.023   5.286   1.221  0.0000  0.0000  0.0000
10275OM     OM110275   8.276   5.295   0.842  0.0000  0.0000  0.0000
10276OM     OM110276   2.120   2.773   8.393  0.0000  0.0000  0.0000
10277OM     OM110277   2.332   2.541   0.627  0.0000  0.0000  0.0000
10278OM     OM110278   2.212   2.412   0.423  0.0000  0.0000  0.0000
10279OM     OM110279   3.209   8.341   9.530  0.0000  0.0000  0.0000
10280OM     OM110280   3.132   8.578   9.584  0.0000  0.0000  0.0000
10281OM     OM110281   4.416   8.790   9.158  0.0000  0.0000  0.0000
10282OM     OM110282   9.457   5.627   8.628  0.0000  0.0000  0.0000
10283OM     OM110283   9.545   5.567   8.863  0.0000  0.0000  0.0000
10284OM     OM110284   2.440   6.768   0.917  0.0000  0.0000  0.0000
10285OM     OM110285   1.405   3.401   0.845  0.0000  0.0000  0.0000
10286OM     OM110286   0.800   3.442   8.366  0.0000  0.0000  0.0000
10287OM     OM110287   0.578   6.074   9.125  0.0000  0.0000  0.0000
10288OM     OM110288   4.336   3.587   8.988  0.0000  0.0000  0.0000
10289OM     OM110289   5.789   2.640   9.124  0.0000  0.0000  0.0000
10290OM     OM110290   5.751   2.982   8.747  0.0000  0.0000  0.0000
10291OM     OM110291   1.464   8.733   8.556  0.0000  0.0000  0.0000
10292OM     OM110292   9.533   5.987   0.543  0.0000  0.0000  0.0000
10293OM     OM110293   8.941   4.725   9.258  0.0000  0.0000  0.0000
10294OM     OM110294   8.740   4.859   9.161  0.0000  0.0000  0.0000
10295OM     OM110295   1.492   4.661   0.108  0.0000  0.0000  0.0000
10296OM     OM110296   1.683   8.943   1.302  0.0000  0.0000  0.0000
10297OM     OM110297   3.082   8.918   9.281  0.0000  0.0000  0.0000
10298OM     OM110298   2.994   8.717   9.416  0.0000  0.0000  0.0000
10299OM     OM110299   8.042   4.610   8.948  0.0000  0.0000  0.0000
10300OM     OM110300   2.503   4.779   9.446  0.0000  0.0000  0.0000
10301OM     OM110301   2.635   4.871   9.239  0.0000  0.0000  0.0000
10302OM     OM110302   2.717   4.762   9.601  0.0000  0.0000  0.0000
10303OM     OM110303   0.878   1.293   8.561  0.0000  0.0000  0.0000
10304OM     OM110304   1.553   2.886   9.373  0.0000  0.0000  0.0000
10305OM     OM110305   0.746   0.480   9.476  0.0000  0.0000  0.0000
10306OM     OM110306   5.414   2.130   1.288  0.0000  0.0000  0.0000
10307OM     OM110307   5.201   1.998   1.335  0.0000  0.0000  0.0000
10308OM     OM110308   2.045   5.582   0.733  0.0000  0.0000  0.0000
10309OM     OM110309   2.878   8.529   9.542  0.0000  0.0000  0.0000
10310OM     OM110310   2.990   8.360   9.390  0.0000  0.0000  0.0000
10311OM     OM110311   0.644   7.108   0.943  0.0000  0.0000  0.0000
10312OM     OM110312   0.638   7.020   1.204  0.0000  0.0000  0.0000
10313OM     OM110313   7.665   7.080   0.036  0.0000  0.0000  0.0000
10314OM     OM110314   9.419   2.031   1.264  0.0000  0.0000  0.0000
10315OM     OM110315   5.758   6.774   0.866  0.0000  0.0000  0.0000
10316OM     OM110316   5.890   6.578   0.928  0.0000  0.0000  0.0000
10317OM     OM110317   7.018   5.607   1.087  0.0000  0.0000  0.0000
10318OM     OM110318   4.386   8.669   0.555  0.0000  0.0000  0.0000
10319OM     OM110319   4.255   8.595   0.760  0.0000  0.0000  0.0000
10320OM     OM110320   4.195   8.495   0.530  0.0000  0.0000  0.0000
10321OM     OM110321   4.805   3.588   0.548  0.0000  0.0000  0.0000
10322OM     OM110322   4.839   3.337   0.629  0.0000  0.0000  0.0000
10323OM     OM110323   4.663   8.837   9.157  0.0000  0.0000  0.0000
10324OM     OM110324   1.409   8.321   0.514  0.0000  0.0000  0.0000
10325OM     OM110325   1.364   3.861   9.138  0.0000  0.0000  0.0000
10326OM     OM110326   1.302   3.942   8.905  0.0000  0.0000  0.0000
10327OM     OM110327   0.063   5.606   9.084  0.0000  0.0000  0.0000
10328OM     OM110328   4.531   2.674   9.006  0.0000  0.0000  0.0000
10329OM     OM110329   2.585   4.172   8.146  0.0000  0.0000  0.0000
10330OM     OM110330   4.106   3.643   1.278  0.0000  0.0000  0.0000
10331OM     OM110331   3.747   4.061   9.537  0.0000  0.0000  0.0000
10332OM     OM110332   3.970   4.129   0.049  0.0000  0.0000  0.0000
10333OM     OM110333   2.278   2.514   8.938  0.0000  0.0000  0.0000
10334OM     OM110334   8.813   6.521   0.537  0.0000  0.0000  0.0000
10335OM     OM110335   9.019   6.422   0.411  0.0000  0.0000  0.0000
10336OM     OM110336   0.682   8.363   0.557  0.0000  0.0000  0.0000
10337OM     OM110337   0.651   8.655   1.032  0.0000  0.0000  0.0000
10338OM     OM110338   0.451   8.795   0.952  0.0000  0.0000  0.0000
10339OM     OM110339   8.931   8.926   0.371  0.0000  0.0000  0.0000
10340OM     OM110340   8.697   8.943   0.495  0.0000  0.0000  0.0000
10341OM     OM110341   2.116   7.391   8.875  0.0000  0.0000  0.0000
10342OM     OM110342   0.450   0.660   0.849  0.0000  0.0000  0.0000
10343OM     OM110343   0.439   0.435   0.717  0.0000  0.0000  0.0000
10344OM     OM110344   8.847   8.210   8.919  0.0000  0.0000  0.0000
10345OM     OM110345   9.032   8.186   9.099  0.0000  0.0000  0.0000
10346OM     OM110346   7.974   0.652   0.742  0.0000  0.0000  0.0000
10347OM     OM110347   4.097   7.621   8.815  0.0000  0.0000  0.0000
10348OM     OM110348   2.088   7.570   0.496  0.0000  0.0000  0.0000
10349OM     OM110349   7.941   8.354   8.821  0.0000  0.0000  0.0000
10350OM     OM110350   6.028   4.503   0.849  0.0000  0.0000  0.0000
10351OM     OM110351   4.535   8.311   9.558  0.0000  0.0000  0.0000
10352OM     OM110352   4.525   8.224   0.189  0.0000  0.0000  0.0000
10353OM     OM110353   4.578   8.051   9.601  0.0000  0.0000  0.0000
10354OM     OM110354   1.730   7.238   0.038  0.0000  0.0000  0.0000
10355OM     OM110355   1.502   4.782   1.250  0.0000  0.0000  0.0000
10356OM     OM110356   2.950   8.598   8.410  0.0000  0.0000  0.0000
10357OM     OM110357   0.887   0.924   8.336  0.0000  0.0000  0.0000
10358OM     OM110358   5.067   1.490   8.688  0.0000  0.0000  0.0000
10359OM     OM110359   4.858   1.459   8.533  0.0000  0.0000  0.0000
10360OM     OM110360   3.437   0.426   8.762  0.0000  0.0000  0.0000
10361OM     OM110361   3.397   0.634   8.931  0.0000  0.0000  0.0000
10362OM     OM110362   3.487   0.389   9.007  0.0000  0.0000  0.0000
10363OM     OM110363   5.521   6.722   0.656  0.0000  0.0000  0.0000
10364OM     OM110364   5.304   6.632   0.760  0.0000  0.0000  0.0000
10365OM     OM110365   5.388   6.867   0.827  0.0000  0.0000  0.0000
10366OM     OM110366   3.211   5.315   0.649  0.0000  0.0000  0.0000
10367OM     OM110367   3.046   5.474   0.775  0.0000  0.0000  0.0000
10368OM     OM110368   4.311   3.035   8.826  0.0000  0.0000  0.0000
10369OM     OM110369   4.130   3.054   8.647  0.0000  0.0000  0.0000
10370OM     OM110370   5.345   6.910   8.552  0.0000  0.0000  0.0000
10371OM     OM110371   5.506   7.110   8.505  0.0000  0.0000  0.0000
10372OM     OM110372   0.962   2.364   0.358  0.0000  0.0000  0.0000
10373OM     OM110373   0.824   2.530   0.510  0.0000  0.0000  0.0000
10374OM     OM110374   0.722   2.441   0.287  0.0000  0.0000  0.0000
10375OM     OM110375   0.927   2.610   0.283  0.0000  0.0000  0.0000
10376OM     OM110376   0.020   2.947   8.563  0.0000  0.0000  0.0000
10377OM     OM110377   5.299   7.810   0.324  0.0000  0.0000  0.0000
10378OM     OM110378   0.647   7.596   9.056  0.0000  0.0000  0.0000
10379OM     OM110379   0.800   7.633   9.268  0.0000  0.0000  0.0000
10380OM     OM110380   0.550   7.682   9.293  0.0000  0.0000  0.0000
10381OM     OM110381   6.378   0.734   9.057  0.0000  0.0000  0.0000
10382OM     OM110382   6.590   0.589   9.030  0.0000  0.0000  0.0000
10383OM     OM110383   6.661   5.948   0.239  0.0000  0.0000  0.0000
10384OM     OM110384   4.315   1.214   9.511  0.0000  0.0000  0.0000
10385OM     OM110385   2.738   4.229   8.338  0.0000  0.0000  0.0000
10386OM     OM110386   2.801   4.098   8.558  0.0000  0.0000  0.0000
10387OM     OM110387   5.503   7.243   0.552  0.0000  0.0000  0.0000
10388OM     OM110388   5.536   7.049   0.726  0.0000  0.0000  0.0000
10389OM     OM110389   2.949   2.860   0.016  0.0000  0.0000  0.0000
10390OM     OM110390   3.072   2.777   0.219  0.0000  0.0000  0.0000
10391OM     OM110391   5.347   3.656   9.355  0.0000  0.0000  0.0000
10392OM     OM110392   1.688   5.591   9.234  0.0000  0.0000  0.0000
10393OM     OM110393   1.869   5.572   9.063  0.0000  0.0000  0.0000
10394OM     OM110394   1.627   5.481   9.007  0.0000  0.0000  0.0000
10395OM     OM110395   6.411   5.861   9.345  0.0000  0.0000  0.0000
10396OM     OM110396   4.113   2.853   0.334  0.0000  0.0000  0.0000
10397OM     OM110397   4.793   9.297   8.126  0.0000  0.0000  0.0000
10398OM     OM110398   2.762   6.180   9.173  0.0000  0.0000  0.0000
10399OM     OM110399   1.565   6.175   0.454  0.0000  0.0000  0.0000
10400OM     OM110400   4.636   6.280   8.632  0.0000  0.0000  0.0000
10401OM     OM110401   6.437   2.538   0.154  0.0000  0.0000  0.0000
10402OM     OM110402   0.505   2.296   8.735  0.0000  0.0000  0.0000
10403OM     OM110403   6.109   5.995   8.953  0.0000  0.0000  0.0000
10404OM     OM110404   5.930   5.810   8.927  0.0000  0.0000  0.0000
10405OM     OM110405   0.356   7.332   0.761  0.0000  0.0000  0.0000
10406OM     OM110406   0.517   7.396   0.560  0.0000  0.0000  0.0000
10407OM     OM110407   7.285   7.254   0.934  0.0000  0.0000  0.0000
10408OM     OM110408   7.900   4.327   8.598  0.0000  0.0000  0.0000
10409OM     OM110409   5.431   6.248   8.428  0.0000  0.0000  0.0000
10410OM     OM110410   3.985   1.085   0.809  0.0000  0.0000  0.0000
10411OM     OM110411   4.084   0.572   8.545  0.0000  0.0000  0.0000
10412OM     OM110412   3.523   4.066   0.662  0.0000  0.0000  0.0000
10413OM     OM110413   3.208   3.554   1.283  0.0000  0.0000  0.0000
10414OM     OM110414   3.152   3.315   1.297  0.0000  0.0000  0.0000
10415OM     OM110415   3.870   1.020   1.036  0.0000  0.0000  0.0000
10416OM     OM110416   1.558   6.348   8.630  0.0000  0.0000  0.0000
10417OM     OM110417   1.364   6.530   8.628  0.0000  0.0000  0.0000
10418OM     OM110418   3.981   2.547   0.794  0.0000  0.0000  0.0000
10419OM     OM110419   7.874   4.584   8.553  0.0000  0.0000  0.0000
10420OM     OM110420   7.872   4.483   8.803  0.0000  0.0000  0.0000
10421OM     OM110421   3.262   4.437   9.202  0.0000  0.0000  0.0000
10422OM     OM110422   4.868   6.429   0.835  0.0000  0.0000  0.0000
10423OM     OM110423   0.668   6.981   0.736  0.0000  0.0000  0.0000
10424OM     OM110424   2.239   9.074   8.518  0.0000  0.0000  0.0000
10425OM     OM110425   4.985   3.693   8.409  0.0000  0.0000  0.0000
10426OM     OM110426   2.876   5.766   0.284  0.0000  0.0000  0.0000
10427OM     OM110427   1.200   8.664   8.493  0.0000  0.0000  0.0000
10428OM     OM110428   3.471   1.134   0.161  0.0000  0.0000  0.0000
10429OM     OM110429   3.452   1.026   9.526  0.0000  0.0000  0.0000
10430OM     OM110430   9.258   8.325   9.116  0.0000  0.0000  0.0000
10431OM     OM110431   9.263   8.076   9.033  0.0000  0.0000  0.0000
10432OM     OM110432   3.090   6.615   1.009  0.0000  0.0000  0.0000
10433OM     OM110433   8.230   0.740   8.276  0.0000  0.0000  0.0000
10434OM     OM110434   5.361   3.875   0.198  0.0000  0.0000  0.0000
10435OM     OM110435   6.326   3.279   8.565  0.0000  0.0000  0.0000
10436OM     OM110436   6.185   3.481   8.535  0.0000  0.0000  0.0000
10437OM     OM110437   8.504   5.913   1.302  0.0000  0.0000  0.0000
10438OM     OM110438   8.409   5.875   1.059  0.0000  0.0000  0.0000
10439OM     OM110439   8.268   6.005   1.237  0.0000  0.0000  0.0000
10440OM     OM110440   8.319   5.739   1.264  0.0000  0.0000  0.0000
10441OM     OM110441   5.913   7.978   8.369  0.0000  0.0000  0.0000
10442OM     OM110442   5.716   8.153   8.444  0.0000  0.0000  0.0000
10443OM     OM110443   3.927   6.467   0.858  0.0000  0.0000  0.0000
10444OM     OM110444   2.327   2.715   9.094  0.0000  0.0000  0.0000
10445OM     OM110445   2.501   2.876   9.195  0.0000  0.0000  0.0000
10446OM     OM110446   7.670   9.398   0.855  0.0000  0.0000  0.0000
10447OM     OM110447   2.202   1.571   9.316  0.0000  0.0000  0.0000
10448OM     OM110448   1.038   2.751   8.610  0.0000  0.0000  0.0000
10449OM     OM110449   3.483   0.020   0.885  0.0000  0.0000  0.0000
10450OM     OM110450   3.544   9.415   1.037  0.0000  0.0000  0.0000
10451OM     OM110451   6.851   4.715   0.490  0.0000  0.0000  0.0000
10452OM     OM110452   7.089   4.806   0.586  0.0000  0.0000  0.0000
10453OM     OM110453   7.004   4.554   0.607  0.0000  0.0000  0.0000
10454OM     OM110454   6.773   3.261   0.348  0.0000  0.0000  0.0000
10455OM     OM110455   6.632   3.317   0.129  0.0000  0.0000  0.0000
10456OM     OM110456   0.474   8.134   0.211  0.0000  0.0000  0.0000
10457OM     OM110457   2.154   6.528   8.381  0.0000  0.0000  0.0000
10458OM     OM110458   5.471   2.740   0.148  0.0000  0.0000  0.0000
10459OM     OM110459   5.318   2.780   9.394  0.0000  0.0000  0.0000
10460OM     OM110460   4.214   1.749   0.593  0.0000  0.0000  0.0000
10461OM     OM110461   8.191   6.413   8.472  0.0000  0.0000  0.0000
10462OM     OM110462   8.450   6.463   8.432  0.0000  0.0000  0.0000
10463OM     OM110463   6.308   3.824   1.354  0.0000  0.0000  0.0000
10464OM     OM110464   3.069   1.739   0.630  0.0000  0.0000  0.0000
10465OM     OM110465   4.270   1.559   9.102  0.0000  0.0000  0.0000
10466OM     OM110466   2.861   6.352   8.737  0.0000  0.0000  0.0000
10467OM     OM110467   2.902   6.582   8.622  0.0000  0.0000  0.0000
10468OM     OM110468   8.447   5.678   0.896  0.0000  0.0000  0.0000
10469OM     OM110469   2.864   3.834   0.140  0.0000  0.0000  0.0000
10470OM     OM110470   1.559   7.046   8.604  0.0000  0.0000  0.0000
10471OM     OM110471   4.769   2.621   0.512  0.0000  0.0000  0.0000
10472OM     OM110472   4.526   2.659   0.452  0.0000  0.0000  0.0000
10473OM     OM110473   7.672   0.941   8.820  0.0000  0.0000  0.0000
10474OM     OM110474   7.878   1.100   8.800  0.0000  0.0000  0.0000
10475OM     OM110475   0.942   4.295   1.331  0.0000  0.0000  0.0000
10476OM     OM110476   3.534   2.483   0.333  0.0000  0.0000  0.0000
10477OM     OM110477   4.410   1.841   0.995  0.0000  0.0000  0.0000
10478OM     OM110478   8.812   5.303   0.245  0.0000  0.0000  0.0000
10479OM     OM110479   5.574   0.376   8.571  0.0000  0.0000  0.0000
10480OM     OM110480   5.212   0.223   9.402  0.0000  0.0000  0.0000
10481OM     OM110481   5.295   0.298   9.156  0.0000  0.0000  0.0000
10482OM     OM110482   6.229   8.365   9.481  0.0000  0.0000  0.0000
10483OM     OM110483   2.820   0.048   0.235  0.0000  0.0000  0.0000
10484OM     OM110484   8.522   8.002   9.411  0.0000  0.0000  0.0000
10485OM     OM110485   7.352   7.045   0.796  0.0000  0.0000  0.0000
10486OM     OM110486   1.485   4.622   0.362  0.0000  0.0000  0.0000
10487OM     OM110487   5.192   4.836   8.704  0.0000  0.0000  0.0000
10488OM     OM110488   5.260   5.009   8.512  0.0000  0.0000  0.0000
10489OM     OM110489   5.850   2.134   9.223  0.0000  0.0000  0.0000
10490OM     OM110490   5.979   1.908   9.218  0.0000  0.0000  0.0000
10491OM     OM110491   7.821   4.424   1.105  0.0000  0.0000  0.0000
10492OM     OM110492   7.360   6.303   1.039  0.0000  0.0000  0.0000
10493OM     OM110493   0.560   4.338   9.286  0.0000  0.0000  0.0000
10494OM     OM110494   8.056   2.199   9.218  0.0000  0.0000  0.0000
10495OM     OM110495   7.334   3.867   1.167  0.0000  0.0000  0.0000
10496OM     OM110496   8.965   1.999   0.449  0.0000  0.0000  0.0000
10497OM     OM110497   7.273   2.006   0.780  0.0000  0.0000  0.0000
10498OM     OM110498   2.762   0.141   0.013  0.0000  0.0000  0.0000
10499OM     OM110499   3.534   1.361   0.055  0.0000  0.0000  0.0000
10500OM     OM110500   0.582   3.341   8.293  0.0000  0.0000  0.0000
10501OM     OM110501   8.874   0.179   0.232  0.0000  0.0000  0.0000
10502OM     OM110502   9.101   2.227   0.938  0.0000  0.0000  0.0000
10503OM     OM110503   8.906   2.178   0.753  0.0000  0.0000  0.0000
10504OM     OM110504   4.552   5.263   0.463  0.0000  0.0000  0.0000
10505OM     OM110505   9.062   2.686   0.748  0.0000  0.0000  0.0000
10506OM     OM110506   9.230   2.581   0.903  0.0000  0.0000  0.0000
10507OM     OM110507   4.762   3.102   0.738  0.0000  0.0000  0.0000
10508OM     OM110508   7.875   4.996   1.163  0.0000  0.0000  0.0000
10509OM     OM110509   1.714   6.253   0.089  0.0000  0.0000  0.0000
10510OM     OM110510   1.874   6.037   0.091  0.0000  0.0000  0.0000
10511OM     OM110511   1.871   6.198   9.490  0.0000  0.0000  0.0000
10512OM     OM110512   4.040   2.108   0.782  0.0000  0.0000  0.0000
10513OM     OM110513   3.179   3.125   1.109  0.0000  0.0000  0.0000
10514OM     OM110514   3.120   2.854   1.088  0.0000  0.0000  0.0000
10515OM     OM110515   6.298   2.759   1.106  0.0000  0.0000  0.0000
10516OM     OM110516   6.560   2.818   1.063  0.0000  0.0000  0.0000
10517OM     OM110517   6.365   7.928   0.964  0.0000  0.0000  0.0000
10518OM     OM110518   6.729   7.760   0.725  0.0000  0.0000  0.0000
10519OM     OM110519   6.716   0.795   9.115  0.0000  0.0000  0.0000
10520OM     OM110520   1.235   4.921   8.877  0.0000  0.0000  0.0000
10521OM     OM110521   7.555   0.501   9.036  0.0000  0.0000  0.0000
10522OM     OM110522   2.573   6.239   8.999  0.0000  0.0000  0.0000
10523OM     OM110523   2.813   6.182   8.919  0.0000  0.0000  0.0000
10524OM     OM110524   2.131   1.421   9.526  0.0000  0.0000  0.0000
10525OM     OM110525   2.376   1.422   9.436  0.0000  0.0000  0.0000
10526OM     OM110526   1.701   7.036   9.033  0.0000  0.0000  0.0000
10527OM     OM110527   0.718   2.407   0.716  0.0000  0.0000  0.0000
10528OM     OM110528   4.424   9.149   0.438  0.0000  0.0000  0.0000
10529OM     OM110529   6.412   8.544   9.515  0.0000  0.0000  0.0000
10530OM     OM110530   3.026   5.032   8.855  0.0000  0.0000  0.0000
10531OM     OM110531   4.282   0.372   0.865  0.0000  0.0000  0.0000
10532OM     OM110532   4.437   0.316   1.058  0.0000  0.0000  0.0000
10533OM     OM110533   5.024   8.539   1.060  0.0000  0.0000  0.0000
10534OM     OM110534   8.004   5.091   8.780  0.0000  0.0000  0.0000
10535OM     OM110535   8.157   5.307   8.789  0.0000  0.0000  0.0000
10536OM     OM110536   4.195   9.379   8.488  0.0000  0.0000  0.0000
10537OM     OM110537   4.668   1.544   8.679  0.0000  0.0000  0.0000
10538OM     OM110538   7.309   6.819   8.640  0.0000  0.0000  0.0000
10539OM     OM110539   6.125   0.810   9.081  0.0000  0.0000  0.0000
10540OM     OM110540   6.595   4.266   1.006  0.0000  0.0000  0.0000
10541OM     OM110541   1.795   2.875   9.272  0.0000  0.0000  0.0000
10542OM     OM110542   1.740   3.071   9.427  0.0000  0.0000  0.0000
10543OM     OM110543   3.335   8.673   0.780  0.0000  0.0000  0.0000
10544OM     OM110544   6.761   2.756   1.214  0.0000  0.0000  0.0000
10545OM     OM110545   7.378   0.269   8.403  0.0000  0.0000  0.0000
10546OM     OM110546   3.797   1.750   8.963  0.0000  0.0000  0.0000
10547OM     OM110547   3.767   2.014   8.976  0.0000  0.0000  0.0000
10548OM     OM110548   8.723   2.051   0.623  0.0000  0.0000  0.0000
10549OM     OM110549   8.021   6.222   8.414  0.0000  0.0000  0.0000
10550OM     OM110550   9.005   8.921   1.265  0.0000  0.0000  0.0000
10551OM     OM110551   9.204   9.107   1.291  0.0000  0.0000  0.0000
10552OM     OM110552   9.008   9.137   1.122  0.0000  0.0000  0.0000
10553OM     OM110553   6.225   4.125   0.392  0.0000  0.0000  0.0000
10554OM     OM110554   5.152   3.129   8.531  0.0000  0.0000  0.0000
10555OM     OM110555   5.360   3.135   8.403  0.0000  0.0000  0.0000
10556OM     OM110556   7.371   0.858   1.141  0.0000  0.0000  0.0000
10557OM     OM110557   7.524   0.794   0.938  0.0000  0.0000  0.0000
10558OM     OM110558   7.409   0.608   1.077  0.0000  0.0000  0.0000
10559OM     OM110559   0.385   7.671   9.503  0.0000  0.0000  0.0000
10560OM     OM110560   1.555   0.159   8.300  0.0000  0.0000  0.0000
10561OM     OM110561   1.702   0.366   8.349  0.0000  0.0000  0.0000
10562OM     OM110562   4.486   4.375   9.119  0.0000  0.0000  0.0000
10563OM     OM110563   4.705   4.423   8.988  0.0000  0.0000  0.0000
10564OM     OM110564   4.711   4.270   9.203  0.0000  0.0000  0.0000
10565OM     OM110565   4.675   2.200   0.253  0.0000  0.0000  0.0000
10566OM     OM110566   1.992   8.398   8.892  0.0000  0.0000  0.0000
10567OM     OM110567   3.205   2.507   1.219  0.0000  0.0000  0.0000
10568OM     OM110568   2.493   3.750   9.061  0.0000  0.0000  0.0000
10569OM     OM110569   4.094   6.653   8.340  0.0000  0.0000  0.0000
10570OM     OM110570   3.832   6.606   8.350  0.0000  0.0000  0.0000
10571OM     OM110571   9.475   4.046   9.305  0.0000  0.0000  0.0000
10572OM     OM110572   4.990   8.769   1.201  0.0000  0.0000  0.0000
10573OM     OM110573   9.435   2.372   8.813  0.0000  0.0000  0.0000
10574OM     OM110574   9.279   2.380   1.045  0.0000  0.0000  0.0000
10575OM     OM110575   5.751   6.996   9.185  0.0000  0.0000  0.0000
10576OM     OM110576   5.659   6.836   9.367  0.0000  0.0000  0.0000
10577OM     OM110577   5.847   7.014   9.423  0.0000  0.0000  0.0000
10578OM     OM110578   0.163   4.507   0.179  0.0000  0.0000  0.0000
10579OM     OM110579   0.720   7.804   1.177  0.0000  0.0000  0.0000
10580OM     OM110580   0.598   7.875   0.949  0.0000  0.0000  0.0000
10581OM     OM110581   2.385   5.985   1.262  0.0000  0.0000  0.0000
10582OM     OM110582   2.191   5.831   1.321  0.0000  0.0000  0.0000
10583OM     OM110583   9.216   2.165   1.178  0.0000  0.0000  0.0000
10584OM     OM110584   9.603   0.575   0.575  0.0000  0.0000  0.0000
10585OM     OM110585   0.096   0.441   0.777  0.0000  0.0000  0.0000
10586OM     OM110586   6.146   6.606   1.013  0.0000  0.0000  0.0000
10587OM     OM110587   0.534   8.914   1.341  0.0000  0.0000  0.0000
10588OM     OM110588   6.097   4.264   8.645  0.0000  0.0000  0.0000
10589OM     OM110589   8.454   6.605   0.062  0.0000  0.0000  0.0000
10590OM     OM110590   9.278   5.274   0.767  0.0000  0.0000  0.0000
10591OM     OM110591   6.031   2.731   1.092  0.0000  0.0000  0.0000
10592OM     OM110592   6.410   1.319   1.294  0.0000  0.0000  0.0000
10593OM     OM110593   6.367   1.565   1.384  0.0000  0.0000  0.0000
10594OM     OM110594   3.181   2.977   9.588  0.0000  0.0000  0.0000
10595OM     OM110595   7.148   0.622   9.238  0.0000  0.0000  0.0000
10596OM     OM110596   3.199   5.213   8.823  0.0000  0.0000  0.0000
10597OM     OM110597   7.695   5.094   0.989  0.0000  0.0000  0.0000
10598OM     OM110598   8.652   5.501   0.289  0.0000  0.0000  0.0000
10599OM     OM110599   2.558   4.699   8.650  0.0000  0.0000  0.0000
10600OM     OM110600   9.051   0.754   0.170  0.0000  0.0000  0.0000
10601OM     OM110601   9.213   0.730   9.582  0.0000  0.0000  0.0000
10602OM     OM110602   2.231   7.561   0.948  0.0000  0.0000  0.0000
10603OM     OM110603   2.895   3.057   8.526  0.0000  0.0000  0.0000
10604OM     OM110604   3.031   3.211   8.700  0.0000  0.0000  0.0000
10605OM     OM110605   1.279   6.763   9.072  0.0000  0.0000  0.0000
10606OM     OM110606   9.052   5.859   0.883  0.0000  0.0000  0.0000
10607OM     OM110607   5.607   8.372   8.372  0.0000  0.0000  0.0000
10608OM     OM110608   5.633   2.590   8.722  0.0000  0.0000  0.0000
10609OM     OM110609   5.402   2.700   8.696  0.0000  0.0000  0.0000
10610OM     OM110610   5.769   2.761   1.042  0.0000  0.0000  0.0000
10611OM     OM110611   5.866   2.559   1.190  0.0000  0.0000  0.0000
10612OM     OM110612   0.039   0.264   0.954  0.0000  0.0000  0.0000
10613OM     OM110613   0.281   0.286   0.854  0.0000  0.0000  0.0000
10614OM     OM110614   6.276   3.023   0.200  0.0000  0.0000  0.0000
10615OM     OM110615   8.276   5.513   9.334  0.0000  0.0000  0.0000
10616OM     OM110616   4.880   8.929   9.068  0.0000  0.0000  0.0000
10617OM     OM110617   6.821   6.455   0.535  0.0000  0.0000  0.0000
10618OM     OM110618   6.721   6.478   0.766  0.0000  0.0000  0.0000
10619OM     OM110619   9.346   8.440   9.329  0.0000  0.0000  0.0000
10620OM     OM110620   3.931   5.565   0.056  0.0000  0.0000  0.0000
10621OM     OM110621   4.057   5.673   0.266  0.0000  0.0000  0.0000
10622OM     OM110622   6.343   6.162   1.063  0.0000  0.0000  0.0000
10623OM     OM110623   6.959   3.238   8.945  0.0000  0.0000  0.0000
10624OM     OM110624   6.761   3.404   8.961  0.0000  0.0000  0.0000
10625OM     OM110625   7.025   5.544   8.574  0.0000  0.0000  0.0000
10626OM     OM110626   7.114   5.698   8.195  0.0000  0.0000  0.0000
10627OM     OM110627   0.549   0.902   0.887  0.0000  0.0000  0.0000
10628OM     OM110628   1.411   1.346   0.621  0.0000  0.0000  0.0000
10629OM     OM110629   1.410   1.719   0.971  0.0000  0.0000  0.0000
10630OM     OM110630   1.542   1.772   0.757  0.0000  0.0000  0.0000
10631OM     OM110631   0.279   4.899   9.511  0.0000  0.0000  0.0000
10632OM     OM110632   3.144   6.638   1.270  0.0000  0.0000  0.0000
10633OM     OM110633   7.905   7.507   0.195  0.0000  0.0000  0.0000
10634OM     OM110634   0.332   0.805   1.004  0.0000  0.0000  0.0000
10635OM     OM110635   7.010   4.573   8.769  0.0000  0.0000  0.0000
10636OM     OM110636   6.945   4.380   8.919  0.0000  0.0000  0.0000
10637OM     OM110637   6.036   4.783   0.306  0.0000  0.0000  0.0000
10638OM     OM110638   0.441   3.240   8.860  0.0000  0.0000  0.0000
10639OM     OM110639   5.363   7.758   0.092  0.0000  0.0000  0.0000
10640OM     OM110640   5.459   7.591   9.524  0.0000  0.0000  0.0000
10641OM     OM110641   5.586   7.818   9.556  0.0000  0.0000  0.0000
10642OM     OM110642   5.359   7.822   9.449  0.0000  0.0000  0.0000
10643OM     OM110643   3.980   9.437   0.842  0.0000  0.0000  0.0000
10644OM     OM110644   2.717   3.714   0.897  0.0000  0.0000  0.0000
10645OM     OM110645   7.515   9.085   9.060  0.0000  0.0000  0.0000
10646OM     OM110646   7.336   8.881   9.060  0.0000  0.0000  0.0000
10647OM     OM110647   6.762   3.215   9.131  0.0000  0.0000  0.0000
10648OM     OM110648   0.371   3.027   0.843  0.0000  0.0000  0.0000
10649OM     OM110649   2.147   2.570   8.554  0.0000  0.0000  0.0000
10650OM     OM110650   7.985   3.475   9.319  0.0000  0.0000  0.0000
10651OM     OM110651   2.258   8.679   0.329  0.0000  0.0000  0.0000
10652OM     OM110652   2.050   8.539   0.218  0.0000  0.0000  0.0000
10653OM     OM110653   8.338   1.604   8.588  0.0000  0.0000  0.0000
10654OM     OM110654   3.112   3.200   8.957  0.0000  0.0000  0.0000
10655OM     OM110655   4.943   5.207   8.769  0.0000  0.0000  0.0000
10656OM     OM110656   4.818   5.088   8.580  0.0000  0.0000  0.0000
10657OM     OM110657   4.964   4.947   8.763  0.0000  0.0000  0.0000
10658OM     OM110658   7.121   6.767   8.472  0.0000  0.0000  0.0000
10659OM     OM110659   4.698   3.357   8.764  0.0000  0.0000  0.0000
10660OM     OM110660   0.903   7.943   8.990  0.0000  0.0000  0.0000
10661OM     OM110661   0.710   7.830   9.146  0.0000  0.0000  0.0000
10662OM     OM110662   6.312   6.435   1.079  0.0000  0.0000  0.0000
10663OM     OM110663   4.365   1.908   0.741  0.0000  0.0000  0.0000
10664OM     OM110664   4.587   2.569   9.227  0.0000  0.0000  0.0000
10665OM     OM110665   2.425   6.064   9.089  0.0000  0.0000  0.0000
10666OM     OM110666   1.310   7.541   8.735  0.0000  0.0000  0.0000
10667OM     OM110667   5.734   5.659   8.867  0.0000  0.0000  0.0000
10668OM     OM110668   4.908   5.655   0.437  0.0000  0.0000  0.0000
10669OM     OM110669   8.634   5.114   0.944  0.0000  0.0000  0.0000
10670OM     OM110670   8.752   5.067   1.182  0.0000  0.0000  0.0000
10671OM     OM110671   8.619   5.274   1.170  0.0000  0.0000  0.0000
10672OM     OM110672   3.181   1.142   0.428  0.0000  0.0000  0.0000
10673OM     OM110673   7.155   9.538   9.235  0.0000  0.0000  0.0000
10674OM     OM110674   1.026   4.138   8.486  0.0000  0.0000  0.0000
10675OM     OM110675   3.294   6.321   8.775  0.0000  0.0000  0.0000
10676OM     OM110676   3.747   2.136   0.128  0.0000  0.0000  0.0000
10677OM     OM110677   1.159   6.642   8.768  0.0000  0.0000  0.0000
10678OM     OM110678   8.111   7.221   1.098  0.0000  0.0000  0.0000
10679OM     OM110679   7.975   7.442   1.072  0.0000  0.0000  0.0000
10680OM     OM110680   5.350   5.463   0.456  0.0000  0.0000  0.0000
10681OM     OM110681   5.510   6.628   9.446  0.0000  0.0000  0.0000
10682OM     OM110682   8.537   1.264   9.079  0.0000  0.0000  0.0000
10683OM     OM110683   1.860   4.225   0.472  0.0000  0.0000  0.0000
10684OM     OM110684   7.148   2.936   8.697  0.0000  0.0000  0.0000
10685OM     OM110685   5.385   6.916   1.194  0.0000  0.0000  0.0000
10686OM     OM110686   5.377   6.682   1.303  0.0000  0.0000  0.0000
10687OM     OM110687   9.404   7.636   8.667  0.0000  0.0000  0.0000
10688OM     OM110688   4.659   7.982   1.014  0.0000  0.0000  0.0000
10689OM     OM110689   4.566   7.870   0.775  0.0000  0.0000  0.0000
10690OM     OM110690   4.652   7.730   0.964  0.0000  0.0000  0.0000
10691OM     OM110691   6.187   0.994   0.238  0.0000  0.0000  0.0000
10692OM     OM110692   6.457   7.186   9.000  0.0000  0.0000  0.0000
10693OM     OM110693   6.646   7.354   8.994  0.0000  0.0000  0.0000
10694OM     OM110694   5.314   6.035   8.326  0.0000  0.0000  0.0000
10695OM     OM110695   4.991   0.189   0.538  0.0000  0.0000  0.0000
10696OM     OM110696   4.473   1.307   0.084  0.0000  0.0000  0.0000
10697OM     OM110697   2.480   5.452   0.176  0.0000  0.0000  0.0000
10698OM     OM110698   5.287   3.030   9.329  0.0000  0.0000  0.0000
10699OM     OM110699   1.380   7.397   0.311  0.0000  0.0000  0.0000
10700OM     OM110700   1.510   7.350   0.090  0.0000  0.0000  0.0000
10701OM     OM110701   4.455   8.580   8.327  0.0000  0.0000  0.0000
10702OM     OM110702   7.719   7.658   9.428  0.0000  0.0000  0.0000
10703OM     OM110703   4.559   3.133   8.824  0.0000  0.0000  0.0000
10704OM     OM110704   0.479   1.597   9.520  0.0000  0.0000  0.0000
10705OM     OM110705   5.327   0.792   1.382  0.0000  0.0000  0.0000
10706OM     OM110706   1.688   3.168   0.048  0.0000  0.0000  0.0000
10707OM     OM110707   6.177   2.167   9.532  0.0000  0.0000  0.0000
10708OM     OM110708   6.132   2.029   0.137  0.0000  0.0000  0.0000
10709OM     OM110709   8.404   6.073   8.931  0.0000  0.0000  0.0000
10710OM     OM110710   3.395   7.445   1.076  0.0000  0.0000  0.0000
10711OM     OM110711   3.368   7.423   1.335  0.0000  0.0000  0.0000
10712OM     OM110712   0.116   8.783   9.590  0.0000  0.0000  0.0000
10713OM     OM110713   0.004   8.559   9.515  0.0000  0.0000  0.0000
10714OM     OM110714   1.113   1.956   0.914  0.0000  0.0000  0.0000
10715OM     OM110715   1.188   2.041   0.668  0.0000  0.0000  0.0000
10716OM     OM110716   7.911   3.625   9.108  0.0000  0.0000  0.0000
10717OM     OM110717   8.572   3.603   9.237  0.0000  0.0000  0.0000
10718OM     OM110718   3.533   1.308   8.719  0.0000  0.0000  0.0000
10719OM     OM110719   1.110   7.051   0.380  0.0000  0.0000  0.0000
10720OM     OM110720   4.498   2.332   9.327  0.0000  0.0000  0.0000
10721OM     OM110721   7.598   7.084   0.285  0.0000  0.0000  0.0000
10722OM     OM110722   4.019   5.436   0.669  0.0000  0.0000  0.0000
10723OM     OM110723   4.099   5.643   0.520  0.0000  0.0000  0.0000
10724OM     OM110724   2.122   2.729   8.939  0.0000  0.0000  0.0000
10725OM     OM110725   2.007   2.772   9.168  0.0000  0.0000  0.0000
10726OM     OM110726   8.435   9.405   9.299  0.0000  0.0000  0.0000
10727OM     OM110727   6.589   9.053   0.515  0.0000  0.0000  0.0000
10728OM     OM110728   6.265   8.820   0.494  0.0000  0.0000  0.0000
10729OM     OM110729   3.342   4.027   0.483  0.0000  0.0000  0.0000
10730OM     OM110730   3.017   3.085   9.165  0.0000  0.0000  0.0000
10731OM     OM110731   1.156   5.551   0.852  0.0000  0.0000  0.0000
10732OM     OM110732   2.069   7.275   9.097  0.0000  0.0000  0.0000
10733OM     OM110733   7.906   9.407   0.962  0.0000  0.0000  0.0000
10734OM     OM110734   7.981   9.545   0.752  0.0000  0.0000  0.0000
10735OM     OM110735   0.525   7.228   9.318  0.0000  0.0000  0.0000
10736OM     OM110736   4.725   0.791   8.391  0.0000  0.0000  0.0000
10737OM     OM110737   2.210   2.422   0.817  0.0000  0.0000  0.0000
10738OM     OM110738   2.288   1.963   0.663  0.0000  0.0000  0.0000
10739OM     OM110739   2.387   8.536   9.542  0.0000  0.0000  0.0000
10740OM     OM110740   2.170   5.876   8.679  0.0000  0.0000  0.0000
10741OM     OM110741   3.071   6.477   8.799  0.0000  0.0000  0.0000
10742OM     OM110742   9.068   5.659   1.060  0.0000  0.0000  0.0000
10743OM     OM110743   8.857   5.563   1.175  0.0000  0.0000  0.0000
10744OM     OM110744   6.515   3.538   1.021  0.0000  0.0000  0.0000
10745OM     OM110745   7.737   7.468   9.601  0.0000  0.0000  0.0000
10746OM     OM110746   7.710   7.301   0.183  0.0000  0.0000  0.0000
10747OM     OM110747   7.014   7.064   1.213  0.0000  0.0000  0.0000
10748OM     OM110748   2.950   8.744   0.072  0.0000  0.0000  0.0000
10749OM     OM110749   5.433   2.964   9.535  0.0000  0.0000  0.0000
10750OM     OM110750   5.689   4.640   9.394  0.0000  0.0000  0.0000
10751OM     OM110751   8.839   8.225   0.291  0.0000  0.0000  0.0000
10752OM     OM110752   5.526   3.505   1.063  0.0000  0.0000  0.0000
10753OM     OM110753   9.570   1.124   8.963  0.0000  0.0000  0.0000
10754OM     OM110754   9.569   1.018   9.189  0.0000  0.0000  0.0000
10755OM     OM110755   7.174   7.893   0.998  0.0000  0.0000  0.0000
10756OM     OM110756   2.877   8.151   1.219  0.0000  0.0000  0.0000
10757OM     OM110757   2.633   8.199   1.142  0.0000  0.0000  0.0000
10758OM     OM110758   5.140   4.255   1.202  0.0000  0.0000  0.0000
10759OM     OM110759   7.375   3.162   8.497  0.0000  0.0000  0.0000
10760OM     OM110760   5.006   6.234   0.719  0.0000  0.0000  0.0000
10761OM     OM110761   5.948   4.529   9.375  0.0000  0.0000  0.0000
10762OM     OM110762   8.213   2.166   8.910  0.0000  0.0000  0.0000
10763OM     OM110763   3.920   5.815   0.435  0.0000  0.0000  0.0000
10764OM     OM110764   0.562   9.604   8.432  0.0000  0.0000  0.0000
10765OM     OM110765   0.607   0.086   8.684  0.0000  0.0000  0.0000
10766OM     OM110766   0.698   0.216   8.468  0.0000  0.0000  0.0000
10767OM     OM110767   3.370   0.369   0.263  0.0000  0.0000  0.0000
10768OM     OM110768   6.530   8.127   0.938  0.0000  0.0000  0.0000
10769OM     OM110769   3.560   0.519   0.363  0.0000  0.0000  0.0000
10770OM     OM110770   5.030   5.453   8.754  0.0000  0.0000  0.0000
10771OM     OM110771   7.228   1.329   0.437  0.0000  0.0000  0.0000
10772OM     OM110772   2.294   4.869   0.516  0.0000  0.0000  0.0000
10773OM     OM110773   0.111   7.380   0.814  0.0000  0.0000  0.0000
10774OM     OM110774   9.057   7.272   0.956  0.0000  0.0000  0.0000
10775OM     OM110775   2.941   1.538   0.416  0.0000  0.0000  0.0000
10776OM     OM110776   4.478   7.624   1.144  0.0000  0.0000  0.0000
10777OM     OM110777   4.695   7.498   1.076  0.0000  0.0000  0.0000
10778OM     OM110778   6.616   8.621   9.368  0.0000  0.0000  0.0000
10779OM     OM110779   6.304   6.160   8.956  0.0000  0.0000  0.0000
10780OM     OM110780   6.389   6.083   9.190  0.0000  0.0000  0.0000
10781OM     OM110781   0.164   2.653   0.689  0.0000  0.0000  0.0000
10782OM     OM110782   0.144   5.814   9.218  0.0000  0.0000  0.0000
10783OM     OM110783   0.254   5.763   8.989  0.0000  0.0000  0.0000
10784OM     OM110784   8.737   6.884   1.173  0.0000  0.0000  0.0000
10785OM     OM110785   5.776   3.480   0.969  0.0000  0.0000  0.0000
10786OM     OM110786   5.697   3.390   1.207  0.0000  0.0000  0.0000
10787OM     OM110787   0.158   5.791   9.477  0.0000  0.0000  0.0000
10788OM     OM110788   3.899   7.206   0.553  0.0000  0.0000  0.0000
10789OM     OM110789   0.485   5.882   8.961  0.0000  0.0000  0.0000
10790OM     OM110790   9.582   0.768   1.360  0.0000  0.0000  0.0000
10791OM     OM110791   4.337   3.746   9.197  0.0000  0.0000  0.0000
10792OM     OM110792   5.588   5.854   0.582  0.0000  0.0000  0.0000
10793OM     OM110793   5.480   6.081   0.613  0.0000  0.0000  0.0000
10794OM     OM110794   6.028   7.346   0.418  0.0000  0.0000  0.0000
10795OM     OM110795   1.368   7.100   1.296  0.0000  0.0000  0.0000
10796OM     OM110796   1.741   6.317   0.333  0.0000  0.0000  0.0000
10797OM     OM110797   2.246   0.301   9.346  0.0000  0.0000  0.0000
10798OM     OM110798   2.109   0.538   9.348  0.0000  0.0000  0.0000
10799OM     OM110799   7.388   6.215   0.217  0.0000  0.0000  0.0000
10800OM     OM110800   0.458   2.530   8.630  0.0000  0.0000  0.0000
10801OM     OM110801   0.354   2.702   8.472  0.0000  0.0000  0.0000
10802OM     OM110802   2.872   5.555   8.309  0.0000  0.0000  0.0000
10803OM     OM110803   4.099   9.234   0.074  0.0000  0.0000  0.0000
10804OM     OM110804   0.331   9.475   1.101  0.0000  0.0000  0.0000
10805OM     OM110805   9.200   5.599   9.551  0.0000  0.0000  0.0000
10806OM     OM110806   9.340   4.635   0.865  0.0000  0.0000  0.0000
10807OM     OM110807   7.095   5.496   8.818  0.0000  0.0000  0.0000
10808OM     OM110808   4.777   6.381   8.434  0.0000  0.0000  0.0000
10809OM     OM110809   7.399   0.503   8.827  0.0000  0.0000  0.0000
10810OM     OM110810   7.560   0.704   8.875  0.0000  0.0000  0.0000
10811OM     OM110811   1.333   2.625   0.998  0.0000  0.0000  0.0000
10812OM     OM110812   0.887   2.662   8.805  0.0000  0.0000  0.0000
10813OM     OM110813   0.947   5.571   8.545  0.0000  0.0000  0.0000
10814OM     OM110814   6.150   7.953   8.472  0.0000  0.0000  0.0000
10815OM     OM110815   8.280   0.502   8.372  0.0000  0.0000  0.0000
10816OM     OM110816   1.336   3.315   8.725  0.0000  0.0000  0.0000
10817OM     OM110817   8.269   2.634   8.766  0.0000  0.0000  0.0000
10818OM     OM110818   8.194   2.395   8.796  0.0000  0.0000  0.0000
10819OM     OM110819   8.154   6.685   8.730  0.0000  0.0000  0.0000
10820OM     OM110820   1.132   8.560   8.712  0.0000  0.0000  0.0000
10821OM     OM110821   2.030   8.703   8.212  0.0000  0.0000  0.0000
10822OM     OM110822   2.129   8.865   8.404  0.0000  0.0000  0.0000
10823OM     OM110823   6.554   3.943   0.725  0.0000  0.0000  0.0000
10824OM     OM110824   6.551   3.685   0.808  0.0000  0.0000  0.0000
10825OM     OM110825   5.374   0.456   8.721  0.0000  0.0000  0.0000
10826OM     OM110826   4.664   0.943   0.807  0.0000  0.0000  0.0000
10827OM     OM110827   0.714   5.698   8.540  0.0000  0.0000  0.0000
10828OM     OM110828   3.128   5.526   8.311  0.0000  0.0000  0.0000
10829OM     OM110829   4.148   7.107   1.172  0.0000  0.0000  0.0000
10830OM     OM110830   8.159   2.776   9.602  0.0000  0.0000  0.0000
10831OM     OM110831   8.546   6.465   8.669  0.0000  0.0000  0.0000
10832OM     OM110832   5.938   3.655   0.866  0.0000  0.0000  0.0000
10833OM     OM110833   8.058   4.360   1.032  0.0000  0.0000  0.0000
10834OM     OM110834   3.755   5.823   8.713  0.0000  0.0000  0.0000
10835OM     OM110835   3.838   5.809   8.959  0.0000  0.0000  0.0000
10836OM     OM110836   6.070   3.254   8.503  0.0000  0.0000  0.0000
10837OM     OM110837   5.820   3.180   8.529  0.0000  0.0000  0.0000
10838OM     OM110838   4.692   9.520   8.565  0.0000  0.0000  0.0000
10839OM     OM110839   4.617   9.506   8.916  0.0000  0.0000  0.0000
10840OM     OM110840   8.350   8.635   1.182  0.0000  0.0000  0.0000
10841OM     OM110841   8.200   8.769   1.347  0.0000  0.0000  0.0000
10842OM     OM110842   4.557   2.197   0.482  0.0000  0.0000  0.0000
10843OM     OM110843   4.724   2.368   0.594  0.0000  0.0000  0.0000
10844OM     OM110844   6.261   2.207   9.287  0.0000  0.0000  0.0000
10845OM     OM110845   5.156   1.394   0.242  0.0000  0.0000  0.0000
10846OM     OM110846   5.334   1.507   0.399  0.0000  0.0000  0.0000
10847OM     OM110847   2.543   9.399   9.449  0.0000  0.0000  0.0000
10848OM     OM110848   3.375   7.604   0.880  0.0000  0.0000  0.0000
10849OM     OM110849   4.944   0.101   0.787  0.0000  0.0000  0.0000
10850OM     OM110850   3.779   5.216   9.403  0.0000  0.0000  0.0000
10851OM     OM110851   3.740   5.402   9.583  0.0000  0.0000  0.0000
10852OM     OM110852   6.986   6.576   8.349  0.0000  0.0000  0.0000
10853OM     OM110853   4.642   7.743   0.561  0.0000  0.0000  0.0000
10854OM     OM110854   3.911   6.212   9.207  0.0000  0.0000  0.0000
10855OM     OM110855   8.751   3.893   0.966  0.0000  0.0000  0.0000
10856OM     OM110856   0.717   4.536   0.933  0.0000  0.0000  0.0000
10857OM     OM110857   0.790   4.421   1.154  0.0000  0.0000  0.0000
10858OM     OM110858   4.223   0.509   8.343  0.0000  0.0000  0.0000
10859OM     OM110859   9.366   1.111   0.280  0.0000  0.0000  0.0000
10860OM     OM110860   2.596   4.987   9.561  0.0000  0.0000  0.0000
10861OM     OM110861   2.495   4.791   0.107  0.0000  0.0000  0.0000
10862OM     OM110862   5.426   3.435   8.749  0.0000  0.0000  0.0000
10863OM     OM110863   5.270   6.563   9.371  0.0000  0.0000  0.0000
10864OM     OM110864   3.008   0.357   1.224  0.0000  0.0000  0.0000
10865OM     OM110865   0.799   8.775   9.298  0.0000  0.0000  0.0000
10866OM     OM110866   0.381   6.282   1.257  0.0000  0.0000  0.0000
10867OM     OM110867   3.135   0.128   1.183  0.0000  0.0000  0.0000
10868OM     OM110868   4.264   9.439   1.281  0.0000  0.0000  0.0000
10869OM     OM110869   4.511   9.348   1.341  0.0000  0.0000  0.0000
10870OM     OM110870   7.840   8.306   8.584  0.0000  0.0000  0.0000
10871OM     OM110871   7.794   5.118   8.931  0.0000  0.0000  0.0000
10872OM     OM110872   7.790   4.695   8.912  0.0000  0.0000  0.0000
10873OM     OM110873   8.709   5.761   1.267  0.0000  0.0000  0.0000
10874OM     OM110874   8.693   5.995   1.154  0.0000  0.0000  0.0000
10875OM     OM110875   9.072   7.457   0.758  0.0000  0.0000  0.0000
10876OM     OM110876   9.432   7.376   8.651  0.0000  0.0000  0.0000
10877OM     OM110877   5.598   3.076   0.108  0.0000  0.0000  0.0000
10878OM     OM110878   7.173   5.017   0.248  0.0000  0.0000  0.0000
10879OM     OM110879   7.265   4.966   0.493  0.0000  0.0000  0.0000
10880OM     OM110880   0.559   2.281   0.142  0.0000  0.0000  0.0000
10881OM     OM110881   8.801   3.561   0.515  0.0000  0.0000  0.0000
10882OM     OM110882   8.032   5.655   0.361  0.0000  0.0000  0.0000
10883OM     OM110883   5.291   6.899   0.323  0.0000  0.0000  0.0000
10884OM     OM110884   4.887   7.048   0.328  0.0000  0.0000  0.0000
10885OM     OM110885   5.311   7.078   0.508  0.0000  0.0000  0.0000
10886OM     OM110886   3.483   1.547   8.631  0.0000  0.0000  0.0000
10887OM     OM110887   0.935   7.662   1.182  0.0000  0.0000  0.0000
10888OM     OM110888   2.564   3.760   1.115  0.0000  0.0000  0.0000
10889OM     OM110889   9.362   6.996   9.268  0.0000  0.0000  0.0000
10890OM     OM110890   3.409   4.968   0.445  0.0000  0.0000  0.0000
10891OM     OM110891   9.281   6.503   8.453  0.0000  0.0000  0.0000
10892OM     OM110892   1.494   5.268   9.018  0.0000  0.0000  0.0000
10893OM     OM110893   1.381   5.040   9.059  0.0000  0.0000  0.0000
10894OM     OM110894   1.530   5.144   9.249  0.0000  0.0000  0.0000
10895OM     OM110895   2.479   4.753   0.375  0.0000  0.0000  0.0000
10896OM     OM110896   3.416   7.474   8.652  0.0000  0.0000  0.0000
10897OM     OM110897   1.436   2.006   9.575  0.0000  0.0000  0.0000
10898OM     OM110898   7.771   8.082   8.499  0.0000  0.0000  0.0000
10899OM     OM110899   8.042   8.161   8.554  0.0000  0.0000  0.0000
10900OM     OM110900   0.817   8.566   9.147  0.0000  0.0000  0.0000
10901OM     OM110901   3.943   6.429   9.097  0.0000  0.0000  0.0000
10902OM     OM110902   4.250   6.772   8.178  0.0000  0.0000  0.0000
10903OM     OM110903   8.806   4.148   0.964  0.0000  0.0000  0.0000
10904OM     OM110904   6.769   9.244   0.652  0.0000  0.0000  0.0000
10905OM     OM110905   6.709   9.211   0.902  0.0000  0.0000  0.0000
10906OM     OM110906   7.088   3.797   8.411  0.0000  0.0000  0.0000
10907OM     OM110907   3.002   3.954   8.478  0.0000  0.0000  0.0000
10908OM     OM110908   6.923   4.399   0.403  0.0000  0.0000  0.0000
10909OM     OM110909   7.461   6.341   9.127  0.0000  0.0000  0.0000
10910OM     OM110910   7.516   6.292   8.873  0.0000  0.0000  0.0000
10911OM     OM110911   8.402   6.219   1.276  0.0000  0.0000  0.0000
10912OM     OM110912   3.283   9.582   1.038  0.0000  0.0000  0.0000
10913OM     OM110913   9.501   4.052   1.069  0.0000  0.0000  0.0000
10914OM     OM110914   9.535   6.810   9.338  0.0000  0.0000  0.0000
10915OM     OM110915   9.044   1.256   8.739  0.0000  0.0000  0.0000
10916OM     OM110916   5.943   3.794   1.097  0.0000  0.0000  0.0000
10917OM     OM110917   1.433   1.125   0.231  0.0000  0.0000  0.0000
10918OM     OM110918   7.484   4.975   0.881  0.0000  0.0000  0.0000
10919OM     OM110919   1.762   6.770   0.062  0.0000  0.0000  0.0000
10920OM     OM110920   9.297   4.217   1.062  0.0000  0.0000  0.0000
10921OM     OM110921   5.323   8.394   9.082  0.0000  0.0000  0.0000
10922OM     OM110922   5.369   8.592   9.251  0.0000  0.0000  0.0000
10923OM     OM110923   5.488   0.998   1.353  0.0000  0.0000  0.0000
10924OM     OM110924   6.195   4.551   9.254  0.0000  0.0000  0.0000
10925OM     OM110925   0.145   3.078   8.747  0.0000  0.0000  0.0000
10926OM     OM110926   3.627   6.705   8.456  0.0000  0.0000  0.0000
10927OM     OM110927   7.052   4.292   0.597  0.0000  0.0000  0.0000
10928OM     OM110928   3.617   6.865   8.664  0.0000  0.0000  0.0000
10929OM     OM110929   3.752   7.069   8.594  0.0000  0.0000  0.0000
10930OM     OM110930   2.387   8.641   9.304  0.0000  0.0000  0.0000
10931OM     OM110931   8.657   6.726   0.593  0.0000  0.0000  0.0000
10932OM     OM110932   7.440   9.303   1.132  0.0000  0.0000  0.0000
10933OM     OM110933   4.680   5.136   0.272  0.0000  0.0000  0.0000
10934OM     OM110934   8.017   1.392   0.576  0.0000  0.0000  0.0000
10935OM     OM110935   5.451   6.389   9.398  0.0000  0.0000  0.0000
10936OM     OM110936   1.105   2.167   0.451  0.0000  0.0000  0.0000
10937OM     OM110937   8.332   9.548   9.493  0.0000  0.0000  0.0000
10938OM     OM110938   6.434   1.375   0.718  0.0000  0.0000  0.0000
10939OM     OM110939   7.277   2.997   0.912  0.0000  0.0000  0.0000
10940OM     OM110940   9.447   7.725   1.242  0.0000  0.0000  0.0000
10941OM     OM110941   8.979   8.883   8.865  0.0000  0.0000  0.0000
10942OM     OM110942   2.078   6.284   8.427  0.0000  0.0000  0.0000
10943OM     OM110943   5.896   2.589   8.690  0.0000  0.0000  0.0000
10944OM     OM110944   5.890   2.720   8.464  0.0000  0.0000  0.0000
10945OM     OM110945   1.398   2.771   1.202  0.0000  0.0000  0.0000
10946OM     OM110946   1.571   7.973   0.886  0.0000  0.0000  0.0000
10947OM     OM110947   1.776   2.415   0.947  0.0000  0.0000  0.0000
10948OM     OM110948   5.745   2.409   8.584  0.0000  0.0000  0.0000
10949OM     OM110949   1.885   1.992   8.217  0.0000  0.0000  0.0000
10950OM     OM110950   1.681   1.853   8.289  0.0000  0.0000  0.0000
10951OM     OM110951   2.807   5.148   9.550  0.0000  0.0000  0.0000
10952OM     OM110952   2.584   5.235   0.051  0.0000  0.0000  0.0000
10953OM     OM110953   2.230   7.492   0.697  0.0000  0.0000  0.0000
10954OM     OM110954   5.925   1.246   8.549  0.0000  0.0000  0.0000
10955OM     OM110955   8.412   8.098   9.196  0.0000  0.0000  0.0000
10956OM     OM110956   6.862   1.571   0.640  0.0000  0.0000  0.0000
10957OM     OM110957   4.200   7.004   1.414  0.0000  0.0000  0.0000
10958OM     OM110958   2.731   8.591   0.824  0.0000  0.0000  0.0000
10959OM     OM110959   3.908   7.479   8.699  0.0000  0.0000  0.0000
10960OM     OM110960   3.827   7.307   8.524  0.0000  0.0000  0.0000
10961OM     OM110961   3.659   7.398   8.706  0.0000  0.0000  0.0000
10962OM     OM110962   2.803   7.857   8.702  0.0000  0.0000  0.0000
10963OM     OM110963   6.181   4.480   9.495  0.0000  0.0000  0.0000
10964OM     OM110964   8.238   7.020   1.004  0.0000  0.0000  0.0000
10965OM     OM110965   8.336   7.251   0.963  0.0000  0.0000  0.0000
10966OM     OM110966   8.954   1.074   8.903  0.0000  0.0000  0.0000
10967OM     OM110967   3.144   3.854   0.419  0.0000  0.0000  0.0000
10968OM     OM110968   9.533   4.752   0.728  0.0000  0.0000  0.0000
10969OM     OM110969   6.748   3.545   0.901  0.0000  0.0000  0.0000
10970OM     OM110970   5.685   6.009   0.967  0.0000  0.0000  0.0000
10971OM     OM110971   5.490   7.045   0.991  0.0000  0.0000  0.0000
10972OM     OM110972   8.970   8.140   0.811  0.0000  0.0000  0.0000
10973OM     OM110973   5.545   1.229   8.865  0.0000  0.0000  0.0000
10974OM     OM110974   5.338   0.928   8.487  0.0000  0.0000  0.0000
10975OM     OM110975   2.275   4.733   0.225  0.0000  0.0000  0.0000
10976OM     OM110976   6.420   1.143   1.103  0.0000  0.0000  0.0000
10977OM     OM110977   1.873   6.699   0.287  0.0000  0.0000  0.0000
10978OM     OM110978   1.747   6.514   0.150  0.0000  0.0000  0.0000
10979OM     OM110979   8.050   2.344   9.015  0.0000  0.0000  0.0000
10980OM     OM110980   7.796   6.865   0.912  0.0000  0.0000  0.0000
10981OM     OM110981   8.038   6.930   0.855  0.0000  0.0000  0.0000
10982OM     OM110982   2.961   5.541   1.006  0.0000  0.0000  0.0000
10983OM     OM110983   8.386   6.789   0.231  0.0000  0.0000  0.0000
10984OM     OM110984   8.532   7.000   0.201  0.0000  0.0000  0.0000
10985OM     OM110985   8.506   6.894   0.440  0.0000  0.0000  0.0000
10986OM     OM110986   7.497   8.390   0.149  0.0000  0.0000  0.0000
10987OM     OM110987   6.620   6.004   9.287  0.0000  0.0000  0.0000
10988OM     OM110988   8.619   5.511   1.270  0.0000  0.0000  0.0000
10989OM     OM110989   6.679   1.439   0.782  0.0000  0.0000  0.0000
10990OM     OM110990   4.719   5.165   9.455  0.0000  0.0000  0.0000
10991OM     OM110991   6.391   1.818   1.331  0.0000  0.0000  0.0000
10992OM     OM110992   4.169   2.003   0.588  0.0000  0.0000  0.0000
10993OM     OM110993   2.447   1.871   0.483  0.0000  0.0000  0.0000
10994OM     OM110994   6.737   9.207   0.388  0.0000  0.0000  0.0000
10995OM     OM110995   4.189   4.607   8.335  0.0000  0.0000  0.0000
10996OM     OM110996   2.330   3.233   8.688  0.0000  0.0000  0.0000
10997OM     OM110997   2.946   3.695   0.334  0.0000  0.0000  0.0000
10998OM     OM110998   0.703   7.115   9.462  0.0000  0.0000  0.0000
10999OM     OM110999   6.995   7.016   0.019  0.0000  0.0000  0.0000
11000OM     OM111000   6.829   6.846   0.164  0.0000  0.0000  0.0000
11001OM     OM111001   5.937   3.366   9.498  0.0000  0.0000  0.0000
11002OM     OM111002   5.798   3.142   9.547  0.0000  0.0000  0.0000
11003OM     OM111003   3.026   1.545   1.246  0.0000  0.0000  0.0000
11004OM     OM111004   2.890   1.634   1.037  0.0000  0.0000  0.0000
11005OM     OM111005   8.380   5.442   8.785  0.0000  0.0000  0.0000
11006OM     OM111006   3.228   7.966   8.780  0.0000  0.0000  0.0000
11007OM     OM111007   5.063   8.979   8.374  0.0000  0.0000  0.0000
11008OM     OM111008   5.275   8.825   8.340  0.0000  0.0000  0.0000
11009OM     OM111009   5.839   2.295   1.220  0.0000  0.0000  0.0000
11010OM     OM111010   2.926   6.091   8.700  0.0000  0.0000  0.0000
11011OM     OM111011   4.939   5.150   0.002  0.0000  0.0000  0.0000
11012OM     OM111012   8.235   3.963   0.522  0.0000  0.0000  0.0000
11013OM     OM111013   7.064   4.370   0.834  0.0000  0.0000  0.0000
11014OM     OM111014   7.715   6.879   1.158  0.0000  0.0000  0.0000
11015OM     OM111015   0.052   2.279   8.909  0.0000  0.0000  0.0000
11016OM     OM111016   4.394   7.806   0.582  0.0000  0.0000  0.0000
11017OM     OM111017   2.299   8.871   9.373  0.0000  0.0000  0.0000
11018OM     OM111018   6.382   0.210   9.017  0.0000  0.0000  0.0000
11019OM     OM111019   6.151   0.207   9.142  0.0000  0.0000  0.0000
11020OM     OM111020   3.021   2.976   9.397  0.0000  0.0000  0.0000
11021OM     OM111021   3.130   2.747   9.466  0.0000  0.0000  0.0000
11022OM     OM111022   4.369   8.670   0.972  0.0000  0.0000  0.0000
11023OM     OM111023   5.130   6.444   0.798  0.0000  0.0000  0.0000
11024OM     OM111024   0.803   1.805   8.919  0.0000  0.0000  0.0000
11025OM     OM111025   0.766   1.652   8.706  0.0000  0.0000  0.0000
11026OM     OM111026   7.736   8.291   0.180  0.0000  0.0000  0.0000
11027OM     OM111027   6.191   1.967   9.363  0.0000  0.0000  0.0000
11028OM     OM111028   4.462   8.899   0.437  0.0000  0.0000  0.0000
11029OM     OM111029   2.200   6.585   1.163  0.0000  0.0000  0.0000
11030OM     OM111030   2.205   6.800   1.013  0.0000  0.0000  0.0000
11031OM     OM111031   2.667   9.511   0.053  0.0000  0.0000  0.0000
11032OM     OM111032   3.905   5.476   1.413  0.0000  0.0000  0.0000
11033OM     OM111033   8.438   4.120   0.430  0.0000  0.0000  0.0000
11034OM     OM111034   3.802   4.635   9.508  0.0000  0.0000  0.0000
11035OM     OM111035   7.289   4.867   0.744  0.0000  0.0000  0.0000
11036OM     OM111036   4.345   6.047   0.691  0.0000  0.0000  0.0000
11037OM     OM111037   6.407   6.932   0.782  0.0000  0.0000  0.0000
11038OM     OM111038   7.697   9.599   9.531  0.0000  0.0000  0.0000
11039OM     OM111039   2.675   8.398   0.991  0.0000  0.0000  0.0000
11040OM     OM111040   7.646   5.943   0.869  0.0000  0.0000  0.0000
11041OM     OM111041   4.139   4.947   1.031  0.0000  0.0000  0.0000
11042OM     OM111042   4.116   4.794   1.234  0.0000  0.0000  0.0000
11043OM     OM111043   6.797   5.453   1.141  0.0000  0.0000  0.0000
11044OM     OM111044   3.559   7.254   1.286  0.0000  0.0000  0.0000
11045OM     OM111045   0.862   1.545   8.489  0.0000  0.0000  0.0000
11046OM     OM111046   9.180   8.623   9.406  0.0000  0.0000  0.0000
11047OM     OM111047   9.359   8.527   9.574  0.0000  0.0000  0.0000
11048OM     OM111048   7.668   7.411   9.347  0.0000  0.0000  0.0000
11049OM     OM111049   2.687   4.374   1.164  0.0000  0.0000  0.0000
11050OM     OM111050   7.237   6.027   0.121  0.0000  0.0000  0.0000
11051OM     OM111051   6.466   4.055   0.494  0.0000  0.0000  0.0000
11052OM     OM111052   5.579   2.297   1.197  0.0000  0.0000  0.0000
11053OM     OM111053   5.290   5.507   0.710  0.0000  0.0000  0.0000
11054OM     OM111054   5.162   7.919   0.117  0.0000  0.0000  0.0000
11055OM     OM111055   4.959   7.842   9.573  0.0000  0.0000  0.0000
11056OM     OM111056   0.236   2.860   0.543  0.0000  0.0000  0.0000
11057OM     OM111057   1.698   1.762   0.559  0.0000  0.0000  0.0000
11058OM     OM111058   6.397   2.804   0.123  0.0000  0.0000  0.0000
11059OM     OM111059   7.894   5.398   1.018  0.0000  0.0000  0.0000
11060OM     OM111060   5.916   6.385   9.458  0.0000  0.0000  0.0000
11061OM     OM111061   5.790   6.170   9.549  0.0000  0.0000  0.0000
11062OM     OM111062   3.198   4.908   8.398  0.0000  0.0000  0.0000
11063OM     OM111063   4.077   7.116   0.376  0.0000  0.0000  0.0000
11064OM     OM111064   8.353   1.769   0.697  0.0000  0.0000  0.0000
11065OM     OM111065   9.142   0.695   9.339  0.0000  0.0000  0.0000
11066OM     OM111066   6.554   1.233   0.898  0.0000  0.0000  0.0000
11067OM     OM111067   1.745   3.334   9.456  0.0000  0.0000  0.0000
11068OM     OM111068   1.046   7.727   9.268  0.0000  0.0000  0.0000
11069OM     OM111069   6.715   2.522   1.305  0.0000  0.0000  0.0000
11070OM     OM111070   1.916   0.796   1.051  0.0000  0.0000  0.0000
11071OM     OM111071   1.064   5.373   0.208  0.0000  0.0000  0.0000
11072OM     OM111072   4.944   5.093   0.251  0.0000  0.0000  0.0000
11073OM     OM111073   4.806   5.044   0.472  0.0000  0.0000  0.0000
11074OM     OM111074   8.487   8.592   9.054  0.0000  0.0000  0.0000
11075OM     OM111075   3.962   0.496   8.328  0.0000  0.0000  0.0000
11076OM     OM111076   8.169   9.534   0.566  0.0000  0.0000  0.0000
11077OM     OM111077   5.603   4.094   0.804  0.0000  0.0000  0.0000
11078OM     OM111078   4.003   5.132   8.476  0.0000  0.0000  0.0000
11079OM     OM111079   1.100   5.369   0.461  0.0000  0.0000  0.0000
11080OM     OM111080   1.312   5.418   0.327  0.0000  0.0000  0.0000
11081OM     OM111081   0.777   0.388   8.300  0.0000  0.0000  0.0000
11082OM     OM111082   7.230   0.506   9.021  0.0000  0.0000  0.0000
11083OM     OM111083   3.927   1.924   0.633  0.0000  0.0000  0.0000
11084OM     OM111084   0.818   7.065   8.692  0.0000  0.0000  0.0000
11085OM     OM111085   6.619   1.930   8.715  0.0000  0.0000  0.0000
11086OM     OM111086   0.409   7.858   0.758  0.0000  0.0000  0.0000
11087OM     OM111087   1.650   0.270   9.600  0.0000  0.0000  0.0000
11088OM     OM111088   3.764   5.635   9.458  0.0000  0.0000  0.0000
11089OM     OM111089   0.991   6.892   0.195  0.0000  0.0000  0.0000
11090OM     OM111090   1.240   6.964   0.180  0.0000  0.0000  0.0000
11091OM     OM111091   7.520   1.997   0.870  0.0000  0.0000  0.0000
11092OM     OM111092   7.545   9.522   1.250  0.0000  0.0000  0.0000
11093OM     OM111093   3.827   6.363   9.567  0.0000  0.0000  0.0000
11094OM     OM111094   4.261   4.376   9.249  0.0000  0.0000  0.0000
11095OM     OM111095   0.919   7.895   1.048  0.0000  0.0000  0.0000
11096OM     OM111096   6.828   3.083   0.527  0.0000  0.0000  0.0000
11097OM     OM111097   0.956   7.894   1.298  0.0000  0.0000  0.0000
11098OM     OM111098   3.132   2.499   9.372  0.0000  0.0000  0.0000
11099OM     OM111099   8.474   4.087   0.173  0.0000  0.0000  0.0000
11100OM     OM111100   3.486   7.667   0.653  0.0000  0.0000  0.0000
11101OM     OM111101   5.434   4.901   0.767  0.0000  0.0000  0.0000
11102OM     OM111102   5.425   4.985   0.517  0.0000  0.0000  0.0000
11103OM     OM111103   7.638   3.197   0.319  0.0000  0.0000  0.0000
11104OM     OM111104   8.264   8.677   9.201  0.0000  0.0000  0.0000
11105OM     OM111105   4.576   9.300   1.099  0.0000  0.0000  0.0000
11106OM     OM111106   9.580   4.969   8.718  0.0000  0.0000  0.0000
11107OM     OM111107   7.176   3.183   8.804  0.0000  0.0000  0.0000
11108OM     OM111108   9.518   8.343   0.052  0.0000  0.0000  0.0000
11109OM     OM111109   7.803   2.535   0.460  0.0000  0.0000  0.0000
11110OM     OM111110   3.863   4.827   1.174  0.0000  0.0000  0.0000
11111OM     OM111111   6.417   2.084   9.434  0.0000  0.0000  0.0000
11112OM     OM111112   1.929   3.174   9.582  0.0000  0.0000  0.0000
11113OM     OM111113   7.691   9.367   1.121  0.0000  0.0000  0.0000
11114OM     OM111114   2.548   1.620   9.445  0.0000  0.0000  0.0000
11115OM     OM111115   5.126   7.673   0.176  0.0000  0.0000  0.0000
11116OM     OM111116   2.437   4.282   1.162  0.0000  0.0000  0.0000
11117OM     OM111117   7.677   8.766   9.475  0.0000  0.0000  0.0000
11118OM     OM111118   0.084   1.738   9.449  0.0000  0.0000  0.0000
11119OM     OM111119   8.698   2.765   0.389  0.0000  0.0000  0.0000
11120OM     OM111120   5.270   4.907   0.325  0.0000  0.0000  0.0000
11121OM     OM111121   1.997   1.000   0.905  0.0000  0.0000  0.0000
11122OM     OM111122   4.702   7.820   9.590  0.0000  0.0000  0.0000
11123OM     OM111123   1.447   1.476   9.586  0.0000  0.0000  0.0000
11124OM     OM111124   5.425   4.782   1.004  0.0000  0.0000  0.0000
11125OM     OM111125   9.201   5.888   1.098  0.0000  0.0000  0.0000
11126OM     OM111126   6.160   3.685   8.712  0.0000  0.0000  0.0000
11127OM     OM111127   3.717   8.287   9.262  0.0000  0.0000  0.0000
11128OM     OM111128   2.847   7.807   0.953  0.0000  0.0000  0.0000
11129OM     OM111129   2.048   8.908   9.445  0.0000  0.0000  0.0000
11130OM     OM111130   0.560   7.093   8.679  0.0000  0.0000  0.0000
11131OM     OM111131   0.765   5.858   8.735  0.0000  0.0000  0.0000
11132OM     OM111132   0.735   5.949   8.971  0.0000  0.0000  0.0000
11133OM     OM111133   0.869   2.851   0.354  0.0000  0.0000  0.0000
11134OM     OM111134   8.159   1.617   0.598  0.0000  0.0000  0.0000
11135OM     OM111135   5.914   0.328   9.154  0.0000  0.0000  0.0000
11136OM     OM111136   4.314   1.383   8.916  0.0000  0.0000  0.0000
11137OM     OM111137   1.222   2.321   1.369  0.0000  0.0000  0.0000
11138OM     OM111138   8.237   2.346   1.135  0.0000  0.0000  0.0000
11139OM     OM111139   5.191   3.846   1.190  0.0000  0.0000  0.0000
11140OM     OM111140   2.315   0.873   1.309  0.0000  0.0000  0.0000
11141OM     OM111141   3.698   5.791   1.334  0.0000  0.0000  0.0000
11142OM     OM111142   8.929   7.274   1.342  0.0000  0.0000  0.0000
11143OM     OM111143   1.462   2.132   8.191  0.0000  0.0000  0.0000
11144OM     OM111144   6.254   5.555   8.213  0.0000  0.0000  0.0000
11145OM     OM111145   4.160   4.151   1.345  0.0000  0.0000  0.0000
11146OM     OM111146   7.385   7.859   1.249  0.0000  0.0000  0.0000
11147OM     OM111147   9.390   0.847   1.337  0.0000  0.0000  0.0000
11148OM     OM111148   8.377   4.913   8.236  0.0000  0.0000  0.0000
11149OM     OM111149   4.723   4.602   8.282  0.0000  0.0000  0.0000
11150OM     OM111150   3.931   0.381   1.215  0.0000  0.0000  0.0000
11151OM     OM111151   1.246   1.050   1.329  0.0000  0.0000  0.0000
11152OM     OM111152   1.081   9.283   8.245  0.0000  0.0000  0.0000
11153OM     OM111153   1.548   9.037   8.391  0.0000  0.0000  0.0000
11154OM     OM111154   6.118   6.899   1.350  0.0000  0.0000  0.0000
11155OM     OM111155   6.218   1.709   8.338  0.0000  0.0000  0.0000
11156OM     OM111156   3.242   2.594   8.281  0.0000  0.0000  0.0000
11157OM     OM111157   2.612   7.184   1.380  0.0000  0.0000  0.0000
11158OM     OM111158   4.914   7.963   8.366  0.0000  0.0000  0.0000
11159OM     OM111159   5.356   3.220   1.266  0.0000  0.0000  0.0000
11160OM     OM111160   7.716   1.537   1.331  0.0000  0.0000  0.0000
11161OM     OM111161   3.453   1.548   1.332  0.0000  0.0000  0.0000
11162OM     OM111162   4.910   2.629   8.242  0.0000  0.0000  0.0000
11163OM     OM111163   0.198   1.386   1.318  0.0000  0.0000  0.0000
11164OM     OM111164   5.432   1.231   8.229  0.0000  0.0000  0.0000
11165OM     OM111165   3.966   1.436   8.315  0.0000  0.0000  0.0000
11166OM     OM111166   1.948   6.101   8.106  0.0000  0.0000  0.0000
11167OM     OM111167   6.765   7.755   1.367  0.0000  0.0000  0.0000
11168OM     OM111168   7.416   0.119   1.310  0.0000  0.0000  0.0000
11169OM     OM111169   7.384   9.001   1.405  0.0000  0.0000  0.0000
11170OM     OM111170   4.594   1.763   1.395  0.0000  0.0000  0.0000
11171OM     OM111171   0.351   1.953   8.281  0.0000  0.0000  0.0000
11172OM     OM111172   6.632   9.025   8.323  0.0000  0.0000  0.0000
11173OM     OM111173   9.374   0.053   8.232  0.0000  0.0000  0.0000
11174OM     OM111174   0.278   8.171   8.281  0.0000  0.0000  0.0000
11175OM     OM111175   4.499   4.056   8.174  0.0000  0.0000  0.0000
11176OM     OM111176   0.381   5.213   1.314  0.0000  0.0000  0.0000
11177OM     OM111177   1.933   0.830   1.389  0.0000  0.0000  0.0000
11178OM     OM111178   2.648   9.308   8.258  0.0000  0.0000  0.0000
11179OM     OM111179   6.959   8.209   1.262  0.0000  0.0000  0.0000
11180OM     OM111180   8.884   0.172   8.292  0.0000  0.0000  0.0000
11181OM     OM111181   3.901   8.698   1.323  0.0000  0.0000  0.0000
11182OM     OM111182   3.287   5.131   8.184  0.0000  0.0000  0.0000
11183OM     OM111183   0.642   3.203   1.386  0.0000  0.0000  0.0000
11184OM     OM111184   1.661   1.359   1.428  0.0000  0.0000  0.0000
11185OM     OM111185   1.621   6.555   8.149  0.0000  0.0000  0.0000
11186OM     OM111186   3.032   2.586   1.316  0.0000  0.0000  0.0000
11187OM     OM111187   9.271   3.691   1.203  0.0000  0.0000  0.0000
11188OM     OM111188   8.941   2.095   1.352  0.0000  0.0000  0.0000
11189OM     OM111189   5.169   6.998   1.358  0.0000  0.0000  0.0000
11190OM     OM111190   2.006   0.299   1.358  0.0000  0.0000  0.0000
11191OM     OM111191   8.696   2.354   8.248  0.0000  0.0000  0.0000
11192OM     OM111192   0.258   1.752   1.323  0.0000  0.0000  0.0000
11193OM     OM111193   1.992   2.840   1.316  0.0000  0.0000  0.0000
11194OM     OM111194   8.268   6.108   8.361  0.0000  0.0000  0.0000
11195OM     OM111195   4.258   4.965   1.385  0.0000  0.0000  0.0000
11196OM     OM111196   3.653   7.433   1.177  0.0000  0.0000  0.0000
11197OM     OM111197   2.169   3.524   8.246  0.0000  0.0000  0.0000
11198OM     OM111198   9.156   4.048   1.315  0.0000  0.0000  0.0000
11199OM     OM111199   9.537   4.385   1.425  0.0000  0.0000  0.0000
11200OM     OM111200   5.912   8.263   1.353  0.0000  0.0000  0.0000
11201OM     OM111201   2.363   9.181   1.340  0.0000  0.0000  0.0000
11202OM     OM111202   1.652   4.070   1.415  0.0000  0.0000  0.0000
11203OM     OM111203   7.767   8.051   8.225  0.0000  0.0000  0.0000
11204OM     OM111204   6.473   9.033   1.335  0.0000  0.0000  0.0000
11205OM     OM111205   2.951   9.446   1.415  0.0000  0.0000  0.0000
11206OM     OM111206   9.315   4.801   1.330  0.0000  0.0000  0.0000
11207OM     OM111207   5.566   6.075   8.319  0.0000  0.0000  0.0000
11208OM     OM111208   6.780   5.522   1.341  0.0000  0.0000  0.0000
11209OM     OM111209   6.575   4.270   8.250  0.0000  0.0000  0.0000
11210OM     OM111210   5.990   1.534   8.359  0.0000  0.0000  0.0000
11211OM     OM111211   1.969   6.449   1.418  0.0000  0.0000  0.0000
11212OM     OM111212   2.381   7.946   1.321  0.0000  0.0000  0.0000
11213OM     OM111213   3.514   3.724   8.181  0.0000  0.0000  0.0000
11214OM     OM111214   5.661   1.319   1.306  0.0000  0.0000  0.0000
11215OM     OM111215   1.627   5.256   1.323  0.0000  0.0000  0.0000
11216OM     OM111216   4.301   3.769   1.227  0.0000  0.0000  0.0000
11217OM     OM111217   4.853   3.302   1.435  0.0000  0.0000  0.0000
11218OM     OM111218   0.439   6.486   8.260  0.0000  0.0000  0.0000
11219OM     OM111219   7.788   4.964   8.437  0.0000  0.0000  0.0000
11220OM     OM111220   8.834   1.502   1.316  0.0000  0.0000  0.0000
11221OM     OM111221   8.094   9.241   1.364  0.0000  0.0000  0.0000
11222OM     OM111222   1.614   7.140   1.313  0.0000  0.0000  0.0000
11223OM     OM111223   1.560   0.557   8.240  0.0000  0.0000  0.0000
11224OM     OM111224   6.955   6.279   1.179  0.0000  0.0000  0.0000
11225OM     OM111225   4.533   7.412   1.381  0.0000  0.0000  0.0000
11226OM     OM111226   3.034   6.105   8.160  0.0000  0.0000  0.0000
11227OM     OM111227   6.924   2.865   1.416  0.0000  0.0000  0.0000
11228OM     OM111228   5.427   8.857   8.187  0.0000  0.0000  0.0000
11229OM     OM111229   3.771   4.087   8.287  0.0000  0.0000  0.0000
11230OM     OM111230   3.015   8.423   8.352  0.0000  0.0000  0.0000
11231OM     OM111231   2.201   3.618   1.407  0.0000  0.0000  0.0000
11232OM     OM111232   7.091   0.340   8.165  0.0000  0.0000  0.0000
11233OM     OM111233   1.953   1.467   1.439  0.0000  0.0000  0.0000
11234OM     OM111234   3.121   0.971   8.403  0.0000  0.0000  0.0000
11235OM     OM111235   7.817   7.533   8.143  0.0000  0.0000  0.0000
11236OM     OM111236   0.526   4.616   1.467  0.0000  0.0000  0.0000
11237OM     OM111237   1.843   8.363   8.303  0.0000  0.0000  0.0000
11238OM     OM111238   0.262   3.965   8.274  0.0000  0.0000  0.0000
11239OM     OM111239   9.273   0.836   8.154  0.0000  0.0000  0.0000
11240OM     OM111240   7.872   2.383   8.251  0.0000  0.0000  0.0000
11241OM     OM111241   0.572   8.753   1.470  0.0000  0.0000  0.0000
11242OM     OM111242   1.636   2.105   1.353  0.0000  0.0000  0.0000
11243OM     OM111243   6.910   2.428   1.378  0.0000  0.0000  0.0000
11244OM     OM111244   8.766   1.107   1.438  0.0000  0.0000  0.0000
11245OM     OM111245   2.695   1.892   1.369  0.0000  0.0000  0.0000
11246OM     OM111246   6.336   6.339   8.359  0.0000  0.0000  0.0000
11247OM     OM111247   6.815   1.785   8.367  0.0000  0.0000  0.0000
11248OM     OM111248   7.322   4.221   1.330  0.0000  0.0000  0.0000
11249OM     OM111249   7.586   0.750   8.186  0.0000  0.0000  0.0000
11250OM     OM111250   8.737   0.346   8.244  0.0000  0.0000  0.0000
11251OM     OM111251   6.708   8.824   8.268  0.0000  0.0000  0.0000
11252OM     OM111252   2.332   4.493   1.315  0.0000  0.0000  0.0000
11253OM     OM111253   1.655   2.417   8.308  0.0000  0.0000  0.0000
11254OM     OM111254   7.025   1.132   8.253  0.0000  0.0000  0.0000
11255OM     OM111255   5.482   1.599   8.134  0.0000  0.0000  0.0000
11256OM     OM111256   2.998   8.055   8.126  0.0000  0.0000  0.0000
11257OM     OM111257   5.030   1.718   1.443  0.0000  0.0000  0.0000
11258OM     OM111258   3.452   0.389   8.235  0.0000  0.0000  0.0000
11259OM     OM111259   5.420   8.629   1.336  0.0000  0.0000  0.0000
11260OM     OM111260   4.084   6.397   8.217  0.0000  0.0000  0.0000
11261OM     OM111261   3.467   3.571   1.440  0.0000  0.0000  0.0000
11262OM     OM111262   2.013   4.701   1.427  0.0000  0.0000  0.0000
11263OM     OM111263   2.381   3.852   8.145  0.0000  0.0000  0.0000
11264OM     OM111264   0.660   2.732   8.236  0.0000  0.0000  0.0000
11265OM     OM111265   9.263   2.283   1.407  0.0000  0.0000  0.0000
11266OM     OM111266   3.447   5.551   1.325  0.0000  0.0000  0.0000
11267OM     OM111267   0.517   7.738   8.233  0.0000  0.0000  0.0000
11268OM     OM111268   4.020   8.059   1.331  0.0000  0.0000  0.0000
11269OM     OM111269   5.562   2.917   8.104  0.0000  0.0000  0.0000
11270OM     OM111270   1.863   3.882   8.384  0.0000  0.0000  0.0000
11271OM     OM111271   2.703   6.221   1.301  0.0000  0.0000  0.0000
11272OM     OM111272   0.303   7.198   8.334  0.0000  0.0000  0.0000
11273OM     OM111273   9.232   8.869   1.359  0.0000  0.0000  0.0000
11274OM     OM111274   7.157   1.270   1.358  0.0000  0.0000  0.0000
11275OM     OM111275   6.200   6.068   1.300  0.0000  0.0000  0.0000
11276OM     OM111276   1.370   9.465   1.290  0.0000  0.0000  0.0000
11277OM     OM111277   6.510   7.019   8.267  0.0000  0.0000  0.0000
11278OM     OM111278   0.398   8.128   1.369  0.0000  0.0000  0.0000
11279OM     OM111279   1.739   5.499   1.453  0.0000  0.0000  0.0000
11280OM     OM111280   9.237   8.007   1.331  0.0000  0.0000  0.0000
11281OM     OM111281   6.788   2.649   8.176  0.0000  0.0000  0.0000
11282OM     OM111282   6.410   0.764   1.277  0.0000  0.0000  0.0000
11283OM     OM111283   8.626   7.576   1.375  0.0000  0.0000  0.0000
11284OM     OM111284   5.157   2.656   1.346  0.0000  0.0000  0.0000
11285OM     OM111285   0.635   1.019   8.149  0.0000  0.0000  0.0000
11286OM     OM111286   0.964   5.617   8.268  0.0000  0.0000  0.0000
11287OM     OM111287   5.974   7.206   8.147  0.0000  0.0000  0.0000
11288OM     OM111288   7.817   6.444   8.161  0.0000  0.0000  0.0000
11289OM     OM111289   4.080   2.966   8.232  0.0000  0.0000  0.0000
11290OM     OM111290   2.950   8.382   1.298  0.0000  0.0000  0.0000
11291OM     OM111291   9.377   2.993   8.359  0.0000  0.0000  0.0000
11292OM     OM111292   4.111   5.227   8.205  0.0000  0.0000  0.0000
11293OM     OM111293   0.321   0.732   8.303  0.0000  0.0000  0.0000
11294OM     OM111294   7.151   8.087   8.149  0.0000  0.0000  0.0000
11295OM     OM111295   0.942   2.822   1.419  0.0000  0.0000  0.0000
11296OM     OM111296   8.630   0.984   8.204  0.0000  0.0000  0.0000
11297OM     OM111297   5.426   4.300   1.293  0.0000  0.0000  0.0000
11298OM     OM111298   4.895   5.386   1.280  0.0000  0.0000  0.0000
11299OM     OM111299   8.230   1.925   1.288  0.0000  0.0000  0.0000
11300OM     OM111300   9.231   7.717   1.422  0.0000  0.0000  0.0000
11301OM     OM111301   0.312   6.773   1.279  0.0000  0.0000  0.0000
11302OM     OM111302   6.613   2.258   1.408  0.0000  0.0000  0.0000
11303OM     OM111303   0.937   6.167   1.408  0.0000  0.0000  0.0000
11304OM     OM111304   3.035   4.971   1.343  0.0000  0.0000  0.0000
11305OM     OM111305   3.932   7.147   1.394  0.0000  0.0000  0.0000
11306OM     OM111306   8.822   0.321   1.187  0.0000  0.0000  0.0000
11307OM     OM111307   0.041   6.028   8.245  0.0000  0.0000  0.0000
11308OM     OM111308   8.097   1.406   1.213  0.0000  0.0000  0.0000
11309OM     OM111309   6.946   8.624   8.245  0.0000  0.0000  0.0000
11310OM     OM111310   3.936   4.545   8.354  0.0000  0.0000  0.0000
11311OM     OM111311   5.636   3.128   1.365  0.0000  0.0000  0.0000
11312OM     OM111312   2.415   8.809   8.364  0.0000  0.0000  0.0000
11313OM     OM111313   6.262   1.142   8.343  0.0000  0.0000  0.0000
11314OM     OM111314   7.395   2.803   1.288  0.0000  0.0000  0.0000
11315OM     OM111315   0.764   8.894   1.394  0.0000  0.0000  0.0000
11316OM     OM111316   8.293   1.365   8.129  0.0000  0.0000  0.0000
11317OM     OM111317   9.120   6.362   1.357  0.0000  0.0000  0.0000
11318OM     OM111318   7.942   0.696   1.450  0.0000  0.0000  0.0000
11319OM     OM111319   7.065   6.239   1.341  0.0000  0.0000  0.0000
11320OM     OM111320   3.541   8.050   8.186  0.0000  0.0000  0.0000
11321OM     OM111321   1.055   8.249   1.394  0.0000  0.0000  0.0000
11322OM     OM111322   7.963   4.650   1.382  0.0000  0.0000  0.0000
11323OM     OM111323   7.436   6.814   8.316  0.0000  0.0000  0.0000
11324OM     OM111324   5.943   2.734   8.153  0.0000  0.0000  0.0000
11325OM     OM111325   6.131   4.779   8.301  0.0000  0.0000  0.0000
11326OM     OM111326   4.321   7.172   8.197  0.0000  0.0000  0.0000
11327OM     OM111327   5.836   0.182   8.294  0.0000  0.0000  0.0000
11328OM     OM111328   1.082   1.577   8.145  0.0000  0.0000  0.0000
11329OM     OM111329   8.833   5.659   8.303  0.0000  0.0000  0.0000
11330OM     OM111330   5.214   5.960   1.286  0.0000  0.0000  0.0000
11331OM     OM111331   9.519   2.069   8.262  0.0000  0.0000  0.0000
11332OM     OM111332   7.806   8.408   8.121  0.0000  0.0000  0.0000
11333OM     OM111333   0.902   3.552   8.200  0.0000  0.0000  0.0000
11334OM     OM111334   2.673   2.070   1.449  0.0000  0.0000  0.0000
11335OM     OM111335   7.093   5.248   8.283  0.0000  0.0000  0.0000
11336OM     OM111336   0.742   2.004   1.410  0.0000  0.0000  0.0000
11337OM     OM111337   3.734   4.707   1.332  0.0000  0.0000  0.0000
11338OM     OM111338   8.555   4.458   8.136  0.0000  0.0000  0.0000
11339OM     OM111339   2.469   0.111   1.345  0.0000  0.0000  0.0000
11340OM     OM111340   3.213   2.212   1.373  0.0000  0.0000  0.0000
11341OM     OM111341   8.497   3.563   1.431  0.0000  0.0000  0.0000
11342OM     OM111342   5.993   8.910   8.277  0.0000  0.0000  0.0000
11343OM     OM111343   4.843   8.924   8.154  0.0000  0.0000  0.0000
11344OM     OM111344   8.536   5.703   1.339  0.0000  0.0000  0.0000
11345OM     OM111345   6.099   6.761   8.108  0.0000  0.0000  0.0000
11346OM     OM111346   4.128   6.623   1.389  0.0000  0.0000  0.0000
11347OM     OM111347   4.564   9.133   8.298  0.0000  0.0000  0.0000
11348OM     OM111348   4.465   2.133   8.344  0.0000  0.0000  0.0000
11349OM     OM111349   8.780   6.703   8.250  0.0000  0.0000  0.0000
11350OM     OM111350   8.299   4.171   1.304  0.0000  0.0000  0.0000
11351OM     OM111351   7.882   9.527   8.385  0.0000  0.0000  0.0000
11352OM     OM111352   7.141   1.078   1.453  0.0000  0.0000  0.0000
11353OM     OM111353   0.498   8.496   8.261  0.0000  0.0000  0.0000
11354OM     OM111354   0.321   4.156   1.362  0.0000  0.0000  0.0000
11355OM     OM111355   6.262   2.665   8.340  0.0000  0.0000  0.0000
11356OM     OM111356   6.446   8.236   8.383  0.0000  0.0000  0.0000
11357OM     OM111357   1.661   4.731   1.387  0.0000  0.0000  0.0000
11358OM     OM111358   6.791   7.369   8.206  0.0000  0.0000  0.0000
11359OM     OM111359   4.541   7.870   1.419  0.0000  0.0000  0.0000
11360OM     OM111360   4.890   0.472   8.326  0.0000  0.0000  0.0000
11361OM     OM111361   5.366   7.101   8.357  0.0000  0.0000  0.0000
11362OM     OM111362   8.001   7.097   8.133  0.0000  0.0000  0.0000
11363OM     OM111363   7.303   1.964   1.237  0.0000  0.0000  0.0000
11364OM     OM111364   1.532   6.122   1.391  0.0000  0.0000  0.0000
11365OM     OM111365   0.690   4.423   1.465  0.0000  0.0000  0.0000
11366OM     OM111366   6.130   2.419   8.185  0.0000  0.0000  0.0000
11367OM     OM111367   7.953   1.846   8.140  0.0000  0.0000  0.0000
11368OM     OM111368   4.726   7.970   1.466  0.0000  0.0000  0.0000
11369OM     OM111369   8.006   4.035   8.148  0.0000  0.0000  0.0000
11370OM     OM111370   7.266   2.052   8.186  0.0000  0.0000  0.0000
11371OM     OM111371   2.670   3.366   8.240  0.0000  0.0000  0.0000
11372OM     OM111372   5.201   7.798   1.381  0.0000  0.0000  0.0000
11373OM     OM111373   4.097   9.374   1.437  0.0000  0.0000  0.0000
11374OM     OM111374   2.145   7.316   8.208  0.0000  0.0000  0.0000
11375OM     OM111375   7.280   6.136   8.257  0.0000  0.0000  0.0000
11376OM     OM111376   7.910   3.638   1.398  0.0000  0.0000  0.0000
11377OM     OM111377   7.028   9.333   8.203  0.0000  0.0000  0.0000
11378OM     OM111378   8.295   1.022   1.229  0.0000  0.0000  0.0000
11379OM     OM111379   6.931   1.407   8.196  0.0000  0.0000  0.0000
11380OM     OM111380   5.969   2.143   1.381  0.0000  0.0000  0.0000
11381OM     OM111381   0.206   5.090   8.241  0.0000  0.0000  0.0000
11382OM     OM111382   3.623   2.782   8.150  0.0000  0.0000  0.0000
11383OM     OM111383   1.984   6.502   8.213  0.0000  0.0000  0.0000
11384OM     OM111384   6.612   3.549   8.347  0.0000  0.0000  0.0000
11385OM     OM111385   2.397   7.405   1.345  0.0000  0.0000  0.0000
11386OM     OM111386   9.258   5.439   8.322  0.0000  0.0000  0.0000
11387OM     OM111387   3.591   0.455   1.468  0.0000  0.0000  0.0000
11388OM     OM111388   7.583   0.213   1.459  0.0000  0.0000  0.0000
11389OM     OM111389   4.197   4.473   1.355  0.0000  0.0000  0.0000
11390OM     OM111390   6.267   4.018   1.395  0.0000  0.0000  0.0000
11391OM     OM111391   2.816   7.708   8.171  0.0000  0.0000  0.0000
11392OM     OM111392   6.012   7.647   1.427  0.0000  0.0000  0.0000
11393OM     OM111393   8.842   4.963   8.239  0.0000  0.0000  0.0000
11394OM     OM111394   4.892   6.653   1.335  0.0000  0.0000  0.0000
11395OM     OM111395   5.445   5.187   8.229  0.0000  0.0000  0.0000
11396OM     OM111396   4.900   6.789   8.298  0.0000  0.0000  0.0000
11397OM     OM111397   1.164   1.691   1.416  0.0000  0.0000  0.0000
11398OM     OM111398   4.496   8.381   8.180  0.0000  0.0000  0.0000
11399OM     OM111399   3.708   3.868   1.296  0.0000  0.0000  0.0000
11400OM     OM111400   1.297   8.645   1.413  0.0000  0.0000  0.0000
11401OM     OM111401   0.744   6.645   8.199  0.0000  0.0000  0.0000
11402OM     OM111402   1.910   2.973   8.158  0.0000  0.0000  0.0000
11403OM     OM111403   7.864   3.106   1.195  0.0000  0.0000  0.0000
11404OM     OM111404   2.157   2.023   8.325  0.0000  0.0000  0.0000
11405OM     OM111405   5.549   0.741   8.347  0.0000  0.0000  0.0000
11406OM     OM111406   0.522   2.572   1.310  0.0000  0.0000  0.0000
11407OM     OM111407   3.719   1.426   1.414  0.0000  0.0000  0.0000
11408OM     OM111408   8.054   7.582   1.229  0.0000  0.0000  0.0000
11409OM     OM111409   7.686   0.278   8.162  0.0000  0.0000  0.0000
11410OM     OM111410   4.051   8.502   8.177  0.0000  0.0000  0.0000
11411OM     OM111411   9.130   4.887   1.529  0.0000  0.0000  0.0000
11412OM     OM111412   1.933   4.387   8.195  0.0000  0.0000  0.0000
11413OM     OM111413   4.120   2.844   1.313  0.0000  0.0000  0.0000
11414OM     OM111414   1.785   8.660   8.157  0.0000  0.0000  0.0000
11415OM     OM111415   1.859   5.147   8.310  0.0000  0.0000  0.0000
11416OM     OM111416   2.673   5.449   1.395  0.0000  0.0000  0.0000
11417OM     OM111417   7.959   1.801   8.338  0.0000  0.0000  0.0000
11418OM     OM111418   1.635   4.310   1.298  0.0000  0.0000  0.0000
11419OM     OM111419   0.729   4.553   8.162  0.0000  0.0000  0.0000
11420OM     OM111420   8.024   2.526   8.170  0.0000  0.0000  0.0000
11421OM     OM111421   8.683   7.690   8.310  0.0000  0.0000  0.0000
11422OM     OM111422   3.038   3.506   1.389  0.0000  0.0000  0.0000
11423OM     OM111423   2.486   5.572   8.300  0.0000  0.0000  0.0000
11424OM     OM111424   1.333   1.232   1.457  0.0000  0.0000  0.0000
11425OM     OM111425   8.611   6.788   1.320  0.0000  0.0000  0.0000
11426OM     OM111426   4.974   4.948   8.265  0.0000  0.0000  0.0000
11427OM     OM111427   6.367   2.785   1.382  0.0000  0.0000  0.0000
11428OM     OM111428   4.491   0.424   1.351  0.0000  0.0000  0.0000
11429OM     OM111429   3.311   3.387   8.251  0.0000  0.0000  0.0000
11430OM     OM111430   5.046   3.391   8.210  0.0000  0.0000  0.0000
11431OM     OM111431   7.060   4.428   8.279  0.0000  0.0000  0.0000
11432OM     OM111432   2.633   6.574   8.262  0.0000  0.0000  0.0000
11433OM     OM111433   5.948   9.248   1.328  0.0000  0.0000  0.0000
11434OM     OM111434   4.498   3.161   8.435  0.0000  0.0000  0.0000
11435OM     OM111435   7.149   4.907   8.344  0.0000  0.0000  0.0000
11436OM     OM111436   4.339   5.915   8.233  0.0000  0.0000  0.0000
11437OM     OM111437   1.316   3.435   8.257  0.0000  0.0000  0.0000
11438OM     OM111438   4.093   3.416   8.265  0.0000  0.0000  0.0000
11439OM     OM111439   3.300   4.070   1.276  0.0000  0.0000  0.0000
11440OM     OM111440   2.423   7.452   8.169  0.0000  0.0000  0.0000
11441OM     OM111441   2.363   5.040   1.313  0.0000  0.0000  0.0000
11442OM     OM111442   2.598   0.696   8.229  0.0000  0.0000  0.0000
11443OM     OM111443   3.375   3.005   0.894  0.0000  0.0000  0.0000
11444OM     OM111444   8.211   5.906   1.392  0.0000  0.0000  0.0000
11445OM     OM111445   8.369   8.025   1.343  0.0000  0.0000  0.0000
11446OM     OM111446   2.173   7.191   1.493  0.0000  0.0000  0.0000
11447OM     OM111447   2.960   0.851   1.202  0.0000  0.0000  0.0000
11448OM     OM111448   0.274   7.055   1.345  0.0000  0.0000  0.0000
11449OM     OM111449   8.376   3.381   8.301  0.0000  0.0000  0.0000
11450OM     OM111450   0.287   7.882   1.320  0.0000  0.0000  0.0000
11451OM     OM111451   5.187   3.854   1.381  0.0000  0.0000  0.0000
11452OM     OM111452   3.760   6.838   8.269  0.0000  0.0000  0.0000
11453OM     OM111453   6.404   4.521   1.343  0.0000  0.0000  0.0000
11454OM     OM111454   5.563   0.448   1.332  0.0000  0.0000  0.0000
11455OM     OM111455   6.614   3.319   1.350  0.0000  0.0000  0.0000
11456OM     OM111456   5.348   7.414   1.407  0.0000  0.0000  0.0000
11457OM     OM111457   4.959   8.685   1.408  0.0000  0.0000  0.0000
11458OM     OM111458   9.240   3.185   1.304  0.0000  0.0000  0.0000
11459OM     OM111459   3.534   8.440   8.172  0.0000  0.0000  0.0000
11460OM     OM111460   8.847   8.406   8.208  0.0000  0.0000  0.0000
11461OM     OM111461   8.838   9.129   8.306  0.0000  0.0000  0.0000
11462OM     OM111462   4.131   4.168   8.230  0.0000  0.0000  0.0000
11463OM     OM111463   1.847   8.747   8.320  0.0000  0.0000  0.0000
11464OM     OM111464   1.235   1.092   8.248  0.0000  0.0000  0.0000
11465OM     OM111465   9.063   6.735   8.207  0.0000  0.0000  0.0000
11466OM     OM111466   5.172   1.137   1.347  0.0000  0.0000  0.0000
11467OM     OM111467   0.552   6.107   1.330  0.0000  0.0000  0.0000
11468OM     OM111468   6.157   8.912   1.338  0.0000  0.0000  0.0000
11469OM     OM111469   1.923   2.388   8.206  0.0000  0.0000  0.0000
11470OM     OM111470   3.626   2.001   8.503  0.0000  0.0000  0.0000
11471OM     OM111471   9.035   2.351   8.182  0.0000  0.0000  0.0000
11472OM     OM111472   5.089   8.222   1.449  0.0000  0.0000  0.0000
11473OM     OM111473   6.160   1.344   1.230  0.0000  0.0000  0.0000
11474OM     OM111474   6.549   1.689   1.412  0.0000  0.0000  0.0000
11475OM     OM111475   5.564   7.958   8.291  0.0000  0.0000  0.0000
11476OM     OM111476   5.296   8.509   8.136  0.0000  0.0000  0.0000
11477OM     OM111477   5.432   5.325   1.339  0.0000  0.0000  0.0000
11478OM     OM111478   0.088   9.237   8.255  0.0000  0.0000  0.0000
11479OM     OM111479   0.609   5.933   8.275  0.0000  0.0000  0.0000
11480OM     OM111480   1.353   5.818   8.248  0.0000  0.0000  0.0000
11481OM     OM111481   1.291   7.479   8.201  0.0000  0.0000  0.0000
11482OM     OM111482   3.369   9.186   1.378  0.0000  0.0000  0.0000
11483OM     OM111483   0.926   4.922   1.445  0.0000  0.0000  0.0000
11484OM     OM111484   0.341   2.856   1.352  0.0000  0.0000  0.0000
11485OM     OM111485   1.930   5.792   1.395  0.0000  0.0000  0.0000
11486OM     OM111486   2.262   2.675   1.391  0.0000  0.0000  0.0000
11487OM     OM111487   9.172   1.448   8.308  0.0000  0.0000  0.0000
11488OM     OM111488   4.597   4.323   1.347  0.0000  0.0000  0.0000
11489OM     OM111489   5.914   5.995   1.334  0.0000  0.0000  0.0000
11490OM     OM111490   8.153   8.797   8.387  0.0000  0.0000  0.0000
11491OM     OM111491   2.854   5.767   8.217  0.0000  0.0000  0.0000
11492OM     OM111492   0.220   6.500   1.431  0.0000  0.0000  0.0000
11493OM     OM111493   0.294   5.456   1.394  0.0000  0.0000  0.0000
11494OM     OM111494   6.287   0.626   8.212  0.0000  0.0000  0.0000
11495OM     OM111495   1.306   4.446   8.334  0.0000  0.0000  0.0000
11496OM     OM111496   7.695   3.195   8.187  0.0000  0.0000  0.0000
11497OM     OM111497   5.450   4.805   1.409  0.0000  0.0000  0.0000
11498OM     OM111498   9.560   1.348   8.284  0.0000  0.0000  0.0000
11499OM     OM111499   6.709   5.815   1.424  0.0000  0.0000  0.0000
11500OM     OM111500   3.570   1.514   1.498  0.0000  0.0000  0.0000
11501OM     OM111501   2.351   6.212   1.306  0.0000  0.0000  0.0000
11502OM     OM111502   1.237   8.287   8.339  0.0000  0.0000  0.0000
11503OM     OM111503   6.037   3.905   1.338  0.0000  0.0000  0.0000
11504OM     OM111504   9.059   8.561   1.364  0.0000  0.0000  0.0000
11505OM     OM111505   5.934   5.226   1.340  0.0000  0.0000  0.0000
11506OM     OM111506   3.416   8.487   1.409  0.0000  0.0000  0.0000
11507OM     OM111507   1.956   0.745   8.450  0.0000  0.0000  0.0000
11508OM     OM111508   6.385   7.664   8.223  0.0000  0.0000  0.0000
11509OM     OM111509   5.889   2.020   8.178  0.0000  0.0000  0.0000
11510OM     OM111510   5.691   3.696   8.309  0.0000  0.0000  0.0000
11511OM     OM111511   8.061   5.479   1.358  0.0000  0.0000  0.0000
11512OM     OM111512   1.441   7.030   8.235  0.0000  0.0000  0.0000
11513OM     OM111513   0.610   1.781   8.225  0.0000  0.0000  0.0000
11514OM     OM111514   3.098   7.264   1.317  0.0000  0.0000  0.0000
11515OM     OM111515   4.233   2.149   1.261  0.0000  0.0000  0.0000
11516OM     OM111516   3.696   6.842   1.407  0.0000  0.0000  0.0000
11517OM     OM111517   5.647   0.626   8.200  0.0000  0.0000  0.0000
11518OM     OM111518   6.288   9.575   8.255  0.0000  0.0000  0.0000
11519OM     OM111519   3.756   3.208   1.270  0.0000  0.0000  0.0000
11520OM     OM111520   1.743   8.478   1.341  0.0000  0.0000  0.0000
11521OM     OM111521   5.777   2.057   1.414  0.0000  0.0000  0.0000
11522OM     OM111522   2.011   3.804   1.270  0.0000  0.0000  0.0000
11523OM     OM111523   4.067   9.393   8.294  0.0000  0.0000  0.0000
11524OM     OM111524   7.265   2.499   8.128  0.0000  0.0000  0.0000
11525OM     OM111525   6.069   4.353   8.244  0.0000  0.0000  0.0000
11526OM     OM111526   6.926   5.865   8.280  0.0000  0.0000  0.0000
11527OM     OM111527   6.047   2.940   1.371  0.0000  0.0000  0.0000
11528OM     OM111528   4.899   0.512   1.322  0.0000  0.0000  0.0000
11529OM     OM111529   8.091   4.231   8.312  0.0000  0.0000  0.0000
11530OM     OM111530   4.014   7.792   8.359  0.0000  0.0000  0.0000
11531OM     OM111531   8.026   6.861   8.203  0.0000  0.0000  0.0000
11532OM     OM111532   4.071   2.472   8.144  0.0000  0.0000  0.0000
11533OM     OM111533   4.249   8.357   8.245  0.0000  0.0000  0.0000
11534OM     OM111534   3.402   0.198   1.224  0.0000  0.0000  0.0000
11535OM     OM111535   8.103   5.697   8.191  0.0000  0.0000  0.0000
11536OM     OM111536   8.181   6.469   1.364  0.0000  0.0000  0.0000
11537OM     OM111537   0.930   7.480   8.381  0.0000  0.0000  0.0000
11538OM     OM111538   0.798   3.852   1.413  0.0000  0.0000  0.0000
11539OM     OM111539   3.007   6.516   1.406  0.0000  0.0000  0.0000
11540OM     OM111540   3.606   1.073   8.334  0.0000  0.0000  0.0000
11541OM     OM111541   2.508   1.428   1.275  0.0000  0.0000  0.0000
11542OM     OM111542   2.179   7.387   8.436  0.0000  0.0000  0.0000
11543OM     OM111543   2.177   8.821   1.367  0.0000  0.0000  0.0000
11544OM     OM111544   8.601   4.671   1.333  0.0000  0.0000  0.0000
11545OM     OM111545   2.489   4.817   8.317  0.0000  0.0000  0.0000
11546OM     OM111546   5.241   2.217   8.222  0.0000  0.0000  0.0000
11547OM     OM111547   8.471   5.129   8.123  0.0000  0.0000  0.0000
11548OM     OM111548   9.168   5.275   8.280  0.0000  0.0000  0.0000
11549OM     OM111549   0.695   0.084   8.269  0.0000  0.0000  0.0000
11550OM     OM111550   5.976   8.223   8.349  0.0000  0.0000  0.0000
11551OM     OM111551   2.939   4.415   8.175  0.0000  0.0000  0.0000
11552OM     OM111552   7.921   8.709   1.321  0.0000  0.0000  0.0000
11553OM     OM111553   8.911   5.297   1.424  0.0000  0.0000  0.0000
11554OM     OM111554   3.686   2.286   1.340  0.0000  0.0000  0.0000
11555OM     OM111555   7.271   3.315   8.207  0.0000  0.0000  0.0000
11556OM     OM111556   1.865   9.483   1.411  0.0000  0.0000  0.0000
11557OM     OM111557   2.864   2.128   8.302  0.0000  0.0000  0.0000
11558OM     OM111558   6.394   6.644   1.357  0.0000  0.0000  0.0000
11559OM     OM111559   9.300   4.145   8.282  0.0000  0.0000  0.0000
11560OM     OM111560   1.296   2.493   1.477  0.0000  0.0000  0.0000
11561OM     OM111561   4.937   9.409   1.382  0.0000  0.0000  0.0000
11562OM     OM111562   6.355   3.507   8.253  0.0000  0.0000  0.0000
11563OM     OM111563   7.780   8.030   1.331  0.0000  0.0000  0.0000
11564OM     OM111564   2.594   8.702   8.227  0.0000  0.0000  0.0000
11565OM     OM111565   3.642   0.986   1.366  0.0000  0.0000  0.0000
11566OM     OM111566   7.006   4.833   1.215  0.0000  0.0000  0.0000
11567OM     OM111567   4.058   0.314   8.286  0.0000  0.0000  0.0000
11568OM     OM111568   2.423   8.287   8.301  0.0000  0.0000  0.0000
11569OM     OM111569   6.982   0.464   1.356  0.0000  0.0000  0.0000
11570OM     OM111570   3.033   0.477   8.174  0.0000  0.0000  0.0000
11571OM     OM111571   4.200   5.269   1.327  0.0000  0.0000  0.0000
11572OM     OM111572   7.893   5.135   1.356  0.0000  0.0000  0.0000
11573OM     OM111573   1.079   3.412   1.306  0.0000  0.0000  0.0000
11574OM     OM111574   1.257   7.819   1.278  0.0000  0.0000  0.0000
11575OM     OM111575   5.765   5.102   8.251  0.0000  0.0000  0.0000
11576OM     OM111576   8.899   4.242   8.334  0.0000  0.0000  0.0000
11577OM     OM111577   4.826   7.477   8.351  0.0000  0.0000  0.0000
11578OM     OM111578   7.572   5.498   8.288  0.0000  0.0000  0.0000
11579OM     OM111579   2.414   2.259   8.350  0.0000  0.0000  0.0000
11580OM     OM111580   7.282   6.854   1.372  0.0000  0.0000  0.0000
11581OM     OM111581   4.089   7.400   1.354  0.0000  0.0000  0.0000
11582OM     OM111582   1.712   5.083   8.190  0.0000  0.0000  0.0000
11583OM     OM111583   8.664   2.859   8.266  0.0000  0.0000  0.0000
11584OM     OM111584   7.565   3.838   8.231  0.0000  0.0000  0.0000
11585OM     OM111585   7.346   7.982   8.290  0.0000  0.0000  0.0000
11586OM     OM111586   0.481   0.454   1.330  0.0000  0.0000  0.0000
11587OM     OM111587   4.612   4.401   8.191  0.0000  0.0000  0.0000
11588OM     OM111588   9.228   0.139   1.297  0.0000  0.0000  0.0000
11589OM     OM111589   5.112   6.656   8.208  0.0000  0.0000  0.0000
11590OM     OM111590   1.625   6.850   1.457  0.0000  0.0000  0.0000
11591OM     OM111591   7.049   0.882   8.182  0.0000  0.0000  0.0000
11592OM     OM111592   1.936   0.260   8.201  0.0000  0.0000  0.0000
11593OM     OM111593   0.844   7.465   1.347  0.0000  0.0000  0.0000
11594OM     OM111594   2.736   3.829   8.154  0.0000  0.0000  0.0000
11595OM     OM111595   0.763   5.281   8.390  0.0000  0.0000  0.0000
11596OM     OM111596   3.389   6.629   8.218  0.0000  0.0000  0.0000
11597OM     OM111597   4.347   5.808   1.231  0.0000  0.0000  0.0000
11598OM     OM111598   8.962   3.479   8.277  0.0000  0.0000  0.0000
11599OM     OM111599   2.080   9.235   8.156  0.0000  0.0000  0.0000
11600OM     OM111600   9.148   1.076   1.409  0.0000  0.0000  0.0000
11601OM     OM111601   7.416   8.858   8.235  0.0000  0.0000  0.0000
11602OM     OM111602   9.278   8.206   8.363  0.0000  0.0000  0.0000
11603OM     OM111603   1.884   2.819   8.334  0.0000  0.0000  0.0000
11604OM     OM111604   3.445   4.670   8.126  0.0000  0.0000  0.0000
11605OM     OM111605   5.412   5.706   1.326  0.0000  0.0000  0.0000
11606OM     OM111606   4.514   3.029   1.329  0.0000  0.0000  0.0000
11607OM     OM111607   0.153   5.595   8.240  0.0000  0.0000  0.0000
11608OM     OM111608   5.153   0.181   8.163  0.0000  0.0000  0.0000
11609OM     OM111609   6.575   6.134   1.492  0.0000  0.0000  0.0000
11610SI     SI111610   3.828   2.951   0.428  0.0000  0.0000  0.0000
11611SI     SI111611   6.126   5.549   8.914  0.0000  0.0000  0.0000
11612SI     SI111612   4.913   3.675   1.184  0.0000  0.0000  0.0000
11613SI     SI111613   8.881   4.095   9.347  0.0000  0.0000  0.0000
11614SI     SI111614   0.699   4.887   1.413  0.0000  0.0000  0.0000
11615SI     SI111615   5.800   6.900   1.166  0.0000  0.0000  0.0000
11616SI     SI111616   1.683   0.810   0.736  0.0000  0.0000  0.0000
11617SI     SI111617   7.992   5.884   8.357  0.0000  0.0000  0.0000
11618SI     SI111618   8.774   6.195   0.282  0.0000  0.0000  0.0000
11619SI     SI111619   3.389   6.775   9.440  0.0000  0.0000  0.0000
11620SI     SI111620   1.312   3.075   9.568  0.0000  0.0000  0.0000
11621SI     SI111621   7.965   1.045   8.432  0.0000  0.0000  0.0000
11622SI     SI111622   1.439   8.128   9.127  0.0000  0.0000  0.0000
11623SI     SI111623   6.947   6.527   8.744  0.0000  0.0000  0.0000
11624SI     SI111624   3.847   1.109   0.140  0.0000  0.0000  0.0000
11625SI     SI111625   1.783   1.466   8.425  0.0000  0.0000  0.0000
11626SI     SI111626   1.368   3.200   8.353  0.0000  0.0000  0.0000
11627SI     SI111627   4.137   4.574   0.148  0.0000  0.0000  0.0000
11628SI     SI111628   4.816   9.585   1.158  0.0000  0.0000  0.0000
11629SI     SI111629   3.645   4.078   8.705  0.0000  0.0000  0.0000
11630SI     SI111630   2.910   0.952   0.758  0.0000  0.0000  0.0000
11631SI     SI111631   5.951   1.925   0.442  0.0000  0.0000  0.0000
11632SI     SI111632   8.830   4.024   1.332  0.0000  0.0000  0.0000
11633SI     SI111633   0.323   1.479   9.200  0.0000  0.0000  0.0000
11634SI     SI111634   5.765   1.368   9.444  0.0000  0.0000  0.0000
11635SI     SI111635   0.418   3.122   0.269  0.0000  0.0000  0.0000
11636SI     SI111636   0.550   2.146   0.498  0.0000  0.0000  0.0000
11637SI     SI111637   7.549   5.127   0.360  0.0000  0.0000  0.0000
11638SI     SI111638   9.428   0.142   9.284  0.0000  0.0000  0.0000
11639SI     SI111639   4.001   2.392   9.518  0.0000  0.0000  0.0000
11640SI     SI111640   1.123   2.669   1.409  0.0000  0.0000  0.0000
11641SI     SI111641   5.426   5.127   9.080  0.0000  0.0000  0.0000
11642SI     SI111642   6.024   8.697   9.095  0.0000  0.0000  0.0000
11643SI     SI111643   5.714   5.045   9.145  0.0000  0.0000  0.0000
11644SI     SI111644   1.435   5.140   1.254  0.0000  0.0000  0.0000
11645SI     SI111645   0.595   3.836   8.655  0.0000  0.0000  0.0000
11646SI     SI111646   6.213   2.270   8.448  0.0000  0.0000  0.0000
11647SI     SI111647   2.325   3.493   0.259  0.0000  0.0000  0.0000
11648SI     SI111648   7.683   1.521   0.272  0.0000  0.0000  0.0000
11649SI     SI111649   9.031   4.333   9.487  0.0000  0.0000  0.0000
11650SI     SI111650   5.092   2.824   8.826  0.0000  0.0000  0.0000
11651SI     SI111651   8.172   7.506   0.708  0.0000  0.0000  0.0000
11652SI     SI111652   1.677   1.228   8.587  0.0000  0.0000  0.0000
11653SI     SI111653   0.859   1.819   0.692  0.0000  0.0000  0.0000
11654SI     SI111654   5.849   0.144   0.944  0.0000  0.0000  0.0000
11655SI     SI111655   5.432   6.300   0.975  0.0000  0.0000  0.0000
11656SI     SI111656   5.539   3.315   0.486  0.0000  0.0000  0.0000
11657SI     SI111657   7.278   6.570   0.208  0.0000  0.0000  0.0000
11658SI     SI111658   6.361   2.459   1.400  0.0000  0.0000  0.0000
11659SI     SI111659   8.774   0.787   0.574  0.0000  0.0000  0.0000
11660SI     SI111660   7.206   3.448   9.133  0.0000  0.0000  0.0000
11661SI     SI111661   3.381   3.708   0.816  0.0000  0.0000  0.0000
11662SI     SI111662   2.416   2.616   1.046  0.0000  0.0000  0.0000
11663SI     SI111663   3.393   7.945   0.368  0.0000  0.0000  0.0000
11664SI     SI111664   7.418   5.035   9.481  0.0000  0.0000  0.0000
11665SI     SI111665   8.015   1.468   8.654  0.0000  0.0000  0.0000
11666SI     SI111666   6.294   3.373   0.021  0.0000  0.0000  0.0000
11667SI     SI111667   7.023   0.525   0.795  0.0000  0.0000  0.0000
11668SI     SI111668   6.151   0.620   0.522  0.0000  0.0000  0.0000
11669SI     SI111669   9.439   1.098   1.353  0.0000  0.0000  0.0000
11670SI     SI111670   8.664   5.957   9.108  0.0000  0.0000  0.0000
11671SI     SI111671   8.169   5.177   0.867  0.0000  0.0000  0.0000
11672SI     SI111672   6.333   1.534   8.997  0.0000  0.0000  0.0000
11673SI     SI111673   9.174   6.861   8.389  0.0000  0.0000  0.0000
11674SI     SI111674   7.989   2.595   9.269  0.0000  0.0000  0.0000
11675SI     SI111675   9.236   6.066   9.228  0.0000  0.0000  0.0000
11676SI     SI111676   8.645   2.641   8.405  0.0000  0.0000  0.0000
11677SI     SI111677   5.358   3.641   0.783  0.0000  0.0000  0.0000
11678SI     SI111678   7.655   1.210   9.094  0.0000  0.0000  0.0000
11679SI     SI111679   6.913   6.111   0.542  0.0000  0.0000  0.0000
11680SI     SI111680   8.816   7.576   9.324  0.0000  0.0000  0.0000
11681SI     SI111681   3.097   1.541   0.034  0.0000  0.0000  0.0000
11682SI     SI111682   1.560   4.297   0.195  0.0000  0.0000  0.0000
11683SI     SI111683   2.265   4.043   0.278  0.0000  0.0000  0.0000
11684SI     SI111684   3.267   1.786   1.182  0.0000  0.0000  0.0000
11685SI     SI111685   5.598   0.120   9.315  0.0000  0.0000  0.0000
11686SI     SI111686   1.064   1.322   0.801  0.0000  0.0000  0.0000
11687SI     SI111687   6.900   6.230   0.253  0.0000  0.0000  0.0000
11688SI     SI111688   5.979   5.508   0.011  0.0000  0.0000  0.0000
11689SI     SI111689   4.147   7.303   8.955  0.0000  0.0000  0.0000
11690SI     SI111690   4.153   8.892   0.154  0.0000  0.0000  0.0000
11691SI     SI111691   0.160   4.706   8.996  0.0000  0.0000  0.0000
11692SI     SI111692   8.885   2.737   9.297  0.0000  0.0000  0.0000
11693SI     SI111693   0.060   7.192   8.999  0.0000  0.0000  0.0000
11694SI     SI111694   4.579   1.916   8.298  0.0000  0.0000  0.0000
11695SI     SI111695   7.349   3.281   0.630  0.0000  0.0000  0.0000
11696SI     SI111696   9.254   0.613   1.163  0.0000  0.0000  0.0000
11697SI     SI111697   4.294   5.097   0.177  0.0000  0.0000  0.0000
11698SI     SI111698   8.328   8.586   0.796  0.0000  0.0000  0.0000
11699SI     SI111699   9.189   7.411   8.440  0.0000  0.0000  0.0000
11700SI     SI111700   4.305   8.788   8.640  0.0000  0.0000  0.0000
11701SI     SI111701   1.373   6.424   0.173  0.0000  0.0000  0.0000
11702SI     SI111702   9.108   2.967   1.007  0.0000  0.0000  0.0000
11703SI     SI111703   8.123   7.835   0.020  0.0000  0.0000  0.0000
11704SI     SI111704   0.496   9.437   9.288  0.0000  0.0000  0.0000
11705SI     SI111705   3.973   8.756   9.057  0.0000  0.0000  0.0000
11706SI     SI111706   8.769   0.995   0.160  0.0000  0.0000  0.0000
11707SI     SI111707   9.575   4.168   0.207  0.0000  0.0000  0.0000
11708SI     SI111708   6.275   9.203   0.069  0.0000  0.0000  0.0000
11709SI     SI111709   6.740   4.354   8.563  0.0000  0.0000  0.0000
11710SI     SI111710   0.305   0.244   1.257  0.0000  0.0000  0.0000
11711SI     SI111711   5.076   9.187   0.207  0.0000  0.0000  0.0000
11712SI     SI111712   9.011   6.203   9.409  0.0000  0.0000  0.0000
11713SI     SI111713   1.891   0.153   9.359  0.0000  0.0000  0.0000
11714SI     SI111714   5.078   4.162   9.081  0.0000  0.0000  0.0000
11715SI     SI111715   8.690   7.669   8.889  0.0000  0.0000  0.0000
11716SI     SI111716   5.174   8.454   1.351  0.0000  0.0000  0.0000
11717SI     SI111717   1.634   6.691   8.389  0.0000  0.0000  0.0000
11718SI     SI111718   9.182   1.920   9.441  0.0000  0.0000  0.0000
11719SI     SI111719   8.176   2.329   8.213  0.0000  0.0000  0.0000
11720SI     SI111720   7.104   5.368   0.346  0.0000  0.0000  0.0000
11721SI     SI111721   2.133   8.193   0.961  0.0000  0.0000  0.0000
11722SI     SI111722   4.714   3.228   9.161  0.0000  0.0000  0.0000
11723SI     SI111723   5.777   6.064   0.341  0.0000  0.0000  0.0000
11724SI     SI111724   8.884   6.759   8.620  0.0000  0.0000  0.0000
11725SI     SI111725   2.259   3.733   8.304  0.0000  0.0000  0.0000
11726SI     SI111726   0.671   3.379   9.537  0.0000  0.0000  0.0000
11727SI     SI111727   7.763   1.347   1.166  0.0000  0.0000  0.0000
11728SI     SI111728   1.920   5.263   0.177  0.0000  0.0000  0.0000
11729SI     SI111729   5.160   7.635   9.168  0.0000  0.0000  0.0000
11730SI     SI111730   6.701   3.816   8.465  0.0000  0.0000  0.0000
11731SI     SI111731   0.282   0.872   8.950  0.0000  0.0000  0.0000
11732SI     SI111732   3.599   9.451   9.091  0.0000  0.0000  0.0000
11733SI     SI111733   6.351   5.548   9.248  0.0000  0.0000  0.0000
11734SI     SI111734   9.416   2.982   0.210  0.0000  0.0000  0.0000
11735SI     SI111735   0.733   6.770   8.387  0.0000  0.0000  0.0000
11736SI     SI111736   3.012   5.153   1.161  0.0000  0.0000  0.0000
11737SI     SI111737   5.588   5.008   1.294  0.0000  0.0000  0.0000
11738SI     SI111738   6.318   7.646   1.169  0.0000  0.0000  0.0000
11739SI     SI111739   7.565   8.398   0.537  0.0000  0.0000  0.0000
11740SI     SI111740   1.076   4.116   9.284  0.0000  0.0000  0.0000
11741SI     SI111741   3.877   9.602   9.053  0.0000  0.0000  0.0000
11742SI     SI111742   3.566   6.475   1.086  0.0000  0.0000  0.0000
11743SI     SI111743   1.434   8.718   8.929  0.0000  0.0000  0.0000
11744SI     SI111744   5.960   3.533   0.226  0.0000  0.0000  0.0000
11745SI     SI111745   8.756   6.238   9.222  0.0000  0.0000  0.0000
11746SI     SI111746   7.875   4.071   0.664  0.0000  0.0000  0.0000
11747SI     SI111747   5.010   6.294   9.471  0.0000  0.0000  0.0000
11748SI     SI111748   8.515   8.288   1.221  0.0000  0.0000  0.0000
11749SI     SI111749   6.865   1.157   8.441  0.0000  0.0000  0.0000
11750SI     SI111750   2.773   2.364   8.855  0.0000  0.0000  0.0000
11751SI     SI111751   6.339   6.912   8.556  0.0000  0.0000  0.0000
11752SI     SI111752   9.237   8.035   0.552  0.0000  0.0000  0.0000
11753SI     SI111753   7.290   3.945   0.263  0.0000  0.0000  0.0000
11754SI     SI111754   0.237   7.373   8.838  0.0000  0.0000  0.0000
11755SI     SI111755   8.132   5.794   9.090  0.0000  0.0000  0.0000
11756SI     SI111756   1.559   9.384   0.033  0.0000  0.0000  0.0000
11757SI     SI111757   2.394   5.711   9.194  0.0000  0.0000  0.0000
11758SI     SI111758   9.081   4.999   1.140  0.0000  0.0000  0.0000
11759SI     SI111759   3.663   0.258   1.308  0.0000  0.0000  0.0000
11760SI     SI111760   7.670   0.118   9.154  0.0000  0.0000  0.0000
11761SI     SI111761   7.959   0.145   9.062  0.0000  0.0000  0.0000
11762SI     SI111762   6.040   3.252   0.852  0.0000  0.0000  0.0000
11763SI     SI111763   1.649   2.444   9.470  0.0000  0.0000  0.0000
11764SI     SI111764   0.037   6.930   0.268  0.0000  0.0000  0.0000
11765SI     SI111765   4.640   9.085   8.840  0.0000  0.0000  0.0000
11766SI     SI111766   8.514   7.645   9.386  0.0000  0.0000  0.0000
11767SI     SI111767   4.847   0.141   9.160  0.0000  0.0000  0.0000
11768SI     SI111768   8.853   6.594   0.121  0.0000  0.0000  0.0000
11769SI     SI111769   0.450   0.583   0.086  0.0000  0.0000  0.0000
11770SI     SI111770   8.888   1.942   9.342  0.0000  0.0000  0.0000
11771SI     SI111771   7.670   7.691   0.326  0.0000  0.0000  0.0000
11772SI     SI111772   9.593   0.811   8.469  0.0000  0.0000  0.0000
11773SI     SI111773   8.430   7.761   0.066  0.0000  0.0000  0.0000
11774SI     SI111774   8.368   1.595   0.088  0.0000  0.0000  0.0000
11775SI     SI111775   0.203   8.807   0.630  0.0000  0.0000  0.0000
11776SI     SI111776   0.077   1.377   0.333  0.0000  0.0000  0.0000
11777SI     SI111777   0.499   5.186   8.406  0.0000  0.0000  0.0000
11778SI     SI111778   5.562   4.146   9.046  0.0000  0.0000  0.0000
11779SI     SI111779   0.581   4.136   1.391  0.0000  0.0000  0.0000
11780SI     SI111780   3.392   3.589   9.560  0.0000  0.0000  0.0000
11781SI     SI111781   9.027   5.541   9.075  0.0000  0.0000  0.0000
11782SI     SI111782   7.438   2.120   8.675  0.0000  0.0000  0.0000
11783SI     SI111783   8.537   0.872   0.001  0.0000  0.0000  0.0000
11784SI     SI111784   0.493   4.276   8.651  0.0000  0.0000  0.0000
11785SI     SI111785   2.687   6.934   8.750  0.0000  0.0000  0.0000
11786SI     SI111786   6.002   0.309   0.730  0.0000  0.0000  0.0000
11787SI     SI111787   3.390   4.445   0.242  0.0000  0.0000  0.0000
11788SI     SI111788   8.134   9.018   1.041  0.0000  0.0000  0.0000
11789SI     SI111789   9.065   3.328   0.352  0.0000  0.0000  0.0000
11790SI     SI111790   3.711   0.650   0.986  0.0000  0.0000  0.0000
11791SI     SI111791   3.613   0.602   8.360  0.0000  0.0000  0.0000
11792SI     SI111792   0.116   8.023   1.369  0.0000  0.0000  0.0000
11793SI     SI111793   3.410   6.850   0.785  0.0000  0.0000  0.0000
11794SI     SI111794   2.633   3.529   8.768  0.0000  0.0000  0.0000
11795SI     SI111795   2.073   5.893   9.035  0.0000  0.0000  0.0000
11796SI     SI111796   4.198   3.632   9.578  0.0000  0.0000  0.0000
11797SI     SI111797   9.379   9.003   8.493  0.0000  0.0000  0.0000
11798SI     SI111798   5.221   0.937   0.585  0.0000  0.0000  0.0000
11799SI     SI111799   3.419   9.271   0.705  0.0000  0.0000  0.0000
11800SI     SI111800   7.015   8.132   9.437  0.0000  0.0000  0.0000
11801SI     SI111801   8.900   5.262   9.026  0.0000  0.0000  0.0000
11802SI     SI111802   3.426   5.343   9.390  0.0000  0.0000  0.0000
11803SI     SI111803   1.574   7.819   9.532  0.0000  0.0000  0.0000
11804SI     SI111804   0.068   4.447   8.827  0.0000  0.0000  0.0000
11805SI     SI111805   1.091   3.091   8.427  0.0000  0.0000  0.0000
11806SI     SI111806   4.433   4.903   9.577  0.0000  0.0000  0.0000
11807SI     SI111807   1.770   1.189   1.095  0.0000  0.0000  0.0000
11808SI     SI111808   8.351   8.281   9.529  0.0000  0.0000  0.0000
11809SI     SI111809   9.377   4.980   1.049  0.0000  0.0000  0.0000
11810SI     SI111810   4.282   2.824   0.744  0.0000  0.0000  0.0000
11811SI     SI111811   1.142   3.466   0.036  0.0000  0.0000  0.0000
11812SI     SI111812   6.666   0.812   0.095  0.0000  0.0000  0.0000
11813SI     SI111813   8.403   4.146   1.105  0.0000  0.0000  0.0000
11814SI     SI111814   4.487   0.757   0.476  0.0000  0.0000  0.0000
11815SI     SI111815   8.941   1.027   9.496  0.0000  0.0000  0.0000
11816SI     SI111816   9.317   1.869   0.920  0.0000  0.0000  0.0000
11817SI     SI111817   7.055   1.809   9.597  0.0000  0.0000  0.0000
11818SI     SI111818   1.039   8.316   8.903  0.0000  0.0000  0.0000
11819SI     SI111819   3.193   9.419   1.400  0.0000  0.0000  0.0000
11820SI     SI111820   6.406   0.665   0.162  0.0000  0.0000  0.0000
11821SI     SI111821   1.767   0.303   9.116  0.0000  0.0000  0.0000
11822SI     SI111822   3.495   3.824   0.121  0.0000  0.0000  0.0000
11823SI     SI111823   7.338   4.527   8.570  0.0000  0.0000  0.0000
11824SI     SI111824   7.001   9.047   0.888  0.0000  0.0000  0.0000
11825SI     SI111825   6.005   6.709   9.564  0.0000  0.0000  0.0000
11826SI     SI111826   1.155   3.113   1.173  0.0000  0.0000  0.0000
11827SI     SI111827   0.054   8.600   1.081  0.0000  0.0000  0.0000
11828SI     SI111828   7.283   9.399   0.724  0.0000  0.0000  0.0000
11829SI     SI111829   4.700   8.587   0.262  0.0000  0.0000  0.0000
11830SI     SI111830   2.313   0.819   0.257  0.0000  0.0000  0.0000
11831SI     SI111831   2.153   8.863   8.846  0.0000  0.0000  0.0000
11832SI     SI111832   6.935   7.922   1.213  0.0000  0.0000  0.0000
11833SI     SI111833   6.049   2.671   0.083  0.0000  0.0000  0.0000
11834SI     SI111834   5.438   5.596   8.761  0.0000  0.0000  0.0000
11835SI     SI111835   2.510   8.125   9.124  0.0000  0.0000  0.0000
11836SI     SI111836   0.423   8.913   8.887  0.0000  0.0000  0.0000
11837SI     SI111837   0.634   7.891   8.751  0.0000  0.0000  0.0000
11838SI     SI111838   6.608   6.744   0.518  0.0000  0.0000  0.0000
11839SI     SI111839   7.435   3.505   8.725  0.0000  0.0000  0.0000
11840SI     SI111840   4.894   7.804   9.225  0.0000  0.0000  0.0000
11841SI     SI111841   2.737   0.103   9.221  0.0000  0.0000  0.0000
11842SI     SI111842   2.402   5.907   0.585  0.0000  0.0000  0.0000
11843SI     SI111843   6.197   1.602   0.125  0.0000  0.0000  0.0000
11844SI     SI111844   2.153   7.862   8.971  0.0000  0.0000  0.0000
11845SI     SI111845   3.325   1.277   1.168  0.0000  0.0000  0.0000
11846SI     SI111846   6.236   6.207   8.612  0.0000  0.0000  0.0000
11847SI     SI111847   0.134   6.288   0.563  0.0000  0.0000  0.0000
11848SI     SI111848   5.036   6.763   8.786  0.0000  0.0000  0.0000
11849SI     SI111849   7.967   3.601   8.671  0.0000  0.0000  0.0000
11850SI     SI111850   7.398   5.857   9.142  0.0000  0.0000  0.0000
11851SI     SI111851   2.262   5.681   0.405  0.0000  0.0000  0.0000
11852SI     SI111852   6.534   5.583   1.356  0.0000  0.0000  0.0000
11853SI     SI111853   7.441   8.881   0.661  0.0000  0.0000  0.0000
11854SI     SI111854   9.030   7.138   9.268  0.0000  0.0000  0.0000
11855SI     SI111855   1.704   2.762   0.967  0.0000  0.0000  0.0000
11856SI     SI111856   0.052   5.527   1.226  0.0000  0.0000  0.0000
11857SI     SI111857   2.340   7.634   0.138  0.0000  0.0000  0.0000
11858SI     SI111858   1.185   2.996   0.915  0.0000  0.0000  0.0000
11859SI     SI111859   8.696   5.259   8.635  0.0000  0.0000  0.0000
11860SI     SI111860   4.111   7.111   8.733  0.0000  0.0000  0.0000
11861SI     SI111861   3.790   7.574   9.068  0.0000  0.0000  0.0000
11862SI     SI111862   7.301   6.309   9.436  0.0000  0.0000  0.0000
11863SI     SI111863   5.285   8.529   0.288  0.0000  0.0000  0.0000
11864SI     SI111864   3.339   1.901   0.371  0.0000  0.0000  0.0000
11865SI     SI111865   1.889   5.974   0.532  0.0000  0.0000  0.0000
11866SI     SI111866   1.129   4.402   0.970  0.0000  0.0000  0.0000
11867SI     SI111867   8.024   3.505   8.374  0.0000  0.0000  0.0000
11868SI     SI111868   5.997   8.863   0.240  0.0000  0.0000  0.0000
11869SI     SI111869   6.539   6.691   1.171  0.0000  0.0000  0.0000
11870SI     SI111870   0.732   8.824   8.885  0.0000  0.0000  0.0000
11871SI     SI111871   4.714   6.471   0.815  0.0000  0.0000  0.0000
11872SI     SI111872   0.330   8.573   1.210  0.0000  0.0000  0.0000
11873SI     SI111873   0.544   8.457   1.374  0.0000  0.0000  0.0000
11874SI     SI111874   3.355   4.078   9.394  0.0000  0.0000  0.0000
11875SI     SI111875   4.116   9.068   9.292  0.0000  0.0000  0.0000
11876SI     SI111876   0.535   6.840   9.354  0.0000  0.0000  0.0000
11877SI     SI111877   6.861   1.990   0.664  0.0000  0.0000  0.0000
11878SI     SI111878   6.887   8.828   0.689  0.0000  0.0000  0.0000
11879SI     SI111879   4.935   7.780   8.680  0.0000  0.0000  0.0000
11880SI     SI111880   9.110   6.643   0.830  0.0000  0.0000  0.0000
11881SI     SI111881   9.008   7.821   0.592  0.0000  0.0000  0.0000
11882SI     SI111882   4.443   6.016   1.088  0.0000  0.0000  0.0000
11883SI     SI111883   5.535   7.410   0.896  0.0000  0.0000  0.0000
11884SI     SI111884   1.913   7.063   8.579  0.0000  0.0000  0.0000
11885SI     SI111885   0.924   7.225   9.112  0.0000  0.0000  0.0000
11886SI     SI111886   0.864   5.158   0.006  0.0000  0.0000  0.0000
11887SI     SI111887   8.144   9.601   9.248  0.0000  0.0000  0.0000
11888SI     SI111888   8.381   0.380   8.970  0.0000  0.0000  0.0000
11889SI     SI111889   3.485   8.524   9.468  0.0000  0.0000  0.0000
11890SI     SI111890   0.728   3.187   0.320  0.0000  0.0000  0.0000
11891SI     SI111891   4.483   7.581   8.933  0.0000  0.0000  0.0000
11892SI     SI111892   8.832   9.581   0.525  0.0000  0.0000  0.0000
11893SI     SI111893   0.259   1.021   1.216  0.0000  0.0000  0.0000
11894SI     SI111894   8.527   0.218   8.527  0.0000  0.0000  0.0000
11895SI     SI111895   3.661   1.897   0.377  0.0000  0.0000  0.0000
11896SI     SI111896   8.929   5.111   8.771  0.0000  0.0000  0.0000
11897SI     SI111897   4.825   6.474   0.046  0.0000  0.0000  0.0000
11898SI     SI111898   2.929   3.417   9.478  0.0000  0.0000  0.0000
11899SI     SI111899   7.395   0.607   9.535  0.0000  0.0000  0.0000
11900SI     SI111900   7.625   4.718   0.107  0.0000  0.0000  0.0000
11901SI     SI111901   4.006   5.669   8.559  0.0000  0.0000  0.0000
11902SI     SI111902   2.456   3.372   0.009  0.0000  0.0000  0.0000
11903SI     SI111903   5.175   5.074   0.933  0.0000  0.0000  0.0000
11904SI     SI111904   6.069   6.439   8.740  0.0000  0.0000  0.0000
11905SI     SI111905   6.990   8.675   9.178  0.0000  0.0000  0.0000
11906SI     SI111906   5.791   4.608   0.136  0.0000  0.0000  0.0000
11907SI     SI111907   0.815   0.403   1.112  0.0000  0.0000  0.0000
11908SI     SI111908   0.673   5.072   9.106  0.0000  0.0000  0.0000
11909SI     SI111909   0.829   4.069   9.477  0.0000  0.0000  0.0000
11910SI     SI111910   7.269   1.094   8.223  0.0000  0.0000  0.0000
11911SI     SI111911   2.001   7.040   0.295  0.0000  0.0000  0.0000
11912SI     SI111912   8.956   8.451   0.686  0.0000  0.0000  0.0000
11913SI     SI111913   8.429   6.860   9.476  0.0000  0.0000  0.0000
11914SI     SI111914   2.627   0.262   8.816  0.0000  0.0000  0.0000
11915SI     SI111915   7.704   4.998   9.580  0.0000  0.0000  0.0000
11916SI     SI111916   0.691   9.222   0.575  0.0000  0.0000  0.0000
11917SI     SI111917   7.563   5.842   8.883  0.0000  0.0000  0.0000
11918SI     SI111918   1.900   4.205   1.375  0.0000  0.0000  0.0000
11919SI     SI111919   1.275   1.132   0.936  0.0000  0.0000  0.0000
11920SI     SI111920   8.893   7.872   9.246  0.0000  0.0000  0.0000
11921SI     SI111921   7.897   2.120   0.949  0.0000  0.0000  0.0000
11922SI     SI111922   5.458   5.876   8.648  0.0000  0.0000  0.0000
11923SI     SI111923   3.153   5.857   8.191  0.0000  0.0000  0.0000
11924SI     SI111924   4.548   6.559   0.369  0.0000  0.0000  0.0000
11925SI     SI111925   0.475   1.688   8.537  0.0000  0.0000  0.0000
11926SI     SI111926   4.810   2.672   0.141  0.0000  0.0000  0.0000
11927SI     SI111927   9.327   3.907   8.385  0.0000  0.0000  0.0000
11928SI     SI111928   7.213   1.937   8.576  0.0000  0.0000  0.0000
11929SI     SI111929   8.160   7.814   9.317  0.0000  0.0000  0.0000
11930SI     SI111930   2.180   4.401   9.097  0.0000  0.0000  0.0000
11931SI     SI111931   3.461   0.512   9.336  0.0000  0.0000  0.0000
11932SI     SI111932   8.318   9.240   0.393  0.0000  0.0000  0.0000
11933SI     SI111933   1.314   6.748   1.196  0.0000  0.0000  0.0000
11934SI     SI111934   4.873   3.030   8.748  0.0000  0.0000  0.0000
11935SI     SI111935   6.562   4.658   0.948  0.0000  0.0000  0.0000
11936SI     SI111936   5.427   0.109   0.615  0.0000  0.0000  0.0000
11937SI     SI111937   6.158   7.196   9.458  0.0000  0.0000  0.0000
11938SI     SI111938   3.034   0.535   0.075  0.0000  0.0000  0.0000
11939SI     SI111939   1.176   7.534   0.058  0.0000  0.0000  0.0000
11940SI     SI111940   8.335   8.604   8.371  0.0000  0.0000  0.0000
11941SI     SI111941   4.626   6.886   8.607  0.0000  0.0000  0.0000
11942SI     SI111942   4.631   4.207   8.691  0.0000  0.0000  0.0000
11943SI     SI111943   0.343   1.288   0.176  0.0000  0.0000  0.0000
11944SI     SI111944   1.517   3.040   8.884  0.0000  0.0000  0.0000
11945SI     SI111945   0.713   8.730   0.526  0.0000  0.0000  0.0000
11946SI     SI111946   3.370   3.990   9.108  0.0000  0.0000  0.0000
11947SI     SI111947   4.525   6.353   0.610  0.0000  0.0000  0.0000
11948SI     SI111948   9.278   9.561   0.638  0.0000  0.0000  0.0000
11949SI     SI111949   4.305   6.798   0.697  0.0000  0.0000  0.0000
11950SI     SI111950   5.779   0.250   0.266  0.0000  0.0000  0.0000
11951SI     SI111951   9.436   1.955   8.493  0.0000  0.0000  0.0000
11952SI     SI111952   8.145   3.891   8.272  0.0000  0.0000  0.0000
11953SI     SI111953   6.222   4.722   0.602  0.0000  0.0000  0.0000
11954SI     SI111954   3.786   2.962   8.578  0.0000  0.0000  0.0000
11955SI     SI111955   5.726   9.514   9.478  0.0000  0.0000  0.0000
11956SI     SI111956   7.822   7.275   8.157  0.0000  0.0000  0.0000
11957SI     SI111957   7.979   8.702   0.428  0.0000  0.0000  0.0000
11958SI     SI111958   0.504   4.277   0.699  0.0000  0.0000  0.0000
11959SI     SI111959   6.993   2.835   0.235  0.0000  0.0000  0.0000
11960SI     SI111960   1.955   4.823   8.835  0.0000  0.0000  0.0000
11961SI     SI111961   1.789   7.593   9.059  0.0000  0.0000  0.0000
11962SI     SI111962   5.613   2.498   0.613  0.0000  0.0000  0.0000
11963SI     SI111963   4.491   3.775   8.426  0.0000  0.0000  0.0000
11964SI     SI111964   3.993   3.188   0.557  0.0000  0.0000  0.0000
11965SI     SI111965   6.326   8.884   9.328  0.0000  0.0000  0.0000
11966SI     SI111966   4.113   8.803   8.240  0.0000  0.0000  0.0000
11967SI     SI111967   1.735   1.949   8.801  0.0000  0.0000  0.0000
11968SI     SI111968   2.750   0.786   1.096  0.0000  0.0000  0.0000
11969SI     SI111969   2.735   6.715   0.743  0.0000  0.0000  0.0000
11970SI     SI111970   4.594   6.491   8.929  0.0000  0.0000  0.0000
11971SI     SI111971   3.723   3.362   8.994  0.0000  0.0000  0.0000
11972SI     SI111972   2.654   8.480   8.982  0.0000  0.0000  0.0000
11973SI     SI111973   2.513   4.556   8.317  0.0000  0.0000  0.0000
11974SI     SI111974   3.067   6.311   9.349  0.0000  0.0000  0.0000
11975SI     SI111975   8.880   2.080   8.213  0.0000  0.0000  0.0000
11976SI     SI111976   7.783   2.388   0.830  0.0000  0.0000  0.0000
11977SI     SI111977   7.326   2.692   9.092  0.0000  0.0000  0.0000
11978SI     SI111978   5.764   8.321   8.877  0.0000  0.0000  0.0000
11979SI     SI111979   4.023   0.426   9.329  0.0000  0.0000  0.0000
11980SI     SI111980   2.484   7.837   9.560  0.0000  0.0000  0.0000
11981SI     SI111981   0.020   5.090   9.298  0.0000  0.0000  0.0000
11982SI     SI111982   9.494   8.975   0.216  0.0000  0.0000  0.0000
11983SI     SI111983   3.158   3.438   0.333  0.0000  0.0000  0.0000
11984SI     SI111984   4.401   4.282   8.247  0.0000  0.0000  0.0000
11985SI     SI111985   3.495   2.561   9.338  0.0000  0.0000  0.0000
11986SI     SI111986   7.095   7.792   8.211  0.0000  0.0000  0.0000
11987SI     SI111987   5.218   4.899   9.093  0.0000  0.0000  0.0000
11988SI     SI111988   4.150   2.751   8.339  0.0000  0.0000  0.0000
11989SI     SI111989   8.013   9.223   0.496  0.0000  0.0000  0.0000
11990SI     SI111990   8.358   2.700   0.767  0.0000  0.0000  0.0000
11991SI     SI111991   6.448   0.038   9.507  0.0000  0.0000  0.0000
11992SI     SI111992   6.033   6.969   8.201  0.0000  0.0000  0.0000
11993SI     SI111993   9.169   9.058   0.624  0.0000  0.0000  0.0000
11994SI     SI111994   7.634   3.133   0.987  0.0000  0.0000  0.0000
11995SI     SI111995   4.347   6.743   9.518  0.0000  0.0000  0.0000
11996SI     SI111996   2.648   3.763   0.515  0.0000  0.0000  0.0000
11997SI     SI111997   5.308   8.209   0.673  0.0000  0.0000  0.0000
11998SI     SI111998   5.696   1.851   8.522  0.0000  0.0000  0.0000
11999SI     SI111999   8.559   3.375   0.274  0.0000  0.0000  0.0000
12000SI     SI112000   7.098   8.164   0.595  0.0000  0.0000  0.0000
12001SI     SI112001   5.088   7.307   0.602  0.0000  0.0000  0.0000
12002SI     SI112002   0.173   0.856   0.722  0.0000  0.0000  0.0000
12003SI     SI112003   4.391   8.270   0.736  0.0000  0.0000  0.0000
12004SI     SI112004   7.080   5.197   0.742  0.0000  0.0000  0.0000
12005SI     SI112005   2.903   3.842   9.132  0.0000  0.0000  0.0000
12006SI     SI112006   8.894   6.296   1.081  0.0000  0.0000  0.0000
12007SI     SI112007   7.462   1.566   9.042  0.0000  0.0000  0.0000
12008SI     SI112008   0.029   8.366   9.031  0.0000  0.0000  0.0000
12009SI     SI112009   3.389   3.686   9.037  0.0000  0.0000  0.0000
12010SI     SI112010   1.973   4.126   8.323  0.0000  0.0000  0.0000
12011SI     SI112011   4.128   5.370   9.344  0.0000  0.0000  0.0000
12012SI     SI112012   2.307   0.289   0.172  0.0000  0.0000  0.0000
12013SI     SI112013   4.731   2.219   9.517  0.0000  0.0000  0.0000
12014SI     SI112014   0.708   0.243   0.391  0.0000  0.0000  0.0000
12015SI     SI112015   8.117   4.177   9.599  0.0000  0.0000  0.0000
12016SI     SI112016   7.892   7.982   0.990  0.0000  0.0000  0.0000
12017SI     SI112017   5.330   2.217   9.003  0.0000  0.0000  0.0000
12018SI     SI112018   5.058   1.407   0.638  0.0000  0.0000  0.0000
12019SI     SI112019   8.552   0.096   0.546  0.0000  0.0000  0.0000
12020SI     SI112020   6.457   5.542   0.641  0.0000  0.0000  0.0000
12021SI     SI112021   2.717   2.686   1.005  0.0000  0.0000  0.0000
12022SI     SI112022   0.792   6.984   9.441  0.0000  0.0000  0.0000
12023SI     SI112023   5.181   5.929   0.524  0.0000  0.0000  0.0000
12024SI     SI112024   6.334   5.761   8.805  0.0000  0.0000  0.0000
12025SI     SI112025   6.182   3.341   0.308  0.0000  0.0000  0.0000
12026SI     SI112026   0.194   6.243   0.250  0.0000  0.0000  0.0000
12027SI     SI112027   0.037   0.314   9.162  0.0000  0.0000  0.0000
12028SI     SI112028   2.550   6.738   9.582  0.0000  0.0000  0.0000
12029SI     SI112029   8.875   0.536   8.910  0.0000  0.0000  0.0000
12030SI     SI112030   9.023   8.513   0.399  0.0000  0.0000  0.0000
12031SI     SI112031   0.077   6.930   8.819  0.0000  0.0000  0.0000
12032SI     SI112032   8.918   1.699   0.230  0.0000  0.0000  0.0000
12033SI     SI112033   3.608   5.388   1.126  0.0000  0.0000  0.0000
12034SI     SI112034   4.648   5.447   9.208  0.0000  0.0000  0.0000
12035SI     SI112035   1.477   2.017   0.388  0.0000  0.0000  0.0000
12036SI     SI112036   7.363   7.666   0.802  0.0000  0.0000  0.0000
12037SI     SI112037   3.485   4.189   8.477  0.0000  0.0000  0.0000
12038SI     SI112038   7.391   4.039   8.340  0.0000  0.0000  0.0000
12039SI     SI112039   4.344   7.278   8.739  0.0000  0.0000  0.0000
12040SI     SI112040   6.904   2.180   1.290  0.0000  0.0000  0.0000
12041SI     SI112041   6.910   7.180   8.342  0.0000  0.0000  0.0000
12042SI     SI112042   1.061   3.832   0.727  0.0000  0.0000  0.0000
12043SI     SI112043   4.346   5.668   0.818  0.0000  0.0000  0.0000
12044SI     SI112044   0.418   5.499   9.220  0.0000  0.0000  0.0000
12045SI     SI112045   5.115   3.863   9.541  0.0000  0.0000  0.0000
12046SI     SI112046   8.693   1.701   9.411  0.0000  0.0000  0.0000
12047SI     SI112047   3.131   2.355   0.179  0.0000  0.0000  0.0000
12048SI     SI112048   7.436   1.451   0.096  0.0000  0.0000  0.0000
12049SI     SI112049   7.563   7.172   8.304  0.0000  0.0000  0.0000
12050SI     SI112050   4.215   6.928   8.206  0.0000  0.0000  0.0000
12051SI     SI112051   9.387   0.117   1.137  0.0000  0.0000  0.0000
12052SI     SI112052   9.014   4.681   0.669  0.0000  0.0000  0.0000
12053SI     SI112053   1.555   9.347   8.464  0.0000  0.0000  0.0000
12054SI     SI112054   8.112   5.386   8.476  0.0000  0.0000  0.0000
12055SI     SI112055   1.809   4.108   8.754  0.0000  0.0000  0.0000
12056SI     SI112056   6.706   0.459   9.383  0.0000  0.0000  0.0000
12057SI     SI112057   8.067   4.716   1.060  0.0000  0.0000  0.0000
12058SI     SI112058   6.670   0.905   8.437  0.0000  0.0000  0.0000
12059SI     SI112059   0.438   8.241   9.025  0.0000  0.0000  0.0000
12060SI     SI112060   2.643   8.647   0.271  0.0000  0.0000  0.0000
12061SI     SI112061   8.888   6.864   9.317  0.0000  0.0000  0.0000
12062SI     SI112062   7.655   2.298   9.100  0.0000  0.0000  0.0000
12063SI     SI112063   1.959   8.617   1.254  0.0000  0.0000  0.0000
12064SI     SI112064   3.863   5.811   9.117  0.0000  0.0000  0.0000
12065SI     SI112065   4.769   7.777   1.347  0.0000  0.0000  0.0000
12066SI     SI112066   6.937   4.111   9.304  0.0000  0.0000  0.0000
12067SI     SI112067   8.313   0.852   0.209  0.0000  0.0000  0.0000
12068SI     SI112068   0.249   9.420   8.311  0.0000  0.0000  0.0000
12069SI     SI112069   5.463   1.782   1.093  0.0000  0.0000  0.0000
12070SI     SI112070   1.777   2.889   8.844  0.0000  0.0000  0.0000
12071SI     SI112071   4.601   3.970   0.025  0.0000  0.0000  0.0000
12072SI     SI112072   9.359   6.051   0.106  0.0000  0.0000  0.0000
12073SI     SI112073   5.015   2.075   8.414  0.0000  0.0000  0.0000
12074SI     SI112074   1.900   2.094   1.172  0.0000  0.0000  0.0000
12075SI     SI112075   0.494   6.323   0.293  0.0000  0.0000  0.0000
12076SI     SI112076   7.204   6.165   8.648  0.0000  0.0000  0.0000
12077SI     SI112077   0.390   0.835   0.276  0.0000  0.0000  0.0000
12078SI     SI112078   5.040   0.903   8.907  0.0000  0.0000  0.0000
12079SI     SI112079   6.631   2.098   0.853  0.0000  0.0000  0.0000
12080SI     SI112080   5.612   1.195   0.406  0.0000  0.0000  0.0000
12081SI     SI112081   3.037   1.399   8.964  0.0000  0.0000  0.0000
12082SI     SI112082   5.871   9.499   0.581  0.0000  0.0000  0.0000
12083SI     SI112083   4.581   3.309   1.271  0.0000  0.0000  0.0000
12084SI     SI112084   7.380   0.799   0.160  0.0000  0.0000  0.0000
12085SI     SI112085   5.324   1.914   9.091  0.0000  0.0000  0.0000
12086SI     SI112086   9.580   6.457   8.728  0.0000  0.0000  0.0000
12087SI     SI112087   4.089   1.285   0.216  0.0000  0.0000  0.0000
12088SI     SI112088   3.825   2.280   9.304  0.0000  0.0000  0.0000
12089SI     SI112089   6.095   1.051   8.841  0.0000  0.0000  0.0000
12090SI     SI112090   5.841   8.383   9.364  0.0000  0.0000  0.0000
12091SI     SI112091   9.335   9.537   9.112  0.0000  0.0000  0.0000
12092SI     SI112092   7.569   3.656   0.467  0.0000  0.0000  0.0000
12093SI     SI112093   6.658   4.332   0.632  0.0000  0.0000  0.0000
12094SI     SI112094   8.205   6.217   0.277  0.0000  0.0000  0.0000
12095SI     SI112095   5.261   7.101   9.589  0.0000  0.0000  0.0000
12096SI     SI112096   5.357   5.201   8.795  0.0000  0.0000  0.0000
12097SI     SI112097   0.694   7.519   0.871  0.0000  0.0000  0.0000
12098SI     SI112098   5.883   0.821   8.254  0.0000  0.0000  0.0000
12099SI     SI112099   6.841   2.125   9.363  0.0000  0.0000  0.0000
12100SI     SI112100   3.855   7.811   0.566  0.0000  0.0000  0.0000
12101SI     SI112101   2.723   5.978   1.220  0.0000  0.0000  0.0000
12102SI     SI112102   8.197   3.694   0.764  0.0000  0.0000  0.0000
12103SI     SI112103   5.377   5.352   9.279  0.0000  0.0000  0.0000
12104SI     SI112104   2.004   4.400   9.359  0.0000  0.0000  0.0000
12105SI     SI112105   5.364   7.646   1.221  0.0000  0.0000  0.0000
12106SI     SI112106   1.116   0.281   0.385  0.0000  0.0000  0.0000
12107SI     SI112107   8.343   4.838   9.301  0.0000  0.0000  0.0000
12108SI     SI112108   7.564   1.540   0.566  0.0000  0.0000  0.0000
12109SI     SI112109   6.211   8.486   0.265  0.0000  0.0000  0.0000
12110SI     SI112110   8.201   0.198   0.314  0.0000  0.0000  0.0000
12111SI     SI112111   5.780   7.131   0.191  0.0000  0.0000  0.0000
12112SI     SI112112   7.627   2.599   1.001  0.0000  0.0000  0.0000
12113SI     SI112113   0.999   3.988   1.174  0.0000  0.0000  0.0000
12114SI     SI112114   1.115   7.905   8.430  0.0000  0.0000  0.0000
12115SI     SI112115   4.159   9.040   1.158  0.0000  0.0000  0.0000
12116SI     SI112116   7.310   7.257   0.077  0.0000  0.0000  0.0000
12117SI     SI112117   1.534   7.547   9.200  0.0000  0.0000  0.0000
12118SI     SI112118   2.552   9.536   9.066  0.0000  0.0000  0.0000
12119SI     SI112119   2.464   2.046   1.162  0.0000  0.0000  0.0000
12120SI     SI112120   4.582   8.793   8.769  0.0000  0.0000  0.0000
12121SI     SI112121   0.862   3.802   8.535  0.0000  0.0000  0.0000
12122SI     SI112122   4.235   1.758   0.133  0.0000  0.0000  0.0000
12123SI     SI112123   5.824   8.831   8.639  0.0000  0.0000  0.0000
12124SI     SI112124   7.830   0.222   8.523  0.0000  0.0000  0.0000
12125SI     SI112125   1.477   1.368   9.231  0.0000  0.0000  0.0000
12126SI     SI112126   0.485   3.901   1.216  0.0000  0.0000  0.0000
12127SI     SI112127   0.277   7.188   1.136  0.0000  0.0000  0.0000
12128SI     SI112128   6.850   4.733   9.128  0.0000  0.0000  0.0000
12129SI     SI112129   8.863   1.947   1.014  0.0000  0.0000  0.0000
12130SI     SI112130   6.733   7.333   1.172  0.0000  0.0000  0.0000
12131SI     SI112131   5.482   0.943   8.559  0.0000  0.0000  0.0000
12132SI     SI112132   8.776   8.621   1.094  0.0000  0.0000  0.0000
12133SI     SI112133   6.592   7.029   9.260  0.0000  0.0000  0.0000
12134SI     SI112134   6.437   2.959   8.956  0.0000  0.0000  0.0000
12135SI     SI112135   3.479   0.054   9.256  0.0000  0.0000  0.0000
12136SI     SI112136   4.047   7.611   0.446  0.0000  0.0000  0.0000
12137SI     SI112137   2.004   8.748   0.771  0.0000  0.0000  0.0000
12138SI     SI112138   1.331   3.688   8.531  0.0000  0.0000  0.0000
12139SI     SI112139   7.986   7.439   8.360  0.0000  0.0000  0.0000
12140SI     SI112140   6.120   0.244   8.557  0.0000  0.0000  0.0000
12141SI     SI112141   5.796   7.539   8.519  0.0000  0.0000  0.0000
12142SI     SI112142   1.688   4.528   8.609  0.0000  0.0000  0.0000
12143SI     SI112143   1.398   0.672   0.255  0.0000  0.0000  0.0000
12144SI     SI112144   4.700   3.906   8.229  0.0000  0.0000  0.0000
12145SI     SI112145   9.464   2.714   8.331  0.0000  0.0000  0.0000
12146SI     SI112146   6.707   5.183   8.919  0.0000  0.0000  0.0000
12147SI     SI112147   8.945   7.450   9.589  0.0000  0.0000  0.0000
12148SI     SI112148   0.167   0.157   0.549  0.0000  0.0000  0.0000
12149SI     SI112149   0.178   9.439   9.241  0.0000  0.0000  0.0000
12150SI     SI112150   0.387   2.392   0.913  0.0000  0.0000  0.0000
12151SI     SI112151   5.599   1.798   9.201  0.0000  0.0000  0.0000
12152SI     SI112152   9.186   7.323   9.442  0.0000  0.0000  0.0000
12153SI     SI112153   1.177   3.618   0.282  0.0000  0.0000  0.0000
12154SI     SI112154   4.335   2.901   9.079  0.0000  0.0000  0.0000
12155SI     SI112155   1.941   8.295   0.766  0.0000  0.0000  0.0000
12156SI     SI112156   8.547   1.939   1.039  0.0000  0.0000  0.0000
12157SI     SI112157   4.708   5.523   8.631  0.0000  0.0000  0.0000
12158SI     SI112158   2.411   1.647   8.880  0.0000  0.0000  0.0000
12159SI     SI112159   3.343   7.190   8.498  0.0000  0.0000  0.0000
12160SI     SI112160   7.564   4.747   8.553  0.0000  0.0000  0.0000
12161SI     SI112161   4.958   7.016   9.541  0.0000  0.0000  0.0000
12162SI     SI112162   0.957   4.274   0.747  0.0000  0.0000  0.0000
12163SI     SI112163   3.222   3.615   8.551  0.0000  0.0000  0.0000
12164SI     SI112164   4.337   6.077   8.722  0.0000  0.0000  0.0000
12165SI     SI112165   5.892   7.766   9.580  0.0000  0.0000  0.0000
12166SI     SI112166   8.025   1.309   9.340  0.0000  0.0000  0.0000
12167SI     SI112167   7.879   8.449   0.601  0.0000  0.0000  0.0000
12168SI     SI112168   6.822   7.845   0.121  0.0000  0.0000  0.0000
12169SI     SI112169   2.660   9.551   8.789  0.0000  0.0000  0.0000
12170SI     SI112170   5.118   6.317   8.607  0.0000  0.0000  0.0000
12171SI     SI112171   1.929   2.279   8.502  0.0000  0.0000  0.0000
12172SI     SI112172   3.667   8.488   0.623  0.0000  0.0000  0.0000
12173SI     SI112173   1.192   9.366   8.917  0.0000  0.0000  0.0000
12174SI     SI112174   1.749   6.636   1.411  0.0000  0.0000  0.0000
12175SI     SI112175   3.691   5.124   1.015  0.0000  0.0000  0.0000
12176SI     SI112176   8.229   5.748   9.598  0.0000  0.0000  0.0000
12177SI     SI112177   2.685   6.032   0.526  0.0000  0.0000  0.0000
12178SI     SI112178   7.835   8.238   1.143  0.0000  0.0000  0.0000
12179SI     SI112179   4.808   8.730   8.317  0.0000  0.0000  0.0000
12180SI     SI112180   3.307   8.479   8.231  0.0000  0.0000  0.0000
12181SI     SI112181   9.177   2.680   8.919  0.0000  0.0000  0.0000
12182SI     SI112182   6.408   5.184   9.588  0.0000  0.0000  0.0000
12183SI     SI112183   5.734   4.612   1.096  0.0000  0.0000  0.0000
12184SI     SI112184   8.677   7.946   0.108  0.0000  0.0000  0.0000
12185SI     SI112185   5.021   6.795   9.357  0.0000  0.0000  0.0000
12186SI     SI112186   4.402   7.485   0.770  0.0000  0.0000  0.0000
12187SI     SI112187   7.582   5.935   0.011  0.0000  0.0000  0.0000
12188SI     SI112188   5.606   3.047   8.726  0.0000  0.0000  0.0000
12189SI     SI112189   8.334   5.506   0.533  0.0000  0.0000  0.0000
12190SI     SI112190   8.390   1.102   8.231  0.0000  0.0000  0.0000
12191SI     SI112191   7.987   6.134   9.399  0.0000  0.0000  0.0000
12192SI     SI112192   5.610   0.746   8.767  0.0000  0.0000  0.0000
12193SI     SI112193   1.486   9.108   8.666  0.0000  0.0000  0.0000
12194SI     SI112194   9.010   5.516   0.545  0.0000  0.0000  0.0000
12195SI     SI112195   8.041   2.058   8.281  0.0000  0.0000  0.0000
12196SI     SI112196   3.589   2.591   0.663  0.0000  0.0000  0.0000
12197SI     SI112197   4.395   0.833   0.016  0.0000  0.0000  0.0000
12198SI     SI112198   6.822   8.682   0.217  0.0000  0.0000  0.0000
12199SI     SI112199   5.893   0.604   8.724  0.0000  0.0000  0.0000
12200SI     SI112200   8.873   4.492   8.238  0.0000  0.0000  0.0000
12201SI     SI112201   0.373   0.007   0.179  0.0000  0.0000  0.0000
12202SI     SI112202   6.651   7.332   8.430  0.0000  0.0000  0.0000
12203SI     SI112203   7.443   4.367   0.714  0.0000  0.0000  0.0000
12204SI     SI112204   6.371   5.320   8.546  0.0000  0.0000  0.0000
12205SI     SI112205   8.668   3.438   9.587  0.0000  0.0000  0.0000
12206SI     SI112206   8.295   6.488   0.941  0.0000  0.0000  0.0000
12207SI     SI112207   7.325   7.357   9.001  0.0000  0.0000  0.0000
12208SI     SI112208   1.880   5.216   0.848  0.0000  0.0000  0.0000
12209SI     SI112209   2.129   9.177   0.566  0.0000  0.0000  0.0000
12210SI     SI112210   1.563   1.212   0.271  0.0000  0.0000  0.0000
12211SI     SI112211   9.456   7.335   9.602  0.0000  0.0000  0.0000
12212SI     SI112212   0.748   3.753   9.124  0.0000  0.0000  0.0000
12213SI     SI112213   1.429   7.260   8.902  0.0000  0.0000  0.0000
12214SI     SI112214   1.375   0.629   0.987  0.0000  0.0000  0.0000
12215SI     SI112215   5.840   6.351   8.928  0.0000  0.0000  0.0000
12216SI     SI112216   0.829   2.870   9.095  0.0000  0.0000  0.0000
12217SI     SI112217   4.294   8.985   8.394  0.0000  0.0000  0.0000
12218SI     SI112218   5.002   1.504   1.303  0.0000  0.0000  0.0000
12219SI     SI112219   2.353   8.588   8.201  0.0000  0.0000  0.0000
12220SI     SI112220   3.867   6.719   0.158  0.0000  0.0000  0.0000
12221SI     SI112221   0.450   4.026   8.489  0.0000  0.0000  0.0000
12222SI     SI112222   7.892   5.726   0.755  0.0000  0.0000  0.0000
12223SI     SI112223   0.125   7.399   0.429  0.0000  0.0000  0.0000
12224SI     SI112224   0.233   5.150   0.958  0.0000  0.0000  0.0000
12225SI     SI112225   6.896   5.870   9.552  0.0000  0.0000  0.0000
12226SI     SI112226   2.605   0.391   0.232  0.0000  0.0000  0.0000
12227SI     SI112227   3.666   8.468   1.397  0.0000  0.0000  0.0000
12228SI     SI112228   2.822   8.931   1.020  0.0000  0.0000  0.0000
12229SI     SI112229   0.185   7.245   8.566  0.0000  0.0000  0.0000
12230SI     SI112230   2.515   7.165   0.356  0.0000  0.0000  0.0000
12231SI     SI112231   8.939   1.847   0.497  0.0000  0.0000  0.0000
12232SI     SI112232   8.995   4.822   8.868  0.0000  0.0000  0.0000
12233SI     SI112233   1.208   4.580   9.469  0.0000  0.0000  0.0000
12234SI     SI112234   4.985   6.056   8.506  0.0000  0.0000  0.0000
12235SI     SI112235   4.168   9.015   0.671  0.0000  0.0000  0.0000
12236SI     SI112236   6.989   3.673   0.588  0.0000  0.0000  0.0000
12237SI     SI112237   9.595   3.425   9.211  0.0000  0.0000  0.0000
12238SI     SI112238   0.706   5.388   0.908  0.0000  0.0000  0.0000
12239SI     SI112239   0.235   5.597   0.740  0.0000  0.0000  0.0000
12240SI     SI112240   1.238   0.994   9.528  0.0000  0.0000  0.0000
12241SI     SI112241   4.207   0.453   0.257  0.0000  0.0000  0.0000
12242SI     SI112242   4.409   5.914   9.520  0.0000  0.0000  0.0000
12243SI     SI112243   0.435   8.215   0.961  0.0000  0.0000  0.0000
12244SI     SI112244   1.100   6.068   8.895  0.0000  0.0000  0.0000
12245SI     SI112245   0.868   0.820   0.071  0.0000  0.0000  0.0000
12246SI     SI112246   4.462   5.757   0.153  0.0000  0.0000  0.0000
12247SI     SI112247   1.056   8.945   0.480  0.0000  0.0000  0.0000
12248SI     SI112248   3.963   7.716   9.483  0.0000  0.0000  0.0000
12249SI     SI112249   2.962   1.421   0.872  0.0000  0.0000  0.0000
12250SI     SI112250   5.070   7.334   9.205  0.0000  0.0000  0.0000
12251SI     SI112251   6.683   2.971   0.085  0.0000  0.0000  0.0000
12252SI     SI112252   3.056   6.965   1.093  0.0000  0.0000  0.0000
12253SI     SI112253   4.250   4.024   0.986  0.0000  0.0000  0.0000
12254SI     SI112254   0.707   0.412   8.893  0.0000  0.0000  0.0000
12255SI     SI112255   8.280   3.615   8.228  0.0000  0.0000  0.0000
12256SI     SI112256   8.966   6.995   8.231  0.0000  0.0000  0.0000
12257SI     SI112257   2.506   6.043   0.066  0.0000  0.0000  0.0000
12258SI     SI112258   4.044   3.003   9.599  0.0000  0.0000  0.0000
12259SI     SI112259   2.184   2.798   1.113  0.0000  0.0000  0.0000
12260SI     SI112260   2.516   5.577   0.800  0.0000  0.0000  0.0000
12261SI     SI112261   8.347   0.266   0.998  0.0000  0.0000  0.0000
12262SI     SI112262   0.599   0.760   8.205  0.0000  0.0000  0.0000
12263SI     SI112263   4.180   4.584   8.931  0.0000  0.0000  0.0000
12264SI     SI112264   3.730   3.597   1.387  0.0000  0.0000  0.0000
12265SI     SI112265   0.077   6.770   0.806  0.0000  0.0000  0.0000
12266SI     SI112266   6.689   5.732   8.555  0.0000  0.0000  0.0000
12267SI     SI112267   4.391   2.480   8.687  0.0000  0.0000  0.0000
12268SI     SI112268   9.310   0.487   0.307  0.0000  0.0000  0.0000
12269SI     SI112269   7.382   1.196   9.245  0.0000  0.0000  0.0000
12270SI     SI112270   5.037   2.843   1.183  0.0000  0.0000  0.0000
12271SI     SI112271   0.036   8.868   9.230  0.0000  0.0000  0.0000
12272SI     SI112272   0.941   5.907   8.294  0.0000  0.0000  0.0000
12273SI     SI112273   6.378   2.856   8.483  0.0000  0.0000  0.0000
12274SI     SI112274   5.836   0.503   0.112  0.0000  0.0000  0.0000
12275SI     SI112275   6.263   6.448   9.276  0.0000  0.0000  0.0000
12276SI     SI112276   9.420   8.440   0.765  0.0000  0.0000  0.0000
12277SI     SI112277   1.322   1.911   8.460  0.0000  0.0000  0.0000
12278SI     SI112278   8.628   3.256   9.082  0.0000  0.0000  0.0000
12279SI     SI112279   9.023   1.377   0.549  0.0000  0.0000  0.0000
12280SI     SI112280   0.363   8.439   0.288  0.0000  0.0000  0.0000
12281SI     SI112281   3.268   8.500   0.316  0.0000  0.0000  0.0000
12282SI     SI112282   6.853   5.819   8.791  0.0000  0.0000  0.0000
12283SI     SI112283   2.901   8.664   1.169  0.0000  0.0000  0.0000
12284SI     SI112284   7.153   0.796   0.806  0.0000  0.0000  0.0000
12285SI     SI112285   6.577   2.412   9.075  0.0000  0.0000  0.0000
12286SI     SI112286   2.002   3.353   0.611  0.0000  0.0000  0.0000
12287SI     SI112287   2.343   7.214   0.963  0.0000  0.0000  0.0000
12288SI     SI112288   2.355   5.780   8.327  0.0000  0.0000  0.0000
12289SI     SI112289   1.234   1.214   9.126  0.0000  0.0000  0.0000
12290SI     SI112290   8.542   0.589   9.453  0.0000  0.0000  0.0000
12291SI     SI112291   3.537   9.016   1.115  0.0000  0.0000  0.0000
12292SI     SI112292   1.217   9.152   0.314  0.0000  0.0000  0.0000
12293SI     SI112293   4.627   4.667   0.013  0.0000  0.0000  0.0000
12294SI     SI112294   8.291   4.600   9.504  0.0000  0.0000  0.0000
12295SI     SI112295   9.423   2.245   8.412  0.0000  0.0000  0.0000
12296SI     SI112296   7.864   3.565   1.089  0.0000  0.0000  0.0000
12297SI     SI112297   1.842   2.589   8.311  0.0000  0.0000  0.0000
12298SI     SI112298   4.684   4.138   1.237  0.0000  0.0000  0.0000
12299SI     SI112299   1.703   0.258   8.821  0.0000  0.0000  0.0000
12300SI     SI112300   4.931   9.091   8.718  0.0000  0.0000  0.0000
12301SI     SI112301   5.079   4.773   0.089  0.0000  0.0000  0.0000
12302SI     SI112302   7.190   1.496   8.406  0.0000  0.0000  0.0000
12303SI     SI112303   3.178   7.916   0.772  0.0000  0.0000  0.0000
12304SI     SI112304   7.362   5.671   0.371  0.0000  0.0000  0.0000
12305SI     SI112305   0.261   1.115   9.533  0.0000  0.0000  0.0000
12306SI     SI112306   9.379   9.376   0.883  0.0000  0.0000  0.0000
12307SI     SI112307   8.546   7.499   1.032  0.0000  0.0000  0.0000
12308SI     SI112308   0.763   9.171   0.152  0.0000  0.0000  0.0000
12309SI     SI112309   6.243   2.661   8.681  0.0000  0.0000  0.0000
12310SI     SI112310   4.758   1.296   0.998  0.0000  0.0000  0.0000
12311SI     SI112311   6.919   1.215   0.661  0.0000  0.0000  0.0000
12312SI     SI112312   3.206   0.590   0.884  0.0000  0.0000  0.0000
12313SI     SI112313   0.129   5.242   9.552  0.0000  0.0000  0.0000
12314SI     SI112314   4.009   5.194   8.622  0.0000  0.0000  0.0000
12315SI     SI112315   5.597   3.178   8.175  0.0000  0.0000  0.0000
12316SI     SI112316   4.386   7.743   0.169  0.0000  0.0000  0.0000
12317SI     SI112317   4.995   8.481   0.187  0.0000  0.0000  0.0000
12318SI     SI112318   6.979   9.144   0.101  0.0000  0.0000  0.0000
12319SI     SI112319   7.084   8.409   9.308  0.0000  0.0000  0.0000
12320SI     SI112320   0.242   4.441   8.558  0.0000  0.0000  0.0000
12321SI     SI112321   6.530   6.682   8.990  0.0000  0.0000  0.0000
12322SI     SI112322   0.531   1.444   0.566  0.0000  0.0000  0.0000
12323SI     SI112323   2.580   3.278   9.178  0.0000  0.0000  0.0000
12324SI     SI112324   7.970   0.823   9.307  0.0000  0.0000  0.0000
12325SI     SI112325   5.043   5.677   1.017  0.0000  0.0000  0.0000
12326SI     SI112326   5.756   3.478   8.495  0.0000  0.0000  0.0000
12327SI     SI112327   4.400   5.033   0.729  0.0000  0.0000  0.0000
12328SI     SI112328   0.720   2.621   1.144  0.0000  0.0000  0.0000
12329SI     SI112329   8.121   3.129   0.989  0.0000  0.0000  0.0000
12330SI     SI112330   0.343   5.700   0.223  0.0000  0.0000  0.0000
12331SI     SI112331   0.594   0.550   8.640  0.0000  0.0000  0.0000
12332SI     SI112332   7.968   8.485   9.436  0.0000  0.0000  0.0000
12333SI     SI112333   8.537   4.049   8.530  0.0000  0.0000  0.0000
12334SI     SI112334   6.769   5.289   9.325  0.0000  0.0000  0.0000
12335SI     SI112335   8.615   2.099   8.937  0.0000  0.0000  0.0000
12336SI     SI112336   9.175   5.332   0.224  0.0000  0.0000  0.0000
12337SI     SI112337   7.533   3.409   8.222  0.0000  0.0000  0.0000
12338SI     SI112338   9.373   1.597   1.073  0.0000  0.0000  0.0000
12339SI     SI112339   2.666   7.718   0.532  0.0000  0.0000  0.0000
12340SI     SI112340   3.135   0.101   8.696  0.0000  0.0000  0.0000
12341SI     SI112341   1.149   1.628   8.859  0.0000  0.0000  0.0000
12342SI     SI112342   7.013   5.194   1.036  0.0000  0.0000  0.0000
12343SI     SI112343   6.255   0.890   9.412  0.0000  0.0000  0.0000
12344SI     SI112344   8.410   6.903   8.669  0.0000  0.0000  0.0000
12345SI     SI112345   9.264   7.861   0.046  0.0000  0.0000  0.0000
12346SI     SI112346   4.094   1.195   0.503  0.0000  0.0000  0.0000
12347SI     SI112347   4.616   4.960   8.876  0.0000  0.0000  0.0000
12348SI     SI112348   0.751   2.022   0.911  0.0000  0.0000  0.0000
12349SI     SI112349   0.436   3.631   0.851  0.0000  0.0000  0.0000
12350SI     SI112350   4.005   3.193   8.305  0.0000  0.0000  0.0000
12351SI     SI112351   1.794   5.997   9.127  0.0000  0.0000  0.0000
12352SI     SI112352   9.508   3.627   0.933  0.0000  0.0000  0.0000
12353SI     SI112353   8.880   4.321   0.547  0.0000  0.0000  0.0000
12354SI     SI112354   6.887   6.811   0.604  0.0000  0.0000  0.0000
12355SI     SI112355   1.565   4.008   0.260  0.0000  0.0000  0.0000
12356SI     SI112356   3.607   2.194   0.080  0.0000  0.0000  0.0000
12357SI     SI112357   6.993   6.523   0.261  0.0000  0.0000  0.0000
12358SI     SI112358   2.721   7.208   8.906  0.0000  0.0000  0.0000
12359SI     SI112359   0.228   9.480   0.662  0.0000  0.0000  0.0000
12360SI     SI112360   3.592   5.040   0.111  0.0000  0.0000  0.0000
12361SI     SI112361   5.079   3.482   8.843  0.0000  0.0000  0.0000
12362SI     SI112362   8.455   7.698   8.683  0.0000  0.0000  0.0000
12363SI     SI112363   7.778   5.616   9.387  0.0000  0.0000  0.0000
12364SI     SI112364   5.863   2.059   8.671  0.0000  0.0000  0.0000
12365SI     SI112365   2.588   1.614   0.215  0.0000  0.0000  0.0000
12366SI     SI112366   5.838   9.379   0.309  0.0000  0.0000  0.0000
12367SI     SI112367   8.980   8.681   0.872  0.0000  0.0000  0.0000
12368SI     SI112368   4.697   0.146   9.437  0.0000  0.0000  0.0000
12369SI     SI112369   6.614   6.405   1.167  0.0000  0.0000  0.0000
12370SI     SI112370   8.404   0.564   0.554  0.0000  0.0000  0.0000
12371SI     SI112371   4.449   7.342   0.354  0.0000  0.0000  0.0000
12372SI     SI112372   1.631   4.179   9.532  0.0000  0.0000  0.0000
12373SI     SI112373   1.578   2.673   8.709  0.0000  0.0000  0.0000
12374SI     SI112374   0.269   2.028   0.560  0.0000  0.0000  0.0000
12375SI     SI112375   8.130   2.132   1.163  0.0000  0.0000  0.0000
12376SI     SI112376   6.342   2.844   0.724  0.0000  0.0000  0.0000
12377SI     SI112377   9.186   6.783   8.685  0.0000  0.0000  0.0000
12378SI     SI112378   1.706   3.452   0.562  0.0000  0.0000  0.0000
12379SI     SI112379   4.746   2.099   8.811  0.0000  0.0000  0.0000
12380SI     SI112380   7.407   4.676   0.322  0.0000  0.0000  0.0000
12381SI     SI112381   1.840   4.103   1.081  0.0000  0.0000  0.0000
12382SI     SI112382   1.666   0.780   0.162  0.0000  0.0000  0.0000
12383SI     SI112383   1.908   0.275   0.538  0.0000  0.0000  0.0000
12384SI     SI112384   2.656   5.805   8.313  0.0000  0.0000  0.0000
12385SI     SI112385   1.331   7.704   9.029  0.0000  0.0000  0.0000
12386SI     SI112386   9.148   1.692   8.385  0.0000  0.0000  0.0000
12387SI     SI112387   3.784   7.121   1.009  0.0000  0.0000  0.0000
12388SI     SI112388   6.619   4.814   8.606  0.0000  0.0000  0.0000
12389SI     SI112389   7.695   0.813   0.163  0.0000  0.0000  0.0000
12390SI     SI112390   9.083   4.171   0.139  0.0000  0.0000  0.0000
12391SI     SI112391   0.471   7.490   8.693  0.0000  0.0000  0.0000
12392SI     SI112392   4.177   8.737   9.500  0.0000  0.0000  0.0000
12393SI     SI112393   0.562   2.055   1.140  0.0000  0.0000  0.0000
12394SI     SI112394   6.635   8.280   0.021  0.0000  0.0000  0.0000
12395SI     SI112395   4.391   0.100   9.384  0.0000  0.0000  0.0000
12396SI     SI112396   6.269   8.711   1.269  0.0000  0.0000  0.0000
12397SI     SI112397   6.105   6.761   8.425  0.0000  0.0000  0.0000
12398SI     SI112398   4.896   8.199   8.905  0.0000  0.0000  0.0000
12399SI     SI112399   1.860   6.048   8.630  0.0000  0.0000  0.0000
12400SI     SI112400   3.190   0.105   9.162  0.0000  0.0000  0.0000
12401SI     SI112401   4.650   8.698   9.590  0.0000  0.0000  0.0000
12402SI     SI112402   8.496   7.497   0.222  0.0000  0.0000  0.0000
12403SI     SI112403   4.710   6.784   0.810  0.0000  0.0000  0.0000
12404SI     SI112404   8.603   3.270   8.374  0.0000  0.0000  0.0000
12405SI     SI112405   7.767   6.858   0.529  0.0000  0.0000  0.0000
12406SI     SI112406   3.200   5.008   8.521  0.0000  0.0000  0.0000
12407SI     SI112407   1.726   1.691   0.167  0.0000  0.0000  0.0000
12408SI     SI112408   2.791   5.852   9.135  0.0000  0.0000  0.0000
12409SI     SI112409   2.280   8.942   1.124  0.0000  0.0000  0.0000
12410SI     SI112410   7.677   6.622   9.044  0.0000  0.0000  0.0000
12411SI     SI112411   5.173   9.401   0.830  0.0000  0.0000  0.0000
12412SI     SI112412   7.209   3.405   0.217  0.0000  0.0000  0.0000
12413SI     SI112413   2.370   8.976   0.106  0.0000  0.0000  0.0000
12414SI     SI112414   6.704   4.742   0.014  0.0000  0.0000  0.0000
12415SI     SI112415   4.053   3.640   8.351  0.0000  0.0000  0.0000
12416SI     SI112416   2.193   2.427   8.497  0.0000  0.0000  0.0000
12417SI     SI112417   2.856   2.473   1.177  0.0000  0.0000  0.0000
12418SI     SI112418   4.146   2.488   9.004  0.0000  0.0000  0.0000
12419SI     SI112419   9.558   8.823   8.932  0.0000  0.0000  0.0000
12420SI     SI112420   3.940   3.185   0.860  0.0000  0.0000  0.0000
12421SI     SI112421   5.675   3.827   0.471  0.0000  0.0000  0.0000
12422SI     SI112422   2.800   3.603   8.276  0.0000  0.0000  0.0000
12423SI     SI112423   1.507   2.362   1.175  0.0000  0.0000  0.0000
12424SI     SI112424   6.028   0.372   9.519  0.0000  0.0000  0.0000
12425SI     SI112425   2.646   0.779   8.717  0.0000  0.0000  0.0000
12426SI     SI112426   6.109   8.089   0.052  0.0000  0.0000  0.0000
12427SI     SI112427   5.554   6.431   0.488  0.0000  0.0000  0.0000
12428SI     SI112428   7.029   3.997   8.775  0.0000  0.0000  0.0000
12429SI     SI112429   6.092   6.286   1.320  0.0000  0.0000  0.0000
12430SI     SI112430   5.150   8.896   8.839  0.0000  0.0000  0.0000
12431SI     SI112431   9.604   4.070   1.191  0.0000  0.0000  0.0000
12432SI     SI112432   8.629   1.289   1.360  0.0000  0.0000  0.0000
12433SI     SI112433   1.171   2.373   8.966  0.0000  0.0000  0.0000
12434SI     SI112434   2.297   3.927   1.350  0.0000  0.0000  0.0000
12435SI     SI112435   3.355   5.458   0.365  0.0000  0.0000  0.0000
12436SI     SI112436   2.211   3.762   0.194  0.0000  0.0000  0.0000
12437SI     SI112437   4.666   7.812   9.023  0.0000  0.0000  0.0000
12438SI     SI112438   7.524   5.380   0.942  0.0000  0.0000  0.0000
12439SI     SI112439   8.879   6.886   0.011  0.0000  0.0000  0.0000
12440SI     SI112440   9.112   9.474   8.720  0.0000  0.0000  0.0000
12441SI     SI112441   4.041   9.508   9.298  0.0000  0.0000  0.0000
12442SI     SI112442   9.064   6.306   8.557  0.0000  0.0000  0.0000
12443SI     SI112443   5.615   7.386   0.148  0.0000  0.0000  0.0000
12444SI     SI112444   0.628   1.617   0.318  0.0000  0.0000  0.0000
12445SI     SI112445   9.464   0.199   0.620  0.0000  0.0000  0.0000
12446SI     SI112446   4.162   6.809   0.157  0.0000  0.0000  0.0000
12447SI     SI112447   0.194   9.388   8.929  0.0000  0.0000  0.0000
12448SI     SI112448   6.112   8.938   8.706  0.0000  0.0000  0.0000
12449SI     SI112449   1.900   7.956   0.399  0.0000  0.0000  0.0000
12450SI     SI112450   2.960   0.812   0.144  0.0000  0.0000  0.0000
12451SI     SI112451   5.219   3.910   0.691  0.0000  0.0000  0.0000
12452SI     SI112452   1.485   1.556   8.388  0.0000  0.0000  0.0000
12453SI     SI112453   1.693   1.069   0.061  0.0000  0.0000  0.0000
12454SI     SI112454   4.875   8.431   1.368  0.0000  0.0000  0.0000
12455SI     SI112455   5.883   2.523   0.754  0.0000  0.0000  0.0000
12456SI     SI112456   6.579   3.687   0.243  0.0000  0.0000  0.0000
12457SI     SI112457   4.963   8.669   9.546  0.0000  0.0000  0.0000
12458SI     SI112458   3.889   9.181   8.292  0.0000  0.0000  0.0000
12459SI     SI112459   0.559   8.048   9.470  0.0000  0.0000  0.0000
12460SI     SI112460   8.625   6.999   0.827  0.0000  0.0000  0.0000
12461SI     SI112461   6.399   8.291   0.419  0.0000  0.0000  0.0000
12462SI     SI112462   3.304   1.031   8.814  0.0000  0.0000  0.0000
12463SI     SI112463   2.643   7.850   9.073  0.0000  0.0000  0.0000
12464SI     SI112464   9.273   3.027   9.267  0.0000  0.0000  0.0000
12465SI     SI112465   0.608   3.072   9.200  0.0000  0.0000  0.0000
12466SI     SI112466   9.160   5.634   8.352  0.0000  0.0000  0.0000
12467SI     SI112467   2.012   1.618   0.561  0.0000  0.0000  0.0000
12468SI     SI112468   4.323   5.909   0.360  0.0000  0.0000  0.0000
12469SI     SI112469   0.788   2.024   9.535  0.0000  0.0000  0.0000
12470SI     SI112470   3.939   8.018   9.556  0.0000  0.0000  0.0000
12471SI     SI112471   8.461   4.110   9.101  0.0000  0.0000  0.0000
12472SI     SI112472   6.572   8.228   8.747  0.0000  0.0000  0.0000
12473SI     SI112473   9.187   6.515   9.098  0.0000  0.0000  0.0000
12474SI     SI112474   5.656   4.614   8.892  0.0000  0.0000  0.0000
12475SI     SI112475   1.649   8.351   9.072  0.0000  0.0000  0.0000
12476SI     SI112476   2.241   5.472   9.094  0.0000  0.0000  0.0000
12477SI     SI112477   6.157   8.692   8.364  0.0000  0.0000  0.0000
12478SI     SI112478   0.770   9.025   1.016  0.0000  0.0000  0.0000
12479SI     SI112479   6.746   6.862   1.022  0.0000  0.0000  0.0000
12480SI     SI112480   3.308   2.070   9.298  0.0000  0.0000  0.0000
12481SI     SI112481   2.963   7.575   9.428  0.0000  0.0000  0.0000
12482SI     SI112482   8.248   7.299   8.422  0.0000  0.0000  0.0000
12483SI     SI112483   5.474   2.875   9.112  0.0000  0.0000  0.0000
12484SI     SI112484   1.699   0.288   0.762  0.0000  0.0000  0.0000
12485SI     SI112485   0.214   0.332   8.918  0.0000  0.0000  0.0000
12486SI     SI112486   0.177   0.330   8.404  0.0000  0.0000  0.0000
12487SI     SI112487   1.186   3.510   9.156  0.0000  0.0000  0.0000
12488SI     SI112488   8.474   3.361   0.852  0.0000  0.0000  0.0000
12489SI     SI112489   2.074   5.077   8.986  0.0000  0.0000  0.0000
12490SI     SI112490   3.462   9.032   9.417  0.0000  0.0000  0.0000
12491SI     SI112491   8.866   5.085   0.593  0.0000  0.0000  0.0000
12492SI     SI112492   1.858   8.156   0.164  0.0000  0.0000  0.0000
12493SI     SI112493   6.151   8.529   8.635  0.0000  0.0000  0.0000
12494SI     SI112494   5.002   8.173   0.633  0.0000  0.0000  0.0000
12495SI     SI112495   1.477   5.399   1.079  0.0000  0.0000  0.0000
12496SI     SI112496   2.435   6.347   9.340  0.0000  0.0000  0.0000
12497SI     SI112497   8.140   2.998   0.526  0.0000  0.0000  0.0000
12498SI     SI112498   0.288   0.483   8.656  0.0000  0.0000  0.0000
12499SI     SI112499   9.444   3.383   0.016  0.0000  0.0000  0.0000
12500SI     SI112500   2.925   9.102   0.237  0.0000  0.0000  0.0000
12501SI     SI112501   3.453   1.664   9.000  0.0000  0.0000  0.0000
12502SI     SI112502   2.487   7.357   0.112  0.0000  0.0000  0.0000
12503SI     SI112503   1.589   3.203   9.119  0.0000  0.0000  0.0000
12504SI     SI112504   6.313   1.966   8.476  0.0000  0.0000  0.0000
12505SI     SI112505   4.502   4.523   1.277  0.0000  0.0000  0.0000
12506SI     SI112506   4.826   3.786   9.542  0.0000  0.0000  0.0000
12507SI     SI112507   3.341   6.032   9.197  0.0000  0.0000  0.0000
12508SI     SI112508   3.827   6.871   8.967  0.0000  0.0000  0.0000
12509SI     SI112509   8.238   3.926   9.023  0.0000  0.0000  0.0000
12510SI     SI112510   4.876   1.968   1.158  0.0000  0.0000  0.0000
12511SI     SI112511   1.872   4.907   8.322  0.0000  0.0000  0.0000
12512SI     SI112512   7.457   3.132   9.291  0.0000  0.0000  0.0000
12513SI     SI112513   8.240   0.864   9.154  0.0000  0.0000  0.0000
12514SI     SI112514   8.615   1.485   0.812  0.0000  0.0000  0.0000
12515SI     SI112515   3.957   8.787   0.370  0.0000  0.0000  0.0000
12516SI     SI112516   1.958   1.841   0.772  0.0000  0.0000  0.0000
12517SI     SI112517   8.844   7.340   9.120  0.0000  0.0000  0.0000
12518SI     SI112518   0.863   0.085   9.528  0.0000  0.0000  0.0000
12519SI     SI112519   1.940   4.522   1.061  0.0000  0.0000  0.0000
12520SI     SI112520   4.196   8.275   1.231  0.0000  0.0000  0.0000
12521SI     SI112521   9.029   1.856   1.275  0.0000  0.0000  0.0000
12522SI     SI112522   1.790   6.462   8.886  0.0000  0.0000  0.0000
12523SI     SI112523   3.525   2.644   1.170  0.0000  0.0000  0.0000
12524SI     SI112524   6.803   8.174   0.681  0.0000  0.0000  0.0000
12525SI     SI112525   4.378   9.392   9.444  0.0000  0.0000  0.0000
12526SI     SI112526   5.533   9.177   1.060  0.0000  0.0000  0.0000
12527SI     SI112527   5.391   9.108   8.821  0.0000  0.0000  0.0000
12528SI     SI112528   2.218   4.579   8.411  0.0000  0.0000  0.0000
12529SI     SI112529   5.314   1.457   0.786  0.0000  0.0000  0.0000
12530SI     SI112530   9.332   8.884   1.060  0.0000  0.0000  0.0000
12531SI     SI112531   4.066   1.931   1.160  0.0000  0.0000  0.0000
12532SI     SI112532   3.732   9.447   0.357  0.0000  0.0000  0.0000
12533SI     SI112533   2.313   1.760   8.423  0.0000  0.0000  0.0000
12534SI     SI112534   2.582   1.260   8.928  0.0000  0.0000  0.0000
12535SI     SI112535   8.803   5.625   9.521  0.0000  0.0000  0.0000
12536SI     SI112536   0.774   6.769   8.686  0.0000  0.0000  0.0000
12537SI     SI112537   8.056   5.698   8.813  0.0000  0.0000  0.0000
12538SI     SI112538   2.139   2.450   0.011  0.0000  0.0000  0.0000
12539SI     SI112539   1.663   0.561   0.912  0.0000  0.0000  0.0000
12540SI     SI112540   6.070   7.820   1.156  0.0000  0.0000  0.0000
12541SI     SI112541   5.584   5.254   0.643  0.0000  0.0000  0.0000
12542SI     SI112542   1.166   7.487   0.585  0.0000  0.0000  0.0000
12543SI     SI112543   7.906   1.922   8.937  0.0000  0.0000  0.0000
12544SI     SI112544   5.193   3.579   1.296  0.0000  0.0000  0.0000
12545SI     SI112545   7.290   8.722   0.280  0.0000  0.0000  0.0000
12546SI     SI112546   6.392   8.150   0.158  0.0000  0.0000  0.0000
12547SI     SI112547   7.318   7.793   0.101  0.0000  0.0000  0.0000
12548SI     SI112548   8.574   5.515   9.096  0.0000  0.0000  0.0000
12549SI     SI112549   9.251   8.583   1.000  0.0000  0.0000  0.0000
12550SI     SI112550   7.411   0.389   0.503  0.0000  0.0000  0.0000
12551SI     SI112551   1.802   0.048   0.935  0.0000  0.0000  0.0000
12552SI     SI112552   6.721   6.744   8.758  0.0000  0.0000  0.0000
12553SI     SI112553   4.852   1.208   0.542  0.0000  0.0000  0.0000
12554SI     SI112554   9.297   8.858   0.424  0.0000  0.0000  0.0000
12555SI     SI112555   3.075   9.130   8.550  0.0000  0.0000  0.0000
12556SI     SI112556   3.704   0.581   0.676  0.0000  0.0000  0.0000
12557SI     SI112557   4.330   4.596   8.651  0.0000  0.0000  0.0000
12558SI     SI112558   5.439   0.758   0.109  0.0000  0.0000  0.0000
12559SI     SI112559   0.872   5.561   1.109  0.0000  0.0000  0.0000
12560SI     SI112560   4.681   2.910   8.354  0.0000  0.0000  0.0000
12561SI     SI112561   4.555   6.930   9.128  0.0000  0.0000  0.0000
12562SI     SI112562   3.425   0.015   8.649  0.0000  0.0000  0.0000
12563SI     SI112563   2.585   5.026   8.441  0.0000  0.0000  0.0000
12564SI     SI112564   2.670   3.720   8.524  0.0000  0.0000  0.0000
12565SI     SI112565   3.568   6.261   0.684  0.0000  0.0000  0.0000
12566SI     SI112566   7.613   1.721   1.040  0.0000  0.0000  0.0000
12567SI     SI112567   8.178   7.868   1.006  0.0000  0.0000  0.0000
12568SI     SI112568   5.285   2.211   0.036  0.0000  0.0000  0.0000
12569SI     SI112569   7.644   2.879   0.461  0.0000  0.0000  0.0000
12570SI     SI112570   1.456   0.269   0.586  0.0000  0.0000  0.0000
12571SI     SI112571   7.772   2.819   9.258  0.0000  0.0000  0.0000
12572SI     SI112572   0.101   8.733   8.469  0.0000  0.0000  0.0000
12573SI     SI112573   2.456   7.820   8.575  0.0000  0.0000  0.0000
12574SI     SI112574   8.191   1.286   8.826  0.0000  0.0000  0.0000
12575SI     SI112575   7.999   0.547   8.820  0.0000  0.0000  0.0000
12576SI     SI112576   3.341   0.456   8.425  0.0000  0.0000  0.0000
12577SI     SI112577   2.307   0.973   1.055  0.0000  0.0000  0.0000
12578SI     SI112578   7.823   0.174   1.068  0.0000  0.0000  0.0000
12579SI     SI112579   6.852   3.938   9.554  0.0000  0.0000  0.0000
12580SI     SI112580   8.614   9.189   1.122  0.0000  0.0000  0.0000
12581SI     SI112581   1.925   4.127   9.462  0.0000  0.0000  0.0000
12582SI     SI112582   0.870   5.898   0.212  0.0000  0.0000  0.0000
12583SI     SI112583   4.105   4.073   0.114  0.0000  0.0000  0.0000
12584SI     SI112584   6.130   7.613   8.325  0.0000  0.0000  0.0000
12585SI     SI112585   7.543   6.638   8.183  0.0000  0.0000  0.0000
12586SI     SI112586   6.030   9.434   8.797  0.0000  0.0000  0.0000
12587SI     SI112587   5.054   1.068   0.351  0.0000  0.0000  0.0000
12588SI     SI112588   4.631   7.331   8.982  0.0000  0.0000  0.0000
12589SI     SI112589   9.286   8.678   8.983  0.0000  0.0000  0.0000
12590SI     SI112590   7.089   8.006   0.110  0.0000  0.0000  0.0000
12591SI     SI112591   6.823   5.809   0.516  0.0000  0.0000  0.0000
12592SI     SI112592   6.020   0.957   1.044  0.0000  0.0000  0.0000
12593SI     SI112593   4.133   4.416   0.700  0.0000  0.0000  0.0000
12594SI     SI112594   2.598   5.387   1.028  0.0000  0.0000  0.0000
12595SI     SI112595   8.817   2.203   9.511  0.0000  0.0000  0.0000
12596SI     SI112596   8.638   0.093   8.254  0.0000  0.0000  0.0000
12597SI     SI112597   6.050   3.264   1.173  0.0000  0.0000  0.0000
12598SI     SI112598   8.661   8.520   0.077  0.0000  0.0000  0.0000
12599SI     SI112599   7.170   6.771   9.401  0.0000  0.0000  0.0000
12600SI     SI112600   3.654   7.416   0.080  0.0000  0.0000  0.0000
12601SI     SI112601   8.292   3.307   0.146  0.0000  0.0000  0.0000
12602SI     SI112602   7.552   4.424   8.760  0.0000  0.0000  0.0000
12603SI     SI112603   3.619   4.564   0.993  0.0000  0.0000  0.0000
12604SI     SI112604   2.962   8.283   8.180  0.0000  0.0000  0.0000
12605SI     SI112605   5.425   3.524   0.115  0.0000  0.0000  0.0000
12606SI     SI112606   0.272   5.325   8.533  0.0000  0.0000  0.0000
12607SI     SI112607   0.460   0.411   0.330  0.0000  0.0000  0.0000
12608SI     SI112608   9.457   4.320   0.745  0.0000  0.0000  0.0000
12609SI     SI112609   0.441   1.274   1.269  0.0000  0.0000  0.0000
12610SI     SI112610   7.730   3.489   1.360  0.0000  0.0000  0.0000
12611SI     SI112611   4.794   4.207   0.095  0.0000  0.0000  0.0000
12612SI     SI112612   2.685   6.240   9.495  0.0000  0.0000  0.0000
12613SI     SI112613   4.537   7.036   0.333  0.0000  0.0000  0.0000
12614SI     SI112614   5.883   7.473   9.099  0.0000  0.0000  0.0000
12615SI     SI112615   7.161   4.329   9.325  0.0000  0.0000  0.0000
12616SI     SI112616   7.299   4.073   8.934  0.0000  0.0000  0.0000
12617SI     SI112617   3.370   7.261   9.273  0.0000  0.0000  0.0000
12618SI     SI112618   9.232   1.141   0.958  0.0000  0.0000  0.0000
12619SI     SI112619   2.708   4.169   0.444  0.0000  0.0000  0.0000
12620SI     SI112620   8.194   1.966   8.540  0.0000  0.0000  0.0000
12621SI     SI112621   3.328   1.415   9.069  0.0000  0.0000  0.0000
12622SI     SI112622   8.787   0.971   9.222  0.0000  0.0000  0.0000
12623SI     SI112623   8.404   2.215   1.040  0.0000  0.0000  0.0000
12624SI     SI112624   2.645   1.772   8.736  0.0000  0.0000  0.0000
12625SI     SI112625   6.565   4.484   0.366  0.0000  0.0000  0.0000
12626SI     SI112626   9.556   1.618   0.161  0.0000  0.0000  0.0000
12627SI     SI112627   9.439   5.673   0.539  0.0000  0.0000  0.0000
12628SI     SI112628   4.884   6.556   8.974  0.0000  0.0000  0.0000
12629SI     SI112629   0.347   4.098   9.401  0.0000  0.0000  0.0000
12630SI     SI112630   8.564   5.572   0.922  0.0000  0.0000  0.0000
12631SI     SI112631   2.402   0.280   0.635  0.0000  0.0000  0.0000
12632SI     SI112632   1.599   2.099   0.810  0.0000  0.0000  0.0000
12633SI     SI112633   5.456   8.310   0.133  0.0000  0.0000  0.0000
12634SI     SI112634   5.841   4.191   9.476  0.0000  0.0000  0.0000
12635SI     SI112635   0.424   2.673   1.063  0.0000  0.0000  0.0000
12636SI     SI112636   6.454   6.155   0.007  0.0000  0.0000  0.0000
12637SI     SI112637   6.429   1.627   0.990  0.0000  0.0000  0.0000
12638SI     SI112638   3.326   6.931   8.328  0.0000  0.0000  0.0000
12639SI     SI112639   5.288   9.044   1.164  0.0000  0.0000  0.0000
12640SI     SI112640   8.133   4.340   0.487  0.0000  0.0000  0.0000
12641SI     SI112641   6.453   3.952   8.830  0.0000  0.0000  0.0000
12642SI     SI112642   4.637   2.844   8.652  0.0000  0.0000  0.0000
12643SI     SI112643   5.059   4.172   8.526  0.0000  0.0000  0.0000
12644SI     SI112644   9.319   2.501   0.481  0.0000  0.0000  0.0000
12645SI     SI112645   1.283   8.956   0.098  0.0000  0.0000  0.0000
12646SI     SI112646   8.928   1.498   0.823  0.0000  0.0000  0.0000
12647SI     SI112647   2.707   3.566   0.030  0.0000  0.0000  0.0000
12648SI     SI112648   4.170   3.890   8.784  0.0000  0.0000  0.0000
12649SI     SI112649   7.622   5.861   9.334  0.0000  0.0000  0.0000
12650SI     SI112650   9.251   6.777   1.075  0.0000  0.0000  0.0000
12651SI     SI112651   7.451   5.806   8.453  0.0000  0.0000  0.0000
12652SI     SI112652   8.518   5.868   0.300  0.0000  0.0000  0.0000
12653SI     SI112653   5.042   8.894   0.853  0.0000  0.0000  0.0000
12654SI     SI112654   6.806   7.332   0.611  0.0000  0.0000  0.0000
12655SI     SI112655   2.222   9.412   0.403  0.0000  0.0000  0.0000
12656SI     SI112656   2.765   8.262   8.801  0.0000  0.0000  0.0000
12657SI     SI112657   2.704   6.458   0.310  0.0000  0.0000  0.0000
12658SI     SI112658   1.613   4.385   0.747  0.0000  0.0000  0.0000
12659SI     SI112659   6.562   7.184   0.601  0.0000  0.0000  0.0000
12660SI     SI112660   9.335   1.718   9.025  0.0000  0.0000  0.0000
12661SI     SI112661   1.163   1.697   9.519  0.0000  0.0000  0.0000
12662SI     SI112662   4.630   5.730   9.102  0.0000  0.0000  0.0000
12663SI     SI112663   7.808   1.648   9.400  0.0000  0.0000  0.0000
12664SI     SI112664   9.327   0.734   0.660  0.0000  0.0000  0.0000
12665SI     SI112665   1.619   9.536   0.298  0.0000  0.0000  0.0000
12666SI     SI112666   7.342   3.126   0.163  0.0000  0.0000  0.0000
12667SI     SI112667   8.184   7.839   8.398  0.0000  0.0000  0.0000
12668SI     SI112668   8.424   1.850   8.951  0.0000  0.0000  0.0000
12669SI     SI112669   6.890   9.535   0.514  0.0000  0.0000  0.0000
12670SI     SI112670   9.151   9.189   8.837  0.0000  0.0000  0.0000
12671SI     SI112671   0.766   8.155   8.444  0.0000  0.0000  0.0000
12672SI     SI112672   1.048   6.593   9.522  0.0000  0.0000  0.0000
12673SI     SI112673   1.076   3.530   0.776  0.0000  0.0000  0.0000
12674SI     SI112674   7.998   3.726   0.280  0.0000  0.0000  0.0000
12675SI     SI112675   6.162   4.836   9.518  0.0000  0.0000  0.0000
12676SI     SI112676   2.275   8.308   0.168  0.0000  0.0000  0.0000
12677SI     SI112677   2.512   6.880   0.257  0.0000  0.0000  0.0000
12678SI     SI112678   4.305   3.916   9.533  0.0000  0.0000  0.0000
12679SI     SI112679   6.763   7.590   0.433  0.0000  0.0000  0.0000
12680SI     SI112680   4.925   0.907   9.508  0.0000  0.0000  0.0000
12681SI     SI112681   9.283   8.499   8.336  0.0000  0.0000  0.0000
12682SI     SI112682   5.595   9.558   8.566  0.0000  0.0000  0.0000
12683SI     SI112683   7.070   3.715   9.187  0.0000  0.0000  0.0000
12684SI     SI112684   4.387   3.394   9.557  0.0000  0.0000  0.0000
12685SI     SI112685   4.962   7.962   0.862  0.0000  0.0000  0.0000
12686SI     SI112686   4.781   9.254   9.231  0.0000  0.0000  0.0000
12687SI     SI112687   2.322   8.432   1.002  0.0000  0.0000  0.0000
12688SI     SI112688   3.491   8.160   1.049  0.0000  0.0000  0.0000
12689SI     SI112689   2.823   5.346   0.565  0.0000  0.0000  0.0000
12690SI     SI112690   8.686   2.182   0.193  0.0000  0.0000  0.0000
12691SI     SI112691   5.156   4.471   8.549  0.0000  0.0000  0.0000
12692SI     SI112692   8.424   5.044   8.881  0.0000  0.0000  0.0000
12693SI     SI112693   5.095   0.471   0.749  0.0000  0.0000  0.0000
12694SI     SI112694   3.552   6.766   1.031  0.0000  0.0000  0.0000
12695SI     SI112695   0.224   3.863   9.266  0.0000  0.0000  0.0000
12696SI     SI112696   2.614   2.459   8.593  0.0000  0.0000  0.0000
12697SI     SI112697   4.222   8.770   1.249  0.0000  0.0000  0.0000
12698SI     SI112698   8.908   3.014   0.073  0.0000  0.0000  0.0000
12699SI     SI112699   0.882   3.022   1.306  0.0000  0.0000  0.0000
12700SI     SI112700   3.720   5.999   9.554  0.0000  0.0000  0.0000
12701SI     SI112701   1.612   9.145   0.898  0.0000  0.0000  0.0000
12702SI     SI112702   1.845   3.312   8.976  0.0000  0.0000  0.0000
12703SI     SI112703   5.837   8.519   8.642  0.0000  0.0000  0.0000
12704SI     SI112704   0.318   3.117   9.583  0.0000  0.0000  0.0000
12705SI     SI112705   7.777   6.062   0.507  0.0000  0.0000  0.0000
12706SI     SI112706   2.855   0.153   0.905  0.0000  0.0000  0.0000
12707SI     SI112707   9.033   1.109   0.715  0.0000  0.0000  0.0000
12708SI     SI112708   2.151   0.567   0.184  0.0000  0.0000  0.0000
12709SI     SI112709   6.412   7.099   0.188  0.0000  0.0000  0.0000
12710SI     SI112710   5.547   2.521   9.381  0.0000  0.0000  0.0000
12711SI     SI112711   5.448   2.259   8.721  0.0000  0.0000  0.0000
12712SI     SI112712   0.548   6.251   8.515  0.0000  0.0000  0.0000
12713SI     SI112713   5.113   0.019   9.145  0.0000  0.0000  0.0000
12714SI     SI112714   8.190   8.664   0.221  0.0000  0.0000  0.0000
12715SI     SI112715   3.623   7.882   0.979  0.0000  0.0000  0.0000
12716SI     SI112716   0.341   4.917   0.265  0.0000  0.0000  0.0000
12717SI     SI112717   7.250   2.035   9.207  0.0000  0.0000  0.0000
12718SI     SI112718   4.019   8.090   8.582  0.0000  0.0000  0.0000
12719SI     SI112719   4.041   2.955   9.066  0.0000  0.0000  0.0000
12720SI     SI112720   1.113   4.685   0.834  0.0000  0.0000  0.0000
12721SI     SI112721   7.440   3.921   0.539  0.0000  0.0000  0.0000
12722SI     SI112722   7.188   6.397   0.740  0.0000  0.0000  0.0000
12723SI     SI112723   5.215   9.490   0.528  0.0000  0.0000  0.0000
12724SI     SI112724   5.260   2.059   8.591  0.0000  0.0000  0.0000
12725SI     SI112725   2.764   9.466   1.259  0.0000  0.0000  0.0000
12726SI     SI112726   1.265   0.448   8.326  0.0000  0.0000  0.0000
12727SI     SI112727   0.100   8.290   0.350  0.0000  0.0000  0.0000
12728SI     SI112728   7.520   6.302   1.031  0.0000  0.0000  0.0000
12729SI     SI112729   7.156   3.032   9.318  0.0000  0.0000  0.0000
12730SI     SI112730   3.546   0.849   1.164  0.0000  0.0000  0.0000
12731SI     SI112731   5.398   5.371   8.383  0.0000  0.0000  0.0000
12732SI     SI112732   2.752   4.420   0.056  0.0000  0.0000  0.0000
12733SI     SI112733   6.086   5.656   9.196  0.0000  0.0000  0.0000
12734SI     SI112734   0.650   0.656   1.223  0.0000  0.0000  0.0000
12735SI     SI112735   6.879   0.406   9.162  0.0000  0.0000  0.0000
12736SI     SI112736   5.255   6.463   0.426  0.0000  0.0000  0.0000
12737SI     SI112737   0.078   2.288   1.232  0.0000  0.0000  0.0000
12738SI     SI112738   1.927   1.565   8.649  0.0000  0.0000  0.0000
12739SI     SI112739   5.747   7.816   8.623  0.0000  0.0000  0.0000
12740SI     SI112740   3.715   3.825   8.533  0.0000  0.0000  0.0000
12741SI     SI112741   8.117   6.179   8.759  0.0000  0.0000  0.0000
12742SI     SI112742   1.005   9.203   0.994  0.0000  0.0000  0.0000
12743SI     SI112743   4.685   7.010   0.614  0.0000  0.0000  0.0000
12744SI     SI112744   4.111   1.936   9.164  0.0000  0.0000  0.0000
12745SI     SI112745   8.827   3.972   8.555  0.0000  0.0000  0.0000
12746SI     SI112746   4.416   0.768   8.689  0.0000  0.0000  0.0000
12747SI     SI112747   1.359   9.587   8.533  0.0000  0.0000  0.0000
12748SI     SI112748   8.702   4.520   8.502  0.0000  0.0000  0.0000
12749SI     SI112749   7.927   4.002   8.431  0.0000  0.0000  0.0000
12750SI     SI112750   5.710   9.012   0.860  0.0000  0.0000  0.0000
12751SI     SI112751   3.327   4.922   9.234  0.0000  0.0000  0.0000
12752SI     SI112752   4.851   1.678   8.970  0.0000  0.0000  0.0000
12753SI     SI112753   6.481   8.996   9.581  0.0000  0.0000  0.0000
12754SI     SI112754   1.810   1.041   8.393  0.0000  0.0000  0.0000
12755SI     SI112755   6.756   0.154   9.046  0.0000  0.0000  0.0000
12756SI     SI112756   6.366   4.104   8.387  0.0000  0.0000  0.0000
12757SI     SI112757   3.160   0.564   9.409  0.0000  0.0000  0.0000
12758SI     SI112758   0.582   0.094   0.817  0.0000  0.0000  0.0000
12759SI     SI112759   5.888   7.148   8.384  0.0000  0.0000  0.0000
12760SI     SI112760   2.525   1.976   9.450  0.0000  0.0000  0.0000
12761SI     SI112761   3.956   2.306   0.460  0.0000  0.0000  0.0000
12762SI     SI112762   1.041   7.000   9.246  0.0000  0.0000  0.0000
12763SI     SI112763   9.144   8.004   9.399  0.0000  0.0000  0.0000
12764SI     SI112764   7.165   1.018   0.097  0.0000  0.0000  0.0000
12765SI     SI112765   8.647   4.306   8.966  0.0000  0.0000  0.0000
12766SI     SI112766   8.792   0.515   0.730  0.0000  0.0000  0.0000
12767SI     SI112767   9.060   0.377   9.560  0.0000  0.0000  0.0000
12768SI     SI112768   7.537   2.963   8.780  0.0000  0.0000  0.0000
12769SI     SI112769   8.121   0.077   1.107  0.0000  0.0000  0.0000
12770SI     SI112770   1.927   1.403   0.949  0.0000  0.0000  0.0000
12771SI     SI112771   1.043   1.268   0.288  0.0000  0.0000  0.0000
12772SI     SI112772   8.495   3.649   0.749  0.0000  0.0000  0.0000
12773SI     SI112773   0.299   7.642   0.511  0.0000  0.0000  0.0000
12774SI     SI112774   9.444   9.386   0.041  0.0000  0.0000  0.0000
12775SI     SI112775   7.509   1.490   1.220  0.0000  0.0000  0.0000
12776SI     SI112776   8.509   6.396   9.327  0.0000  0.0000  0.0000
12777SI     SI112777   5.127   5.673   1.316  0.0000  0.0000  0.0000
12778SI     SI112778   2.784   7.206   9.397  0.0000  0.0000  0.0000
12779SI     SI112779   6.569   7.529   8.635  0.0000  0.0000  0.0000
12780SI     SI112780   6.956   7.841   9.095  0.0000  0.0000  0.0000
12781SI     SI112781   4.604   4.368   1.029  0.0000  0.0000  0.0000
12782SI     SI112782   3.525   3.446   1.232  0.0000  0.0000  0.0000
12783SI     SI112783   2.560   7.416   9.304  0.0000  0.0000  0.0000
12784SI     SI112784   2.222   4.726   8.690  0.0000  0.0000  0.0000
12785SI     SI112785   9.098   2.344   9.584  0.0000  0.0000  0.0000
12786SI     SI112786   7.881   6.193   8.937  0.0000  0.0000  0.0000
12787SI     SI112787   5.821   9.102   9.373  0.0000  0.0000  0.0000
12788SI     SI112788   7.158   5.682   0.773  0.0000  0.0000  0.0000
12789SI     SI112789   3.126   6.092   8.395  0.0000  0.0000  0.0000
12790SI     SI112790   2.387   9.295   8.208  0.0000  0.0000  0.0000
12791SI     SI112791   8.182   9.481   8.769  0.0000  0.0000  0.0000
12792SI     SI112792   0.115   7.888   0.973  0.0000  0.0000  0.0000
12793SI     SI112793   0.530   7.382   0.095  0.0000  0.0000  0.0000
12794SI     SI112794   0.216   5.989   1.121  0.0000  0.0000  0.0000
12795SI     SI112795   9.123   1.423   9.362  0.0000  0.0000  0.0000
12796SI     SI112796   1.382   0.961   8.741  0.0000  0.0000  0.0000
12797SI     SI112797   2.110   3.523   9.339  0.0000  0.0000  0.0000
12798SI     SI112798   3.525   5.880   8.432  0.0000  0.0000  0.0000
12799SI     SI112799   6.614   0.591   1.073  0.0000  0.0000  0.0000
12800SI     SI112800   7.636   8.702   8.953  0.0000  0.0000  0.0000
12801SI     SI112801   7.582   6.538   8.615  0.0000  0.0000  0.0000
12802SI     SI112802   3.332   4.595   9.573  0.0000  0.0000  0.0000
12803SI     SI112803   5.257   1.280   9.460  0.0000  0.0000  0.0000
12804SI     SI112804   8.195   6.338   0.557  0.0000  0.0000  0.0000
12805SI     SI112805   2.125   2.934   0.266  0.0000  0.0000  0.0000
12806SI     SI112806   3.643   3.513   0.506  0.0000  0.0000  0.0000
12807SI     SI112807   5.035   8.136   1.101  0.0000  0.0000  0.0000
12808SI     SI112808   6.512   6.222   0.508  0.0000  0.0000  0.0000
12809SI     SI112809   8.489   2.266   0.756  0.0000  0.0000  0.0000
12810SI     SI112810   0.023   3.355   8.480  0.0000  0.0000  0.0000
12811SI     SI112811   4.257   5.378   0.030  0.0000  0.0000  0.0000
12812SI     SI112812   0.708   6.484   8.780  0.0000  0.0000  0.0000
12813SI     SI112813   6.350   6.018   0.695  0.0000  0.0000  0.0000
12814SI     SI112814   3.797   0.269   8.637  0.0000  0.0000  0.0000
12815SI     SI112815   8.106   1.629   0.222  0.0000  0.0000  0.0000
12816SI     SI112816   8.825   3.693   8.406  0.0000  0.0000  0.0000
12817SI     SI112817   4.061   8.232   9.375  0.0000  0.0000  0.0000
12818SI     SI112818   6.770   1.451   8.516  0.0000  0.0000  0.0000
12819SI     SI112819   1.514   3.607   8.912  0.0000  0.0000  0.0000
12820SI     SI112820   4.698   0.426   9.569  0.0000  0.0000  0.0000
12821SI     SI112821   8.896   4.167   9.040  0.0000  0.0000  0.0000
12822SI     SI112822   4.116   3.560   0.270  0.0000  0.0000  0.0000
12823SI     SI112823   5.052   7.304   1.048  0.0000  0.0000  0.0000
12824SI     SI112824   6.452   5.137   0.703  0.0000  0.0000  0.0000
12825SI     SI112825   4.850   4.396   8.262  0.0000  0.0000  0.0000
12826SI     SI112826   2.100   4.958   1.057  0.0000  0.0000  0.0000
12827SI     SI112827   5.687   7.297   8.951  0.0000  0.0000  0.0000
12828SI     SI112828   1.097   5.743   0.364  0.0000  0.0000  0.0000
12829SI     SI112829   0.993   8.428   8.328  0.0000  0.0000  0.0000
12830SI     SI112830   4.658   0.362   0.684  0.0000  0.0000  0.0000
12831SI     SI112831   3.514   2.925   9.598  0.0000  0.0000  0.0000
12832SI     SI112832   7.614   7.572   8.597  0.0000  0.0000  0.0000
12833SI     SI112833   2.702   5.491   8.738  0.0000  0.0000  0.0000
12834SI     SI112834   2.144   8.371   9.214  0.0000  0.0000  0.0000
12835SI     SI112835   8.505   0.746   1.029  0.0000  0.0000  0.0000
12836SI     SI112836   5.437   0.736   1.026  0.0000  0.0000  0.0000
12837SI     SI112837   9.108   5.079   9.152  0.0000  0.0000  0.0000
12838SI     SI112838   9.160   0.310   9.273  0.0000  0.0000  0.0000
12839SI     SI112839   3.410   3.283   0.843  0.0000  0.0000  0.0000
12840SI     SI112840   6.048   9.145   8.931  0.0000  0.0000  0.0000
12841SI     SI112841   0.436   4.318   1.171  0.0000  0.0000  0.0000
12842SI     SI112842   3.667   7.356   9.227  0.0000  0.0000  0.0000
12843SI     SI112843   5.622   8.802   1.061  0.0000  0.0000  0.0000
12844SI     SI112844   1.858   1.713   9.223  0.0000  0.0000  0.0000
12845SI     SI112845   0.232   8.716   0.352  0.0000  0.0000  0.0000
12846SI     SI112846   3.578   2.762   8.525  0.0000  0.0000  0.0000
12847SI     SI112847   0.368   8.503   9.421  0.0000  0.0000  0.0000
12848SI     SI112848   2.704   1.299   1.145  0.0000  0.0000  0.0000
12849SI     SI112849   1.549   6.068   8.942  0.0000  0.0000  0.0000
12850SI     SI112850   7.430   8.550   9.120  0.0000  0.0000  0.0000
12851SI     SI112851   9.496   7.901   0.494  0.0000  0.0000  0.0000
12852SI     SI112852   7.129   6.017   9.111  0.0000  0.0000  0.0000
12853SI     SI112853   6.355   3.497   8.935  0.0000  0.0000  0.0000
12854SI     SI112854   5.974   7.577   1.025  0.0000  0.0000  0.0000
12855SI     SI112855   2.970   6.415   0.447  0.0000  0.0000  0.0000
12856SI     SI112856   4.500   0.364   0.205  0.0000  0.0000  0.0000
12857SI     SI112857   0.808   7.343   1.087  0.0000  0.0000  0.0000
12858SI     SI112858   3.024   9.282   9.359  0.0000  0.0000  0.0000
12859SI     SI112859   0.061   6.250   8.334  0.0000  0.0000  0.0000
12860SI     SI112860   3.982   1.952   8.692  0.0000  0.0000  0.0000
12861SI     SI112861   5.710   8.477   0.032  0.0000  0.0000  0.0000
12862SI     SI112862   3.907   8.472   8.939  0.0000  0.0000  0.0000
12863SI     SI112863   4.052   6.132   0.939  0.0000  0.0000  0.0000
12864SI     SI112864   4.211   7.460   1.005  0.0000  0.0000  0.0000
12865SI     SI112865   5.329   2.756   1.188  0.0000  0.0000  0.0000
12866SI     SI112866   1.833   5.928   0.834  0.0000  0.0000  0.0000
12867SI     SI112867   0.466   6.564   9.214  0.0000  0.0000  0.0000
12868SI     SI112868   0.330   8.942   9.193  0.0000  0.0000  0.0000
12869SI     SI112869   6.787   7.890   0.651  0.0000  0.0000  0.0000
12870SI     SI112870   2.701   9.273   0.327  0.0000  0.0000  0.0000
12871SI     SI112871   3.059   8.386   0.825  0.0000  0.0000  0.0000
12872SI     SI112872   5.612   9.551   9.053  0.0000  0.0000  0.0000
12873SI     SI112873   7.686   5.272   1.336  0.0000  0.0000  0.0000
12874SI     SI112874   5.577   8.620   8.160  0.0000  0.0000  0.0000
12875SI     SI112875   3.360   7.888   9.211  0.0000  0.0000  0.0000
12876SI     SI112876   7.293   9.066   8.792  0.0000  0.0000  0.0000
12877SI     SI112877   9.200   4.455   8.719  0.0000  0.0000  0.0000
12878SI     SI112878   4.571   0.281   8.442  0.0000  0.0000  0.0000
12879SI     SI112879   5.970   2.399   0.213  0.0000  0.0000  0.0000
12880SI     SI112880   7.994   8.496   1.094  0.0000  0.0000  0.0000
12881SI     SI112881   9.579   3.643   0.133  0.0000  0.0000  0.0000
12882SI     SI112882   1.891   0.614   0.010  0.0000  0.0000  0.0000
12883SI     SI112883   5.425   3.990   1.368  0.0000  0.0000  0.0000
12884SI     SI112884   0.364   5.870   8.614  0.0000  0.0000  0.0000
12885SI     SI112885   1.264   4.359   9.248  0.0000  0.0000  0.0000
12886SI     SI112886   9.163   5.791   0.494  0.0000  0.0000  0.0000
12887SI     SI112887   8.870   9.309   0.436  0.0000  0.0000  0.0000
12888SI     SI112888   9.482   5.069   1.320  0.0000  0.0000  0.0000
12889SI     SI112889   9.267   4.961   8.928  0.0000  0.0000  0.0000
12890SI     SI112890   0.584   5.371   1.390  0.0000  0.0000  0.0000
12891SI     SI112891   4.765   3.517   0.958  0.0000  0.0000  0.0000
12892SI     SI112892   6.362   2.437   8.230  0.0000  0.0000  0.0000
12893SI     SI112893   8.672   3.192   0.728  0.0000  0.0000  0.0000
12894SI     SI112894   1.411   9.201   0.524  0.0000  0.0000  0.0000
12895SI     SI112895   4.162   6.262   0.020  0.0000  0.0000  0.0000
12896SI     SI112896   5.674   6.185   8.724  0.0000  0.0000  0.0000
12897SI     SI112897   8.616   5.632   8.529  0.0000  0.0000  0.0000
12898SI     SI112898   0.538   1.115   9.368  0.0000  0.0000  0.0000
12899SI     SI112899   6.577   1.611   8.666  0.0000  0.0000  0.0000
12900SI     SI112900   0.505   9.142   9.368  0.0000  0.0000  0.0000
12901SI     SI112901   7.029   4.257   8.612  0.0000  0.0000  0.0000
12902SI     SI112902   6.722   8.020   9.483  0.0000  0.0000  0.0000
12903SI     SI112903   7.573   9.127   9.558  0.0000  0.0000  0.0000
12904SI     SI112904   7.782   2.898   9.563  0.0000  0.0000  0.0000
12905SI     SI112905   5.738   8.049   1.206  0.0000  0.0000  0.0000
12906SI     SI112906   0.699   3.155   8.644  0.0000  0.0000  0.0000
12907SI     SI112907   3.390   2.573   0.904  0.0000  0.0000  0.0000
12908SI     SI112908   8.345   0.541   0.845  0.0000  0.0000  0.0000
12909SI     SI112909   9.546   3.204   1.203  0.0000  0.0000  0.0000
12910SI     SI112910   4.363   0.436   0.986  0.0000  0.0000  0.0000
12911SI     SI112911   1.470   3.357   0.707  0.0000  0.0000  0.0000
12912SI     SI112912   3.880   2.602   0.098  0.0000  0.0000  0.0000
12913SI     SI112913   5.870   8.084   0.801  0.0000  0.0000  0.0000
12914SI     SI112914   4.099   8.885   8.848  0.0000  0.0000  0.0000
12915SI     SI112915   4.510   2.419   0.793  0.0000  0.0000  0.0000
12916SI     SI112916   2.124   6.598   0.027  0.0000  0.0000  0.0000
12917SI     SI112917   0.395   3.602   8.667  0.0000  0.0000  0.0000
12918SI     SI112918   7.311   0.925   0.567  0.0000  0.0000  0.0000
12919SI     SI112919   6.120   7.459   1.282  0.0000  0.0000  0.0000
12920SI     SI112920   7.166   7.898   9.296  0.0000  0.0000  0.0000
12921SI     SI112921   2.876   6.431   0.738  0.0000  0.0000  0.0000
12922SI     SI112922   3.623   1.192   0.762  0.0000  0.0000  0.0000
12923SI     SI112923   8.257   5.948   0.422  0.0000  0.0000  0.0000
12924SI     SI112924   2.405   7.164   8.412  0.0000  0.0000  0.0000
12925SI     SI112925   5.691   3.398   0.238  0.0000  0.0000  0.0000
12926SI     SI112926   0.970   4.786   9.145  0.0000  0.0000  0.0000
12927SI     SI112927   3.107   1.498   8.667  0.0000  0.0000  0.0000
12928SI     SI112928   3.866   4.451   1.154  0.0000  0.0000  0.0000
12929SI     SI112929   5.019   6.619   0.543  0.0000  0.0000  0.0000
12930SI     SI112930   6.444   1.935   0.351  0.0000  0.0000  0.0000
12931SI     SI112931   1.174   1.319   8.842  0.0000  0.0000  0.0000
12932SI     SI112932   2.622   2.362   0.719  0.0000  0.0000  0.0000
12933SI     SI112933   9.501   2.363   0.688  0.0000  0.0000  0.0000
12934SI     SI112934   7.422   8.042   8.730  0.0000  0.0000  0.0000
12935SI     SI112935   3.161   6.206   0.303  0.0000  0.0000  0.0000
12936SI     SI112936   3.568   8.271   8.519  0.0000  0.0000  0.0000
12937SI     SI112937   8.683   3.678   8.848  0.0000  0.0000  0.0000
12938SI     SI112938   0.115   1.328   9.360  0.0000  0.0000  0.0000
12939SI     SI112939   1.285   0.138   9.269  0.0000  0.0000  0.0000
12940SI     SI112940   4.760   5.555   0.958  0.0000  0.0000  0.0000
12941SI     SI112941   4.043   4.601   0.940  0.0000  0.0000  0.0000
12942SI     SI112942   9.440   7.041   0.049  0.0000  0.0000  0.0000
12943SI     SI112943   8.934   8.964   0.772  0.0000  0.0000  0.0000
12944SI     SI112944   3.864   4.173   1.306  0.0000  0.0000  0.0000
12945SI     SI112945   1.859   2.825   0.182  0.0000  0.0000  0.0000
12946SI     SI112946   1.863   7.358   8.602  0.0000  0.0000  0.0000
12947SI     SI112947   6.641   2.958   8.555  0.0000  0.0000  0.0000
12948SI     SI112948   5.173   2.923   0.832  0.0000  0.0000  0.0000
12949SI     SI112949   1.434   0.131   8.801  0.0000  0.0000  0.0000
12950SI     SI112950   5.198   8.961   9.324  0.0000  0.0000  0.0000
12951SI     SI112951   8.071   4.829   0.279  0.0000  0.0000  0.0000
12952SI     SI112952   1.100   8.379   9.384  0.0000  0.0000  0.0000
12953SI     SI112953   0.793   1.263   9.470  0.0000  0.0000  0.0000
12954SI     SI112954   6.041   4.191   1.126  0.0000  0.0000  0.0000
12955SI     SI112955   5.888   4.981   1.354  0.0000  0.0000  0.0000
12956SI     SI112956   5.421   5.811   0.947  0.0000  0.0000  0.0000
12957SI     SI112957   6.548   3.997   9.489  0.0000  0.0000  0.0000
12958SI     SI112958   8.749   0.370   9.528  0.0000  0.0000  0.0000
12959SI     SI112959   3.084   0.695   9.151  0.0000  0.0000  0.0000
12960SI     SI112960   9.577   6.668   8.964  0.0000  0.0000  0.0000
12961SI     SI112961   8.059   5.135   0.251  0.0000  0.0000  0.0000
12962SI     SI112962   6.766   6.298   8.816  0.0000  0.0000  0.0000
12963SI     SI112963   6.170   6.256   0.737  0.0000  0.0000  0.0000
12964SI     SI112964   5.196   2.822   0.558  0.0000  0.0000  0.0000
12965SI     SI112965   7.391   1.168   9.557  0.0000  0.0000  0.0000
12966SI     SI112966   4.117   9.172   8.769  0.0000  0.0000  0.0000
12967SI     SI112967   0.428   5.314   9.476  0.0000  0.0000  0.0000
12968SI     SI112968   5.837   1.458   1.112  0.0000  0.0000  0.0000
12969SI     SI112969   6.697   0.062   1.123  0.0000  0.0000  0.0000
12970SI     SI112970   4.233   2.205   9.058  0.0000  0.0000  0.0000
12971SI     SI112971   6.543   5.163   0.991  0.0000  0.0000  0.0000
12972SI     SI112972   1.300   6.146   0.044  0.0000  0.0000  0.0000
12973SI     SI112973   7.930   7.737   8.253  0.0000  0.0000  0.0000
12974SI     SI112974   3.215   8.385   1.297  0.0000  0.0000  0.0000
12975SI     SI112975   5.221   9.111   0.767  0.0000  0.0000  0.0000
12976SI     SI112976   1.180   1.457   1.409  0.0000  0.0000  0.0000
12977SI     SI112977   8.704   9.044   9.392  0.0000  0.0000  0.0000
12978SI     SI112978   9.124   1.557   1.271  0.0000  0.0000  0.0000
12979SI     SI112979   8.768   9.465   9.371  0.0000  0.0000  0.0000
12980SI     SI112980   1.598   4.005   0.559  0.0000  0.0000  0.0000
12981SI     SI112981   3.109   2.380   8.458  0.0000  0.0000  0.0000
12982SI     SI112982   5.863   4.260   8.319  0.0000  0.0000  0.0000
12983SI     SI112983   8.919   2.776   8.334  0.0000  0.0000  0.0000
12984SI     SI112984   5.630   5.402   8.189  0.0000  0.0000  0.0000
12985SI     SI112985   6.080   4.203   0.067  0.0000  0.0000  0.0000
12986SI     SI112986   0.443   3.828   0.440  0.0000  0.0000  0.0000
12987SI     SI112987   4.097   0.178   1.196  0.0000  0.0000  0.0000
12988SI     SI112988   6.052   8.186   8.912  0.0000  0.0000  0.0000
12989SI     SI112989   5.952   3.194   8.900  0.0000  0.0000  0.0000
12990SI     SI112990   3.385   6.967   0.071  0.0000  0.0000  0.0000
12991SI     SI112991   7.873   3.327   8.798  0.0000  0.0000  0.0000
12992SI     SI112992   5.745   8.513   0.538  0.0000  0.0000  0.0000
12993SI     SI112993   8.457   1.982   0.139  0.0000  0.0000  0.0000
12994SI     SI112994   5.952   2.285   8.267  0.0000  0.0000  0.0000
12995SI     SI112995   8.613   2.723   9.461  0.0000  0.0000  0.0000
12996SI     SI112996   3.924   2.424   8.522  0.0000  0.0000  0.0000
12997SI     SI112997   2.770   5.635   0.669  0.0000  0.0000  0.0000
12998SI     SI112998   1.553   3.265   0.351  0.0000  0.0000  0.0000
12999SI     SI112999   7.348   2.273   8.213  0.0000  0.0000  0.0000
13000SI     SI113000   2.440   2.884   8.805  0.0000  0.0000  0.0000
13001SI     SI113001   6.655   5.691   0.036  0.0000  0.0000  0.0000
13002SI     SI113002   6.253   0.590   9.500  0.0000  0.0000  0.0000
13003SI     SI113003   0.026   1.763   8.927  0.0000  0.0000  0.0000
13004SI     SI113004   5.292   4.635   9.258  0.0000  0.0000  0.0000
13005SI     SI113005   6.659   8.015   1.300  0.0000  0.0000  0.0000
13006SI     SI113006   5.103   2.541   8.707  0.0000  0.0000  0.0000
13007SI     SI113007   7.956   4.810   0.576  0.0000  0.0000  0.0000
13008SI     SI113008   3.142   5.877   0.896  0.0000  0.0000  0.0000
13009SI     SI113009   0.972   0.370   9.046  0.0000  0.0000  0.0000
13010SI     SI113010   3.718   7.823   8.295  0.0000  0.0000  0.0000
13011SI     SI113011   2.810   3.409   8.992  0.0000  0.0000  0.0000
13012SI     SI113012   2.494   6.364   8.403  0.0000  0.0000  0.0000
13013SI     SI113013   2.830   8.998   9.042  0.0000  0.0000  0.0000
13014SI     SI113014   0.166   0.661   9.366  0.0000  0.0000  0.0000
13015SI     SI113015   5.994   3.618   9.231  0.0000  0.0000  0.0000
13016SI     SI113016   7.719   3.393   9.601  0.0000  0.0000  0.0000
13017SI     SI113017   5.792   2.040   9.551  0.0000  0.0000  0.0000
13018SI     SI113018   8.979   2.353   1.302  0.0000  0.0000  0.0000
13019SI     SI113019   1.321   2.863   9.043  0.0000  0.0000  0.0000
13020SI     SI113020   1.610   5.722   0.835  0.0000  0.0000  0.0000
13021SI     SI113021   7.762   6.073   9.191  0.0000  0.0000  0.0000
13022SI     SI113022   4.956   1.209   1.234  0.0000  0.0000  0.0000
13023SI     SI113023   1.174   8.556   0.774  0.0000  0.0000  0.0000
13024SI     SI113024   1.030   5.197   8.375  0.0000  0.0000  0.0000
13025SI     SI113025   5.310   0.640   9.251  0.0000  0.0000  0.0000
13026SI     SI113026   0.974   6.507   9.232  0.0000  0.0000  0.0000
13027SI     SI113027   6.454   3.778   9.283  0.0000  0.0000  0.0000
13028SI     SI113028   3.808   2.292   0.947  0.0000  0.0000  0.0000
13029SI     SI113029   5.632   6.460   1.160  0.0000  0.0000  0.0000
13030SI     SI113030   4.548   4.174   0.595  0.0000  0.0000  0.0000
13031SI     SI113031   2.178   2.166   1.107  0.0000  0.0000  0.0000
13032SI     SI113032   6.491   0.119   0.903  0.0000  0.0000  0.0000
13033SI     SI113033   5.035   1.702   1.076  0.0000  0.0000  0.0000
13034SI     SI113034   8.496   1.929   8.467  0.0000  0.0000  0.0000
13035SI     SI113035   8.775   8.291   9.334  0.0000  0.0000  0.0000
13036SI     SI113036   7.875   8.783   9.101  0.0000  0.0000  0.0000
13037SI     SI113037   8.123   0.395   9.148  0.0000  0.0000  0.0000
13038SI     SI113038   6.026   8.062   0.540  0.0000  0.0000  0.0000
13039SI     SI113039   1.647   3.463   9.464  0.0000  0.0000  0.0000
13040SI     SI113040   3.673   7.595   9.441  0.0000  0.0000  0.0000
13041SI     SI113041   8.210   8.881   0.783  0.0000  0.0000  0.0000
13042SI     SI113042   8.272   3.594   1.282  0.0000  0.0000  0.0000
13043SI     SI113043   2.887   2.068   1.358  0.0000  0.0000  0.0000
13044SI     SI113044   7.391   5.243   8.467  0.0000  0.0000  0.0000
13045SI     SI113045   1.910   3.715   9.220  0.0000  0.0000  0.0000
13046SI     SI113046   3.643   9.423   0.057  0.0000  0.0000  0.0000
13047SI     SI113047   7.955   6.224   0.091  0.0000  0.0000  0.0000
13048SI     SI113048   7.600   0.012   0.295  0.0000  0.0000  0.0000
13049SI     SI113049   5.257   1.446   9.036  0.0000  0.0000  0.0000
13050SI     SI113050   3.493   4.471   8.396  0.0000  0.0000  0.0000
13051SI     SI113051   8.254   1.148   9.234  0.0000  0.0000  0.0000
13052SI     SI113052   6.155   5.113   8.998  0.0000  0.0000  0.0000
13053SI     SI113053   2.114   0.248   0.747  0.0000  0.0000  0.0000
13054SI     SI113054   9.281   2.207   9.357  0.0000  0.0000  0.0000
13055SI     SI113055   0.041   7.013   1.232  0.0000  0.0000  0.0000
13056SI     SI113056   9.570   7.608   9.208  0.0000  0.0000  0.0000
13057SI     SI113057   5.026   4.034   8.808  0.0000  0.0000  0.0000
13058SI     SI113058   1.143   3.626   8.287  0.0000  0.0000  0.0000
13059SI     SI113059   7.037   0.289   8.407  0.0000  0.0000  0.0000
13060SI     SI113060   2.105   9.348   1.365  0.0000  0.0000  0.0000
13061SI     SI113061   7.312   9.026   9.425  0.0000  0.0000  0.0000
13062SI     SI113062   1.395   6.991   0.203  0.0000  0.0000  0.0000
13063SI     SI113063   5.026   4.600   9.433  0.0000  0.0000  0.0000
13064SI     SI113064   9.581   1.091   8.335  0.0000  0.0000  0.0000
13065SI     SI113065   4.879   4.507   0.999  0.0000  0.0000  0.0000
13066SI     SI113066   4.615   5.571   0.694  0.0000  0.0000  0.0000
13067SI     SI113067   7.216   0.369   0.038  0.0000  0.0000  0.0000
13068SI     SI113068   7.844   7.730   0.557  0.0000  0.0000  0.0000
13069SI     SI113069   3.156   0.686   8.514  0.0000  0.0000  0.0000
13070SI     SI113070   1.243   9.414   0.661  0.0000  0.0000  0.0000
13071SI     SI113071   9.194   7.712   9.023  0.0000  0.0000  0.0000
13072SI     SI113072   3.655   8.785   0.715  0.0000  0.0000  0.0000
13073SI     SI113073   4.716   8.587   8.586  0.0000  0.0000  0.0000
13074SI     SI113074   8.912   6.045   0.058  0.0000  0.0000  0.0000
13075SI     SI113075   0.412   6.076   0.888  0.0000  0.0000  0.0000
13076SI     SI113076   0.450   1.709   0.980  0.0000  0.0000  0.0000
13077SI     SI113077   2.407   0.180   8.426  0.0000  0.0000  0.0000
13078SI     SI113078   2.629   1.149   0.098  0.0000  0.0000  0.0000
13079SI     SI113079   5.310   5.227   0.183  0.0000  0.0000  0.0000
13080SI     SI113080   2.717   2.210   1.148  0.0000  0.0000  0.0000
13081SI     SI113081   8.540   5.104   0.338  0.0000  0.0000  0.0000
13082SI     SI113082   6.885   9.138   9.111  0.0000  0.0000  0.0000
13083SI     SI113083   5.797   4.318   1.014  0.0000  0.0000  0.0000
13084SI     SI113084   8.257   4.426   8.639  0.0000  0.0000  0.0000
13085SI     SI113085   4.033   5.039   0.349  0.0000  0.0000  0.0000
13086SI     SI113086   3.801   4.846   0.248  0.0000  0.0000  0.0000
13087SI     SI113087   7.024   7.125   8.620  0.0000  0.0000  0.0000
13088SI     SI113088   5.262   0.008   8.265  0.0000  0.0000  0.0000
13089SI     SI113089   3.492   3.662   8.402  0.0000  0.0000  0.0000
13090SI     SI113090   6.442   9.126   8.397  0.0000  0.0000  0.0000
13091SI     SI113091   5.850   4.788   0.871  0.0000  0.0000  0.0000
13092SI     SI113092   5.523   3.155   0.938  0.0000  0.0000  0.0000
13093SI     SI113093   9.312   6.351   0.155  0.0000  0.0000  0.0000
13094SI     SI113094   5.916   4.559   8.716  0.0000  0.0000  0.0000
13095SI     SI113095   2.523   6.699   8.862  0.0000  0.0000  0.0000
13096SI     SI113096   6.137   2.140   0.593  0.0000  0.0000  0.0000
13097SI     SI113097   8.704   7.305   0.120  0.0000  0.0000  0.0000
13098SI     SI113098   5.635   1.006   8.293  0.0000  0.0000  0.0000
13099SI     SI113099   8.426   2.461   1.232  0.0000  0.0000  0.0000
13100SI     SI113100   9.119   2.643   9.492  0.0000  0.0000  0.0000
13101SI     SI113101   6.948   4.784   9.421  0.0000  0.0000  0.0000
13102SI     SI113102   7.387   5.646   8.706  0.0000  0.0000  0.0000
13103SI     SI113103   2.461   1.974   8.595  0.0000  0.0000  0.0000
13104SI     SI113104   2.201   2.983   1.361  0.0000  0.0000  0.0000
13105SI     SI113105   0.088   4.601   1.063  0.0000  0.0000  0.0000
13106SI     SI113106   3.231   0.935   0.215  0.0000  0.0000  0.0000
13107SI     SI113107   1.423   2.690   8.445  0.0000  0.0000  0.0000
13108SI     SI113108   5.637   1.607   0.149  0.0000  0.0000  0.0000
13109SI     SI113109   7.824   5.959   0.216  0.0000  0.0000  0.0000
13110SI     SI113110   7.929   6.123   0.985  0.0000  0.0000  0.0000
13111SI     SI113111   1.752   0.543   8.708  0.0000  0.0000  0.0000
13112SI     SI113112   0.635   4.063   0.514  0.0000  0.0000  0.0000
13113SI     SI113113   1.078   3.056   0.655  0.0000  0.0000  0.0000
13114SI     SI113114   2.958   6.579   9.423  0.0000  0.0000  0.0000
13115SI     SI113115   4.763   9.438   0.607  0.0000  0.0000  0.0000
13116SI     SI113116   1.912   2.198   9.188  0.0000  0.0000  0.0000
13117SI     SI113117   6.414   0.320   8.641  0.0000  0.0000  0.0000
13118SI     SI113118   1.855   3.142   8.444  0.0000  0.0000  0.0000
13119SI     SI113119   3.407   3.954   8.324  0.0000  0.0000  0.0000
13120SI     SI113120   7.485   6.043   8.658  0.0000  0.0000  0.0000
13121SI     SI113121   4.250   9.491   0.356  0.0000  0.0000  0.0000
13122SI     SI113122   1.416   5.857   8.564  0.0000  0.0000  0.0000
13123SI     SI113123   1.303   1.463   0.646  0.0000  0.0000  0.0000
13124SI     SI113124   8.614   8.547   8.262  0.0000  0.0000  0.0000
13125SI     SI113125   1.675   1.905   1.052  0.0000  0.0000  0.0000
13126SI     SI113126   2.946   7.538   0.217  0.0000  0.0000  0.0000
13127SI     SI113127   7.608   2.101   9.556  0.0000  0.0000  0.0000
13128SI     SI113128   5.527   1.668   8.700  0.0000  0.0000  0.0000
13129SI     SI113129   7.203   0.073   1.204  0.0000  0.0000  0.0000
13130SI     SI113130   9.225   7.450   0.363  0.0000  0.0000  0.0000
13131SI     SI113131   0.186   5.632   8.540  0.0000  0.0000  0.0000
13132SI     SI113132   7.063   1.162   8.688  0.0000  0.0000  0.0000
13133SI     SI113133   7.273   1.646   8.650  0.0000  0.0000  0.0000
13134SI     SI113134   0.080   6.489   1.243  0.0000  0.0000  0.0000
13135SI     SI113135   3.210   4.185   8.915  0.0000  0.0000  0.0000
13136SI     SI113136   1.575   0.535   9.189  0.0000  0.0000  0.0000
13137SI     SI113137   6.193   9.143   0.576  0.0000  0.0000  0.0000
13138SI     SI113138   0.971   6.443   0.420  0.0000  0.0000  0.0000
13139SI     SI113139   5.321   4.030   9.209  0.0000  0.0000  0.0000
13140SI     SI113140   2.663   2.070   8.380  0.0000  0.0000  0.0000
13141SI     SI113141   7.075   6.942   0.415  0.0000  0.0000  0.0000
13142SI     SI113142   5.838   6.631   0.205  0.0000  0.0000  0.0000
13143SI     SI113143   5.930   7.161   1.034  0.0000  0.0000  0.0000
13144SI     SI113144   0.237   4.589   9.274  0.0000  0.0000  0.0000
13145SI     SI113145   0.514   5.317   8.983  0.0000  0.0000  0.0000
13146SI     SI113146   4.442   2.954   0.968  0.0000  0.0000  0.0000
13147SI     SI113147   6.229   7.823   9.193  0.0000  0.0000  0.0000
13148SI     SI113148   7.983   0.087   8.762  0.0000  0.0000  0.0000
13149SI     SI113149   4.023   3.669   0.738  0.0000  0.0000  0.0000
13150SI     SI113150   3.109   4.619   0.832  0.0000  0.0000  0.0000
13151SI     SI113151   2.787   0.371   8.562  0.0000  0.0000  0.0000
13152SI     SI113152   7.386   1.173   1.319  0.0000  0.0000  0.0000
13153SI     SI113153   4.348   5.101   8.957  0.0000  0.0000  0.0000
13154SI     SI113154   6.411   2.005   0.655  0.0000  0.0000  0.0000
13155SI     SI113155   4.012   6.838   0.659  0.0000  0.0000  0.0000
13156SI     SI113156   1.827   4.808   1.112  0.0000  0.0000  0.0000
13157SI     SI113157   5.562   6.718   9.322  0.0000  0.0000  0.0000
13158SI     SI113158   6.504   7.662   9.173  0.0000  0.0000  0.0000
13159SI     SI113159   9.422   5.924   9.434  0.0000  0.0000  0.0000
13160SI     SI113160   3.672   4.486   8.167  0.0000  0.0000  0.0000
13161SI     SI113161   7.058   5.554   0.110  0.0000  0.0000  0.0000
13162SI     SI113162   2.558   8.348   8.580  0.0000  0.0000  0.0000
13163SI     SI113163   6.102   9.574   8.405  0.0000  0.0000  0.0000
13164SI     SI113164   3.481   1.265   1.444  0.0000  0.0000  0.0000
13165SI     SI113165   5.801   6.226   1.264  0.0000  0.0000  0.0000
13166SI     SI113166   2.468   6.623   8.565  0.0000  0.0000  0.0000
13167SI     SI113167   7.352   1.758   0.605  0.0000  0.0000  0.0000
13168SI     SI113168   4.505   5.330   8.505  0.0000  0.0000  0.0000
13169SI     SI113169   6.086   8.713   9.398  0.0000  0.0000  0.0000
13170SI     SI113170   7.616   6.566   0.880  0.0000  0.0000  0.0000
13171SI     SI113171   1.376   7.254   0.633  0.0000  0.0000  0.0000
13172SI     SI113172   9.314   8.575   0.500  0.0000  0.0000  0.0000
13173SI     SI113173   2.180   7.557   8.245  0.0000  0.0000  0.0000
13174SI     SI113174   1.017   7.116   0.789  0.0000  0.0000  0.0000
13175SI     SI113175   1.307   2.623   8.875  0.0000  0.0000  0.0000
13176SI     SI113176   7.296   9.099   0.827  0.0000  0.0000  0.0000
13177SI     SI113177   4.231   5.621   8.760  0.0000  0.0000  0.0000
13178SI     SI113178   3.299   0.822   0.488  0.0000  0.0000  0.0000
13179SI     SI113179   6.447   7.438   0.754  0.0000  0.0000  0.0000
13180SI     SI113180   4.598   1.998   1.275  0.0000  0.0000  0.0000
13181SI     SI113181   1.416   5.065   0.698  0.0000  0.0000  0.0000
13182SI     SI113182   3.526   5.467   8.748  0.0000  0.0000  0.0000
13183SI     SI113183   1.350   0.695   9.068  0.0000  0.0000  0.0000
13184SI     SI113184   8.859   3.423   8.770  0.0000  0.0000  0.0000
13185SI     SI113185   9.541   7.048   8.565  0.0000  0.0000  0.0000
13186SI     SI113186   4.177   4.879   0.579  0.0000  0.0000  0.0000
13187SI     SI113187   9.147   4.356   8.304  0.0000  0.0000  0.0000
13188SI     SI113188   5.007   7.349   8.404  0.0000  0.0000  0.0000
13189SI     SI113189   1.289   7.177   0.910  0.0000  0.0000  0.0000
13190SI     SI113190   0.925   6.047   9.340  0.0000  0.0000  0.0000
13191SI     SI113191   1.110   6.242   8.632  0.0000  0.0000  0.0000
13192SI     SI113192   0.620   7.388   1.334  0.0000  0.0000  0.0000
13193SI     SI113193   3.433   6.567   0.436  0.0000  0.0000  0.0000
13194SI     SI113194   1.869   8.082   9.462  0.0000  0.0000  0.0000
13195SI     SI113195   5.128   8.602   8.767  0.0000  0.0000  0.0000
13196SI     SI113196   7.009   8.444   1.041  0.0000  0.0000  0.0000
13197SI     SI113197   9.105   5.126   8.511  0.0000  0.0000  0.0000
13198SI     SI113198   4.264   2.257   8.263  0.0000  0.0000  0.0000
13199SI     SI113199   9.321   1.425   0.551  0.0000  0.0000  0.0000
13200SI     SI113200   2.943   4.677   1.096  0.0000  0.0000  0.0000
13201SI     SI113201   0.574   8.195   8.756  0.0000  0.0000  0.0000
13202SI     SI113202   2.007   4.975   0.244  0.0000  0.0000  0.0000
13203SI     SI113203   2.829   1.908   0.495  0.0000  0.0000  0.0000
13204SI     SI113204   2.284   7.738   1.240  0.0000  0.0000  0.0000
13205SI     SI113205   8.806   5.697   9.218  0.0000  0.0000  0.0000
13206SI     SI113206   1.073   0.638   9.180  0.0000  0.0000  0.0000
13207SI     SI113207   2.072   6.206   1.300  0.0000  0.0000  0.0000
13208SI     SI113208   6.615   6.396   9.064  0.0000  0.0000  0.0000
13209SI     SI113209   4.432   0.697   1.304  0.0000  0.0000  0.0000
13210SI     SI113210   1.276   8.938   8.789  0.0000  0.0000  0.0000
13211SI     SI113211   0.204   8.720   8.766  0.0000  0.0000  0.0000
13212SI     SI113212   6.791   3.851   0.414  0.0000  0.0000  0.0000
13213SI     SI113213   4.225   8.414   0.203  0.0000  0.0000  0.0000
13214SI     SI113214   8.321   4.543   0.520  0.0000  0.0000  0.0000
13215SI     SI113215   8.564   4.788   8.419  0.0000  0.0000  0.0000
13216SI     SI113216   4.839   1.147   8.917  0.0000  0.0000  0.0000
13217SI     SI113217   0.546   6.428   0.581  0.0000  0.0000  0.0000
13218SI     SI113218   0.259   9.321   0.232  0.0000  0.0000  0.0000
13219SI     SI113219   0.167   6.617   9.209  0.0000  0.0000  0.0000
13220SI     SI113220   2.094   0.466   8.327  0.0000  0.0000  0.0000
13221SI     SI113221   1.572   0.125   1.136  0.0000  0.0000  0.0000
13222SI     SI113222   7.118   1.728   0.403  0.0000  0.0000  0.0000
13223SI     SI113223   4.865   0.879   0.200  0.0000  0.0000  0.0000
13224SI     SI113224   5.855   4.273   0.534  0.0000  0.0000  0.0000
13225SI     SI113225   2.454   0.715   1.146  0.0000  0.0000  0.0000
13226SI     SI113226   2.942   2.370   0.403  0.0000  0.0000  0.0000
13227SI     SI113227   2.742   6.558   9.008  0.0000  0.0000  0.0000
13228SI     SI113228   8.917   6.398   9.007  0.0000  0.0000  0.0000
13229SI     SI113229   7.095   8.435   0.738  0.0000  0.0000  0.0000
13230SI     SI113230   2.231   3.298   1.337  0.0000  0.0000  0.0000
13231SI     SI113231   5.218   4.308   0.350  0.0000  0.0000  0.0000
13232SI     SI113232   5.860   1.504   0.797  0.0000  0.0000  0.0000
13233SI     SI113233   7.514   4.647   0.612  0.0000  0.0000  0.0000
13234SI     SI113234   2.175   8.436   0.596  0.0000  0.0000  0.0000
13235SI     SI113235   5.864   0.575   8.415  0.0000  0.0000  0.0000
13236SI     SI113236   8.492   8.282   8.862  0.0000  0.0000  0.0000
13237SI     SI113237   3.722   6.930   9.239  0.0000  0.0000  0.0000
13238SI     SI113238   0.630   9.314   8.786  0.0000  0.0000  0.0000
13239SI     SI113239   3.661   0.568   9.575  0.0000  0.0000  0.0000
13240SI     SI113240   4.649   2.547   8.550  0.0000  0.0000  0.0000
13241SI     SI113241   7.051   7.427   9.131  0.0000  0.0000  0.0000
13242SI     SI113242   8.342   4.133   8.297  0.0000  0.0000  0.0000
13243SI     SI113243   4.570   7.429   8.598  0.0000  0.0000  0.0000
13244SI     SI113244   4.295   0.523   9.194  0.0000  0.0000  0.0000
13245SI     SI113245   4.556   4.398   0.125  0.0000  0.0000  0.0000
13246SI     SI113246   0.479   8.177   8.371  0.0000  0.0000  0.0000
13247SI     SI113247   9.103   0.708   8.967  0.0000  0.0000  0.0000
13248SI     SI113248   1.352   5.843   0.947  0.0000  0.0000  0.0000
13249SI     SI113249   2.466   5.377   8.886  0.0000  0.0000  0.0000
13250SI     SI113250   2.535   4.281   9.352  0.0000  0.0000  0.0000
13251SI     SI113251   4.416   1.069   8.695  0.0000  0.0000  0.0000
13252SI     SI113252   0.689   4.684   0.546  0.0000  0.0000  0.0000
13253SI     SI113253   3.825   0.445   9.097  0.0000  0.0000  0.0000
13254SI     SI113254   0.713   4.055   9.050  0.0000  0.0000  0.0000
13255SI     SI113255   8.736   5.971   8.803  0.0000  0.0000  0.0000
13256SI     SI113256   2.060   9.391   9.117  0.0000  0.0000  0.0000
13257SI     SI113257   4.598   8.326   0.934  0.0000  0.0000  0.0000
13258SI     SI113258   7.289   0.286   9.372  0.0000  0.0000  0.0000
13259SI     SI113259   4.467   0.356   8.991  0.0000  0.0000  0.0000
13260SI     SI113260   7.995   7.013   8.852  0.0000  0.0000  0.0000
13261SI     SI113261   7.936   7.115   9.383  0.0000  0.0000  0.0000
13262SI     SI113262   8.595   5.211   9.076  0.0000  0.0000  0.0000
13263SI     SI113263   6.639   1.854   1.044  0.0000  0.0000  0.0000
13264SI     SI113264   3.780   2.692   9.413  0.0000  0.0000  0.0000
13265SI     SI113265   3.453   3.195   1.127  0.0000  0.0000  0.0000
13266SI     SI113266   0.211   2.431   9.240  0.0000  0.0000  0.0000
13267SI     SI113267   7.362   0.872   8.624  0.0000  0.0000  0.0000
13268SI     SI113268   5.180   2.986   0.315  0.0000  0.0000  0.0000
13269SI     SI113269   7.759   7.231   0.787  0.0000  0.0000  0.0000
13270SI     SI113270   1.733   9.158   8.800  0.0000  0.0000  0.0000
13271SI     SI113271   3.887   4.336   9.343  0.0000  0.0000  0.0000
13272SI     SI113272   9.238   9.254   9.133  0.0000  0.0000  0.0000
13273SI     SI113273   2.162   1.164   9.224  0.0000  0.0000  0.0000
13274SI     SI113274   1.528   6.155   9.425  0.0000  0.0000  0.0000
13275SI     SI113275   0.261   6.522   8.648  0.0000  0.0000  0.0000
13276SI     SI113276   2.181   7.935   0.544  0.0000  0.0000  0.0000
13277SI     SI113277   4.166   0.140   8.517  0.0000  0.0000  0.0000
13278SI     SI113278   0.055   2.727   9.538  0.0000  0.0000  0.0000
13279SI     SI113279   1.993   1.065   0.058  0.0000  0.0000  0.0000
13280SI     SI113280   1.854   0.133   0.260  0.0000  0.0000  0.0000
13281SI     SI113281   2.116   5.439   9.597  0.0000  0.0000  0.0000
13282SI     SI113282   7.481   1.272   0.714  0.0000  0.0000  0.0000
13283SI     SI113283   2.879   6.763   9.193  0.0000  0.0000  0.0000
13284SI     SI113284   1.541   5.143   0.429  0.0000  0.0000  0.0000
13285SI     SI113285   4.278   9.163   0.916  0.0000  0.0000  0.0000
13286SI     SI113286   1.305   2.309   0.131  0.0000  0.0000  0.0000
13287SI     SI113287   3.114   4.902   0.713  0.0000  0.0000  0.0000
13288SI     SI113288   6.404   0.608   8.725  0.0000  0.0000  0.0000
13289SI     SI113289   5.778   0.518   0.768  0.0000  0.0000  0.0000
13290SI     SI113290   1.698   5.591   1.108  0.0000  0.0000  0.0000
13291SI     SI113291   3.691   3.676   8.986  0.0000  0.0000  0.0000
13292SI     SI113292   7.798   5.442   8.442  0.0000  0.0000  0.0000
13293SI     SI113293   1.878   8.134   8.374  0.0000  0.0000  0.0000
13294SI     SI113294   2.249   6.319   0.377  0.0000  0.0000  0.0000
13295SI     SI113295   1.890   8.762   0.490  0.0000  0.0000  0.0000
13296SI     SI113296   7.908   6.582   1.217  0.0000  0.0000  0.0000
13297SI     SI113297   0.910   2.297   8.874  0.0000  0.0000  0.0000
13298SI     SI113298   9.421   6.314   9.145  0.0000  0.0000  0.0000
13299SI     SI113299   3.149   7.022   0.794  0.0000  0.0000  0.0000
13300SI     SI113300   5.424   1.938   8.377  0.0000  0.0000  0.0000
13301SI     SI113301   2.247   4.486   0.552  0.0000  0.0000  0.0000
13302SI     SI113302   4.827   2.473   0.536  0.0000  0.0000  0.0000
13303SI     SI113303   5.566   1.613   9.445  0.0000  0.0000  0.0000
13304SI     SI113304   4.432   5.813   8.642  0.0000  0.0000  0.0000
13305SI     SI113305   8.505   3.180   9.552  0.0000  0.0000  0.0000
13306SI     SI113306   6.802   3.379   8.387  0.0000  0.0000  0.0000
13307SI     SI113307   8.049   8.095   0.169  0.0000  0.0000  0.0000
13308SI     SI113308   9.150   3.446   9.531  0.0000  0.0000  0.0000
13309SI     SI113309   6.569   8.037   8.489  0.0000  0.0000  0.0000
13310SI     SI113310   5.107   0.660   8.402  0.0000  0.0000  0.0000
13311SI     SI113311   6.845   7.429   0.899  0.0000  0.0000  0.0000
13312SI     SI113312   8.141   3.151   9.410  0.0000  0.0000  0.0000
13313SI     SI113313   2.963   9.497   9.134  0.0000  0.0000  0.0000
13314SI     SI113314   2.432   7.380   8.624  0.0000  0.0000  0.0000
13315SI     SI113315   8.070   4.841   8.368  0.0000  0.0000  0.0000
13316SI     SI113316   8.146   0.586   0.153  0.0000  0.0000  0.0000
13317SI     SI113317   0.072   2.543   0.179  0.0000  0.0000  0.0000
13318SI     SI113318   3.587   8.146   0.247  0.0000  0.0000  0.0000
13319SI     SI113319   6.270   8.270   8.706  0.0000  0.0000  0.0000
13320SI     SI113320   4.455   3.346   0.697  0.0000  0.0000  0.0000
13321SI     SI113321   3.814   5.961   0.946  0.0000  0.0000  0.0000
13322SI     SI113322   6.952   2.711   0.618  0.0000  0.0000  0.0000
13323SI     SI113323   0.336   4.868   8.784  0.0000  0.0000  0.0000
13324SI     SI113324   8.499   0.835   0.468  0.0000  0.0000  0.0000
13325SI     SI113325   7.343   0.930   9.081  0.0000  0.0000  0.0000
13326SI     SI113326   4.706   3.021   0.378  0.0000  0.0000  0.0000
13327SI     SI113327   9.475   8.565   8.551  0.0000  0.0000  0.0000
13328SI     SI113328   3.946   4.179   0.618  0.0000  0.0000  0.0000
13329SI     SI113329   7.113   8.116   8.679  0.0000  0.0000  0.0000
13330SI     SI113330   5.319   7.329   0.193  0.0000  0.0000  0.0000
13331SI     SI113331   3.970   0.265   8.907  0.0000  0.0000  0.0000
13332SI     SI113332   1.384   4.187   0.691  0.0000  0.0000  0.0000
13333SI     SI113333   6.941   1.096   9.218  0.0000  0.0000  0.0000
13334SI     SI113334   9.076   4.642   1.464  0.0000  0.0000  0.0000
13335SI     SI113335   8.124   0.459   0.440  0.0000  0.0000  0.0000
13336SI     SI113336   3.891   7.581   1.258  0.0000  0.0000  0.0000
13337SI     SI113337   5.412   5.807   9.349  0.0000  0.0000  0.0000
13338SI     SI113338   1.356   3.310   1.268  0.0000  0.0000  0.0000
13339SI     SI113339   5.557   0.454   0.964  0.0000  0.0000  0.0000
13340SI     SI113340   6.313   3.810   8.357  0.0000  0.0000  0.0000
13341SI     SI113341   7.573   0.691   8.486  0.0000  0.0000  0.0000
13342SI     SI113342   6.431   9.350   0.279  0.0000  0.0000  0.0000
13343SI     SI113343   7.064   5.741   0.344  0.0000  0.0000  0.0000
13344SI     SI113344   8.904   3.549   1.077  0.0000  0.0000  0.0000
13345SI     SI113345   7.351   0.189   0.260  0.0000  0.0000  0.0000
13346SI     SI113346   2.818   8.683   8.373  0.0000  0.0000  0.0000
13347SI     SI113347   5.881   2.910   8.806  0.0000  0.0000  0.0000
13348SI     SI113348   1.516   5.048   8.661  0.0000  0.0000  0.0000
13349SI     SI113349   0.924   6.409   0.118  0.0000  0.0000  0.0000
13350SI     SI113350   3.796   2.900   0.887  0.0000  0.0000  0.0000
13351SI     SI113351   6.081   6.077   0.317  0.0000  0.0000  0.0000
13352SI     SI113352   2.065   7.632   0.006  0.0000  0.0000  0.0000
13353SI     SI113353   5.730   7.814   9.053  0.0000  0.0000  0.0000
13354SI     SI113354   2.301   1.566   0.679  0.0000  0.0000  0.0000
13355SI     SI113355   1.984   2.959   8.627  0.0000  0.0000  0.0000
13356SI     SI113356   1.814   3.878   0.129  0.0000  0.0000  0.0000
13357SI     SI113357   1.245   9.342   1.137  0.0000  0.0000  0.0000
13358SI     SI113358   5.150   5.503   9.117  0.0000  0.0000  0.0000
13359SI     SI113359   6.594   5.624   0.914  0.0000  0.0000  0.0000
13360SI     SI113360   3.319   5.730   0.200  0.0000  0.0000  0.0000
13361SI     SI113361   9.174   3.830   8.842  0.0000  0.0000  0.0000
13362SI     SI113362   0.316   0.065   8.932  0.0000  0.0000  0.0000
13363SI     SI113363   2.303   5.040   9.198  0.0000  0.0000  0.0000
13364SI     SI113364   2.102   3.993   8.774  0.0000  0.0000  0.0000
13365SI     SI113365   5.642   8.930   8.871  0.0000  0.0000  0.0000
13366SI     SI113366   3.916   4.602   1.434  0.0000  0.0000  0.0000
13367SI     SI113367   6.541   0.976   9.465  0.0000  0.0000  0.0000
13368SI     SI113368   3.155   5.387   9.534  0.0000  0.0000  0.0000
13369SI     SI113369   0.875   7.493   0.614  0.0000  0.0000  0.0000
13370SI     SI113370   1.935   6.156   1.033  0.0000  0.0000  0.0000
13371SI     SI113371   9.434   2.108   0.280  0.0000  0.0000  0.0000
13372SI     SI113372   1.583   5.290   0.813  0.0000  0.0000  0.0000
13373SI     SI113373   8.347   7.087   9.272  0.0000  0.0000  0.0000
13374SI     SI113374   9.181   4.280   8.980  0.0000  0.0000  0.0000
13375SI     SI113375   1.619   8.590   0.995  0.0000  0.0000  0.0000
13376SI     SI113376   4.983   2.344   0.305  0.0000  0.0000  0.0000
13377SI     SI113377   0.398   8.448   0.763  0.0000  0.0000  0.0000
13378SI     SI113378   1.464   7.770   0.468  0.0000  0.0000  0.0000
13379SI     SI113379   4.768   9.592   0.345  0.0000  0.0000  0.0000
13380SI     SI113380   7.849   0.367   9.542  0.0000  0.0000  0.0000
13381SI     SI113381   3.357   5.786   1.085  0.0000  0.0000  0.0000
13382SI     SI113382   2.825   7.075   1.257  0.0000  0.0000  0.0000
13383SI     SI113383   4.031   1.585   0.258  0.0000  0.0000  0.0000
13384SI     SI113384   8.121   3.756   1.060  0.0000  0.0000  0.0000
13385SI     SI113385   3.447   4.516   8.686  0.0000  0.0000  0.0000
13386SI     SI113386   5.671   9.153   1.349  0.0000  0.0000  0.0000
13387SI     SI113387   3.683   5.521   0.849  0.0000  0.0000  0.0000
13388SI     SI113388   1.853   8.968   0.935  0.0000  0.0000  0.0000
13389SI     SI113389   3.680   4.301   0.495  0.0000  0.0000  0.0000
13390SI     SI113390   6.627   3.803   9.023  0.0000  0.0000  0.0000
13391SI     SI113391   7.009   7.740   0.538  0.0000  0.0000  0.0000
13392SI     SI113392   6.253   3.056   1.241  0.0000  0.0000  0.0000
13393SI     SI113393   1.249   5.589   8.974  0.0000  0.0000  0.0000
13394SI     SI113394   5.891   3.160   1.406  0.0000  0.0000  0.0000
13395SI     SI113395   4.835   6.668   0.292  0.0000  0.0000  0.0000
13396SI     SI113396   5.695   0.824   9.039  0.0000  0.0000  0.0000
13397SI     SI113397   3.937   6.952   8.345  0.0000  0.0000  0.0000
13398SI     SI113398   4.961   3.311   0.004  0.0000  0.0000  0.0000
13399SI     SI113399   9.352   4.069   0.022  0.0000  0.0000  0.0000
13400SI     SI113400   8.524   9.349   8.458  0.0000  0.0000  0.0000
13401SI     SI113401   5.261   4.564   0.701  0.0000  0.0000  0.0000
13402SI     SI113402   6.810   8.901   9.308  0.0000  0.0000  0.0000
13403SI     SI113403   2.650   2.527   9.548  0.0000  0.0000  0.0000
13404SI     SI113404   4.222   5.671   8.327  0.0000  0.0000  0.0000
13405SI     SI113405   4.288   0.860   0.887  0.0000  0.0000  0.0000
13406SI     SI113406   2.746   2.642   0.689  0.0000  0.0000  0.0000
13407SI     SI113407   3.451   5.631   9.291  0.0000  0.0000  0.0000
13408SI     SI113408   5.012   8.527   8.238  0.0000  0.0000  0.0000
13409SI     SI113409   6.954   9.362   8.755  0.0000  0.0000  0.0000
13410SI     SI113410   4.839   1.338   0.023  0.0000  0.0000  0.0000
13411SI     SI113411   4.718   5.899   0.225  0.0000  0.0000  0.0000
13412SI     SI113412   1.402   9.566   9.046  0.0000  0.0000  0.0000
13413SI     SI113413   6.806   6.119   0.831  0.0000  0.0000  0.0000
13414SI     SI113414   6.648   8.710   8.535  0.0000  0.0000  0.0000
13415SI     SI113415   0.918   7.362   9.390  0.0000  0.0000  0.0000
13416SI     SI113416   0.071   6.753   1.419  0.0000  0.0000  0.0000
13417SI     SI113417   2.423   9.257   0.211  0.0000  0.0000  0.0000
13418SI     SI113418   3.897   8.305   0.566  0.0000  0.0000  0.0000
13419SI     SI113419   7.470   7.845   9.244  0.0000  0.0000  0.0000
13420SI     SI113420   7.161   5.211   9.534  0.0000  0.0000  0.0000
13421SI     SI113421   4.510   7.997   8.578  0.0000  0.0000  0.0000
13422SI     SI113422   6.195   2.780   8.964  0.0000  0.0000  0.0000
13423SI     SI113423   6.992   3.296   0.992  0.0000  0.0000  0.0000
13424SI     SI113424   2.809   6.450   1.255  0.0000  0.0000  0.0000
13425SI     SI113425   0.507   4.925   0.654  0.0000  0.0000  0.0000
13426SI     SI113426   0.500   2.675   9.599  0.0000  0.0000  0.0000
13427SI     SI113427   4.878   9.165   1.352  0.0000  0.0000  0.0000
13428SI     SI113428   0.035   2.852   9.032  0.0000  0.0000  0.0000
13429SI     SI113429   3.332   8.616   9.215  0.0000  0.0000  0.0000
13430SI     SI113430   2.344   1.384   8.760  0.0000  0.0000  0.0000
13431SI     SI113431   5.619   0.600   9.241  0.0000  0.0000  0.0000
13432SI     SI113432   2.736   5.362   9.255  0.0000  0.0000  0.0000
13433SI     SI113433   8.235   1.952   0.364  0.0000  0.0000  0.0000
13434SI     SI113434   8.755   5.612   0.683  0.0000  0.0000  0.0000
13435SI     SI113435   7.636   7.781   8.358  0.0000  0.0000  0.0000
13436SI     SI113436   3.490   4.852   9.499  0.0000  0.0000  0.0000
13437SI     SI113437   3.359   1.677   0.907  0.0000  0.0000  0.0000
13438SI     SI113438   1.473   1.504   1.306  0.0000  0.0000  0.0000
13439SI     SI113439   4.019   6.744   1.083  0.0000  0.0000  0.0000
13440SI     SI113440   9.520   3.184   9.390  0.0000  0.0000  0.0000
13441SI     SI113441   4.685   6.794   1.120  0.0000  0.0000  0.0000
13442SI     SI113442   1.033   9.295   9.349  0.0000  0.0000  0.0000
13443SI     SI113443   0.965   9.465   9.093  0.0000  0.0000  0.0000
13444SI     SI113444   5.337   8.706   0.700  0.0000  0.0000  0.0000
13445SI     SI113445   6.053   1.314   0.641  0.0000  0.0000  0.0000
13446SI     SI113446   6.621   5.129   8.619  0.0000  0.0000  0.0000
13447SI     SI113447   4.127   8.304   8.790  0.0000  0.0000  0.0000
13448SI     SI113448   8.344   7.475   1.261  0.0000  0.0000  0.0000
13449SI     SI113449   7.381   6.861   1.135  0.0000  0.0000  0.0000
13450SI     SI113450   0.438   6.333   8.798  0.0000  0.0000  0.0000
13451SI     SI113451   8.038   9.319   9.339  0.0000  0.0000  0.0000
13452SI     SI113452   6.726   4.436   0.103  0.0000  0.0000  0.0000
13453SI     SI113453   8.673   0.125   9.342  0.0000  0.0000  0.0000
13454SI     SI113454   4.429   3.470   8.388  0.0000  0.0000  0.0000
13455SI     SI113455   0.912   0.893   9.119  0.0000  0.0000  0.0000
13456SI     SI113456   4.364   0.005   0.851  0.0000  0.0000  0.0000
13457SI     SI113457   3.887   9.599   8.572  0.0000  0.0000  0.0000
13458SI     SI113458   4.905   8.255   8.306  0.0000  0.0000  0.0000
13459SI     SI113459   1.374   9.590   9.532  0.0000  0.0000  0.0000
13460SI     SI113460   8.867   7.422   8.823  0.0000  0.0000  0.0000
13461SI     SI113461   4.097   3.401   9.232  0.0000  0.0000  0.0000
13462SI     SI113462   9.251   4.431   1.326  0.0000  0.0000  0.0000
13463SI     SI113463   4.722   4.640   0.528  0.0000  0.0000  0.0000
13464SI     SI113464   8.703   8.847   8.271  0.0000  0.0000  0.0000
13465SI     SI113465   7.424   4.865   8.966  0.0000  0.0000  0.0000
13466SI     SI113466   0.050   7.655   8.461  0.0000  0.0000  0.0000
13467SI     SI113467   6.188   2.386   0.416  0.0000  0.0000  0.0000
13468SI     SI113468   7.781   8.237   9.413  0.0000  0.0000  0.0000
13469SI     SI113469   3.656   8.789   9.496  0.0000  0.0000  0.0000
13470SI     SI113470   6.220   4.178   9.246  0.0000  0.0000  0.0000
13471SI     SI113471   3.494   1.402   0.947  0.0000  0.0000  0.0000
13472SI     SI113472   2.760   4.435   0.575  0.0000  0.0000  0.0000
13473SI     SI113473   2.451   3.919   8.441  0.0000  0.0000  0.0000
13474SI     SI113474   0.666   9.484   9.032  0.0000  0.0000  0.0000
13475SI     SI113475   9.079   7.655   0.175  0.0000  0.0000  0.0000
13476SI     SI113476   8.180   2.588   8.395  0.0000  0.0000  0.0000
13477SI     SI113477   1.162   5.108   9.514  0.0000  0.0000  0.0000
13478SI     SI113478   7.915   5.703   1.225  0.0000  0.0000  0.0000
13479SI     SI113479   8.327   9.581   8.510  0.0000  0.0000  0.0000
13480SI     SI113480   0.363   1.931   8.657  0.0000  0.0000  0.0000
13481SI     SI113481   7.287   8.592   8.659  0.0000  0.0000  0.0000
13482SI     SI113482   5.507   7.885   1.067  0.0000  0.0000  0.0000
13483SI     SI113483   7.634   5.888   0.721  0.0000  0.0000  0.0000
13484SI     SI113484   6.627   4.565   8.765  0.0000  0.0000  0.0000
13485SI     SI113485   3.671   3.466   9.517  0.0000  0.0000  0.0000
13486SI     SI113486   5.782   1.140   1.139  0.0000  0.0000  0.0000
13487SI     SI113487   4.789   8.655   0.544  0.0000  0.0000  0.0000
13488SI     SI113488   9.503   3.256   0.566  0.0000  0.0000  0.0000
13489SI     SI113489   5.586   8.752   9.536  0.0000  0.0000  0.0000
13490SI     SI113490   0.833   3.503   1.166  0.0000  0.0000  0.0000
13491SI     SI113491   2.565   9.050   1.148  0.0000  0.0000  0.0000
13492SI     SI113492   9.030   7.601   8.630  0.0000  0.0000  0.0000
13493SI     SI113493   7.305   5.425   8.252  0.0000  0.0000  0.0000
13494SI     SI113494   7.522   2.307   0.370  0.0000  0.0000  0.0000
13495SI     SI113495   5.203   0.189   8.638  0.0000  0.0000  0.0000
13496SI     SI113496   8.452   5.888   8.456  0.0000  0.0000  0.0000
13497SI     SI113497   1.499   2.131   9.182  0.0000  0.0000  0.0000
13498SI     SI113498   9.376   9.064   0.824  0.0000  0.0000  0.0000
13499SI     SI113499   4.108   4.017   0.418  0.0000  0.0000  0.0000
13500SI     SI113500   6.071   7.245   9.185  0.0000  0.0000  0.0000
13501SI     SI113501   5.653   6.879   0.294  0.0000  0.0000  0.0000
13502SI     SI113502   6.274   7.352   0.091  0.0000  0.0000  0.0000
13503SI     SI113503   6.122   5.763   0.327  0.0000  0.0000  0.0000
13504SI     SI113504   4.842   3.550   0.147  0.0000  0.0000  0.0000
13505SI     SI113505   7.679   4.167   0.231  0.0000  0.0000  0.0000
13506SI     SI113506   5.740   1.923   1.134  0.0000  0.0000  0.0000
13507SI     SI113507   9.028   8.282   9.506  0.0000  0.0000  0.0000
13508SI     SI113508   5.390   1.290   1.044  0.0000  0.0000  0.0000
13509SI     SI113509   2.089   3.338   8.367  0.0000  0.0000  0.0000
13510SI     SI113510   6.677   7.214   9.471  0.0000  0.0000  0.0000
13511SI     SI113511   6.388   5.952   1.405  0.0000  0.0000  0.0000
13512SI     SI113512   5.351   6.564   0.146  0.0000  0.0000  0.0000
13513SI     SI113513   4.390   8.267   8.967  0.0000  0.0000  0.0000
13514SI     SI113514   9.417   2.613   9.392  0.0000  0.0000  0.0000
13515SI     SI113515   8.052   8.189   0.623  0.0000  0.0000  0.0000
13516SI     SI113516   2.596   7.633   0.815  0.0000  0.0000  0.0000
13517SI     SI113517   8.195   8.896   9.457  0.0000  0.0000  0.0000
13518SI     SI113518   2.121   5.936   8.207  0.0000  0.0000  0.0000
13519SI     SI113519   6.003   1.771   0.693  0.0000  0.0000  0.0000
13520SI     SI113520   5.580   1.568   0.663  0.0000  0.0000  0.0000
13521SI     SI113521   9.568   5.921   0.940  0.0000  0.0000  0.0000
13522SI     SI113522   1.120   3.829   8.709  0.0000  0.0000  0.0000
13523SI     SI113523   2.066   1.193   0.571  0.0000  0.0000  0.0000
13524SI     SI113524   6.868   5.396   9.051  0.0000  0.0000  0.0000
13525SI     SI113525   6.859   9.346   9.329  0.0000  0.0000  0.0000
13526SI     SI113526   5.110   8.941   0.016  0.0000  0.0000  0.0000
13527SI     SI113527   1.744   7.688   0.370  0.0000  0.0000  0.0000
13528SI     SI113528   0.902   4.469   8.925  0.0000  0.0000  0.0000
13529SI     SI113529   5.997   5.022   8.494  0.0000  0.0000  0.0000
13530SI     SI113530   3.736   8.096   8.696  0.0000  0.0000  0.0000
13531SI     SI113531   7.521   6.878   8.983  0.0000  0.0000  0.0000
13532SI     SI113532   6.612   7.525   9.438  0.0000  0.0000  0.0000
13533SI     SI113533   3.196   5.117   0.928  0.0000  0.0000  0.0000
13534SI     SI113534   7.204   8.366   8.266  0.0000  0.0000  0.0000
13535SI     SI113535   4.565   0.951   0.252  0.0000  0.0000  0.0000
13536SI     SI113536   5.356   0.546   8.273  0.0000  0.0000  0.0000
13537SI     SI113537   7.274   3.579   8.196  0.0000  0.0000  0.0000
13538SI     SI113538   4.374   2.415   0.175  0.0000  0.0000  0.0000
13539SI     SI113539   9.417   0.974   9.488  0.0000  0.0000  0.0000
13540SI     SI113540   5.125   0.498   1.247  0.0000  0.0000  0.0000
13541SI     SI113541   1.607   5.877   9.524  0.0000  0.0000  0.0000
13542SI     SI113542   8.198   8.687   8.872  0.0000  0.0000  0.0000
13543SI     SI113543   7.584   8.993   8.445  0.0000  0.0000  0.0000
13544SI     SI113544   1.745   3.319   8.678  0.0000  0.0000  0.0000
13545SI     SI113545   0.082   0.855   9.577  0.0000  0.0000  0.0000
13546SI     SI113546   5.790   8.812   0.453  0.0000  0.0000  0.0000
13547SI     SI113547   7.532   2.513   8.929  0.0000  0.0000  0.0000
13548SI     SI113548   7.576   2.234   8.428  0.0000  0.0000  0.0000
13549SI     SI113549   2.139   0.498   0.903  0.0000  0.0000  0.0000
13550SI     SI113550   0.886   1.559   9.504  0.0000  0.0000  0.0000
13551SI     SI113551   1.122   3.664   9.403  0.0000  0.0000  0.0000
13552SI     SI113552   2.157   5.040   8.314  0.0000  0.0000  0.0000
13553SI     SI113553   6.168   2.293   1.082  0.0000  0.0000  0.0000
13554SI     SI113554   2.764   9.116   9.330  0.0000  0.0000  0.0000
13555SI     SI113555   8.139   7.715   0.483  0.0000  0.0000  0.0000
13556SI     SI113556   3.449   9.173   0.088  0.0000  0.0000  0.0000
13557SI     SI113557   7.823   8.932   8.637  0.0000  0.0000  0.0000
13558SI     SI113558   5.963   5.235   9.204  0.0000  0.0000  0.0000
13559SI     SI113559   7.047   2.909   8.364  0.0000  0.0000  0.0000
13560SI     SI113560   6.147   8.455   0.850  0.0000  0.0000  0.0000
13561SI     SI113561   1.287   6.433   1.157  0.0000  0.0000  0.0000
13562SI     SI113562   6.443   3.175   1.040  0.0000  0.0000  0.0000
13563SI     SI113563   3.458   5.967   8.924  0.0000  0.0000  0.0000
13564SI     SI113564   1.683   2.443   0.535  0.0000  0.0000  0.0000
13565SI     SI113565   4.044   0.747   8.841  0.0000  0.0000  0.0000
13566SI     SI113566   3.177   2.526   0.531  0.0000  0.0000  0.0000
13567SI     SI113567   7.747   3.627   8.301  0.0000  0.0000  0.0000
13568SI     SI113568   7.109   2.873   9.053  0.0000  0.0000  0.0000
13569SI     SI113569   7.091   6.310   9.208  0.0000  0.0000  0.0000
13570SI     SI113570   3.713   7.369   0.855  0.0000  0.0000  0.0000
13571SI     SI113571   4.882   2.860   9.523  0.0000  0.0000  0.0000
13572SI     SI113572   2.738   6.514   0.021  0.0000  0.0000  0.0000
13573SI     SI113573   2.954   9.392   1.021  0.0000  0.0000  0.0000
13574SI     SI113574   1.824   6.497   9.206  0.0000  0.0000  0.0000
13575SI     SI113575   6.599   6.753   8.470  0.0000  0.0000  0.0000
13576SI     SI113576   4.943   2.208   0.952  0.0000  0.0000  0.0000
13577SI     SI113577   7.613   3.684   0.936  0.0000  0.0000  0.0000
13578SI     SI113578   3.459   8.935   8.557  0.0000  0.0000  0.0000
13579SI     SI113579   6.596   0.853   8.726  0.0000  0.0000  0.0000
13580SI     SI113580   5.079   9.048   0.486  0.0000  0.0000  0.0000
13581SI     SI113581   7.441   4.727   9.466  0.0000  0.0000  0.0000
13582SI     SI113582   8.186   0.313   8.748  0.0000  0.0000  0.0000
13583SI     SI113583   0.745   2.467   9.256  0.0000  0.0000  0.0000
13584SI     SI113584   3.850   8.066   0.388  0.0000  0.0000  0.0000
13585SI     SI113585   2.042   9.207   0.872  0.0000  0.0000  0.0000
13586SI     SI113586   5.141   5.957   1.007  0.0000  0.0000  0.0000
13587SI     SI113587   2.076   1.193   8.413  0.0000  0.0000  0.0000
13588SI     SI113588   6.557   3.746   8.191  0.0000  0.0000  0.0000
13589SI     SI113589   6.640   6.681   9.579  0.0000  0.0000  0.0000
13590SI     SI113590   7.025   2.249   1.006  0.0000  0.0000  0.0000
13591SI     SI113591   0.630   4.802   8.314  0.0000  0.0000  0.0000
13592SI     SI113592   6.938   0.231   1.225  0.0000  0.0000  0.0000
13593SI     SI113593   0.675   5.670   9.178  0.0000  0.0000  0.0000
13594SI     SI113594   6.501   5.713   9.038  0.0000  0.0000  0.0000
13595SI     SI113595   6.907   2.292   8.530  0.0000  0.0000  0.0000
13596SI     SI113596   0.222   1.480   0.599  0.0000  0.0000  0.0000
13597SI     SI113597   8.911   4.758   1.222  0.0000  0.0000  0.0000
13598SI     SI113598   8.112   8.398   0.077  0.0000  0.0000  0.0000
13599SI     SI113599   3.350   3.243   9.310  0.0000  0.0000  0.0000
13600SI     SI113600   9.581   3.887   0.606  0.0000  0.0000  0.0000
13601SI     SI113601   5.099   7.640   8.880  0.0000  0.0000  0.0000
13602SI     SI113602   5.165   6.108   0.071  0.0000  0.0000  0.0000
13603SI     SI113603   3.112   5.695   9.567  0.0000  0.0000  0.0000
13604SI     SI113604   0.109   8.560   0.785  0.0000  0.0000  0.0000
13605SI     SI113605   8.136   1.178   1.292  0.0000  0.0000  0.0000
13606SI     SI113606   7.501   8.499   0.936  0.0000  0.0000  0.0000
13607SI     SI113607   2.166   2.906   0.819  0.0000  0.0000  0.0000
13608SI     SI113608   2.557   3.162   8.381  0.0000  0.0000  0.0000
13609SI     SI113609   2.543   1.754   1.208  0.0000  0.0000  0.0000
13610SI     SI113610   6.187   1.065   0.790  0.0000  0.0000  0.0000
13611SI     SI113611   1.374   7.283   8.355  0.0000  0.0000  0.0000
13612SI     SI113612   2.605   9.554   0.409  0.0000  0.0000  0.0000
13613SI     SI113613   0.048   5.209   9.010  0.0000  0.0000  0.0000
13614SI     SI113614   8.015   8.265   8.216  0.0000  0.0000  0.0000
13615SI     SI113615   8.639   9.036   8.877  0.0000  0.0000  0.0000
13616SI     SI113616   4.394   6.128   0.143  0.0000  0.0000  0.0000
13617SI     SI113617   6.156   5.701   0.922  0.0000  0.0000  0.0000
13618SI     SI113618   2.273   8.868   0.829  0.0000  0.0000  0.0000
13619SI     SI113619   0.164   0.514   1.172  0.0000  0.0000  0.0000
13620SI     SI113620   0.995   4.493   0.069  0.0000  0.0000  0.0000
13621SI     SI113621   3.552   1.694   9.550  0.0000  0.0000  0.0000
13622SI     SI113622   2.902   6.939   0.614  0.0000  0.0000  0.0000
13623SI     SI113623   3.728   0.887   9.110  0.0000  0.0000  0.0000
13624SI     SI113624   0.932   2.582   0.914  0.0000  0.0000  0.0000
13625SI     SI113625   6.269   5.606   1.182  0.0000  0.0000  0.0000
13626SI     SI113626   9.138   6.990   0.114  0.0000  0.0000  0.0000
13627SI     SI113627   0.717   0.814   8.644  0.0000  0.0000  0.0000
13628SI     SI113628   7.100   7.226   0.555  0.0000  0.0000  0.0000
13629SI     SI113629   7.780   4.009   9.000  0.0000  0.0000  0.0000
13630SI     SI113630   3.658   3.274   0.159  0.0000  0.0000  0.0000
13631SI     SI113631   3.361   5.676   8.599  0.0000  0.0000  0.0000
13632SI     SI113632   1.026   1.107   9.323  0.0000  0.0000  0.0000
13633SI     SI113633   2.591   9.100   8.883  0.0000  0.0000  0.0000
13634SI     SI113634   4.285   6.600   1.052  0.0000  0.0000  0.0000
13635SI     SI113635   4.337   3.417   1.124  0.0000  0.0000  0.0000
13636SI     SI113636   5.022   0.106   8.401  0.0000  0.0000  0.0000
13637SI     SI113637   2.499   2.691   0.332  0.0000  0.0000  0.0000
13638SI     SI113638   3.341   2.842   8.682  0.0000  0.0000  0.0000
13639SI     SI113639   1.650   5.348   8.181  0.0000  0.0000  0.0000
13640SI     SI113640   6.610   2.161   0.220  0.0000  0.0000  0.0000
13641SI     SI113641   5.247   3.267   0.412  0.0000  0.0000  0.0000
13642SI     SI113642   7.144   2.428   8.372  0.0000  0.0000  0.0000
13643SI     SI113643   3.416   6.176   8.439  0.0000  0.0000  0.0000
13644SI     SI113644   2.889   1.626   9.127  0.0000  0.0000  0.0000
13645SI     SI113645   1.771   2.741   0.465  0.0000  0.0000  0.0000
13646SI     SI113646   1.157   5.176   0.755  0.0000  0.0000  0.0000
13647SI     SI113647   8.718   4.393   0.284  0.0000  0.0000  0.0000
13648SI     SI113648   3.357   6.667   8.756  0.0000  0.0000  0.0000
13649SI     SI113649   3.622   3.494   0.811  0.0000  0.0000  0.0000
13650SI     SI113650   0.805   9.114   9.455  0.0000  0.0000  0.0000
13651SI     SI113651   7.632   3.466   8.949  0.0000  0.0000  0.0000
13652SI     SI113652   0.239   0.111   9.239  0.0000  0.0000  0.0000
13653SI     SI113653   4.463   7.871   9.266  0.0000  0.0000  0.0000
13654SI     SI113654   8.949   9.478   1.003  0.0000  0.0000  0.0000
13655SI     SI113655   2.430   4.601   0.945  0.0000  0.0000  0.0000
13656SI     SI113656   1.019   0.858   0.552  0.0000  0.0000  0.0000
13657SI     SI113657   3.390   7.269   9.594  0.0000  0.0000  0.0000
13658SI     SI113658   3.304   2.279   0.923  0.0000  0.0000  0.0000
13659SI     SI113659   3.058   4.441   0.589  0.0000  0.0000  0.0000
13660SI     SI113660   0.652   3.039   1.139  0.0000  0.0000  0.0000
13661SI     SI113661   7.441   2.251   9.340  0.0000  0.0000  0.0000
13662SI     SI113662   9.121   2.303   9.097  0.0000  0.0000  0.0000
13663SI     SI113663   7.397   3.650   0.210  0.0000  0.0000  0.0000
13664SI     SI113664   6.631   0.296   0.488  0.0000  0.0000  0.0000
13665SI     SI113665   4.730   4.801   8.421  0.0000  0.0000  0.0000
13666SI     SI113666   2.390   8.596   0.760  0.0000  0.0000  0.0000
13667SI     SI113667   3.030   7.855   8.249  0.0000  0.0000  0.0000
13668SI     SI113668   4.673   5.919   9.353  0.0000  0.0000  0.0000
13669SI     SI113669   2.739   1.443   0.683  0.0000  0.0000  0.0000
13670SI     SI113670   3.286   0.868   1.001  0.0000  0.0000  0.0000
13671SI     SI113671   4.027   8.820   1.027  0.0000  0.0000  0.0000
13672SI     SI113672   8.381   1.290   0.077  0.0000  0.0000  0.0000
13673SI     SI113673   1.456   5.987   1.198  0.0000  0.0000  0.0000
13674SI     SI113674   3.251   7.308   0.732  0.0000  0.0000  0.0000
13675SI     SI113675   7.132   2.543   1.037  0.0000  0.0000  0.0000
13676SI     SI113676   1.691   6.840   0.869  0.0000  0.0000  0.0000
13677SI     SI113677   0.056   5.262   0.435  0.0000  0.0000  0.0000
13678SI     SI113678   8.520   4.407   1.208  0.0000  0.0000  0.0000
13679SI     SI113679   6.659   7.662   0.830  0.0000  0.0000  0.0000
13680SI     SI113680   6.906   9.537   0.929  0.0000  0.0000  0.0000
13681SI     SI113681   1.280   7.128   9.413  0.0000  0.0000  0.0000
13682SI     SI113682   2.169   3.704   8.796  0.0000  0.0000  0.0000
13683SI     SI113683   3.577   4.542   0.675  0.0000  0.0000  0.0000
13684SI     SI113684   1.645   6.734   8.850  0.0000  0.0000  0.0000
13685SI     SI113685   2.199   7.015   0.760  0.0000  0.0000  0.0000
13686SI     SI113686   1.407   5.721   0.036  0.0000  0.0000  0.0000
13687SI     SI113687   5.071   6.312   8.915  0.0000  0.0000  0.0000
13688SI     SI113688   1.152   1.861   1.255  0.0000  0.0000  0.0000
13689SI     SI113689   0.551   9.280   0.307  0.0000  0.0000  0.0000
13690SI     SI113690   7.642   9.158   0.223  0.0000  0.0000  0.0000
13691SI     SI113691   7.947   6.929   0.278  0.0000  0.0000  0.0000
13692SI     SI113692   2.571   0.247   0.899  0.0000  0.0000  0.0000
13693SI     SI113693   1.345   1.601   0.374  0.0000  0.0000  0.0000
13694SI     SI113694   1.557   6.901   0.447  0.0000  0.0000  0.0000
13695SI     SI113695   4.119   6.777   9.060  0.0000  0.0000  0.0000
13696SI     SI113696   5.529   8.695   9.002  0.0000  0.0000  0.0000
13697SI     SI113697   9.125   4.634   0.379  0.0000  0.0000  0.0000
13698SI     SI113698   5.870   9.411   8.520  0.0000  0.0000  0.0000
13699SI     SI113699   1.829   1.383   0.654  0.0000  0.0000  0.0000
13700SI     SI113700   2.301   4.996   8.567  0.0000  0.0000  0.0000
13701SI     SI113701   2.156   7.748   8.672  0.0000  0.0000  0.0000
13702SI     SI113702   5.183   0.722   9.531  0.0000  0.0000  0.0000
13703SI     SI113703   6.814   0.057   9.341  0.0000  0.0000  0.0000
13704SI     SI113704   5.438   5.946   0.025  0.0000  0.0000  0.0000
13705SI     SI113705   4.558   7.072   8.853  0.0000  0.0000  0.0000
13706SI     SI113706   1.264   5.619   8.427  0.0000  0.0000  0.0000
13707SI     SI113707   6.618   3.534   9.366  0.0000  0.0000  0.0000
13708SI     SI113708   0.741   3.352   9.246  0.0000  0.0000  0.0000
13709SI     SI113709   6.469   1.026   8.959  0.0000  0.0000  0.0000
13710SI     SI113710   3.687   1.609   1.092  0.0000  0.0000  0.0000
13711SI     SI113711   3.399   0.337   0.873  0.0000  0.0000  0.0000
13712SI     SI113712   6.471   4.888   9.486  0.0000  0.0000  0.0000
13713SI     SI113713   4.224   6.831   8.788  0.0000  0.0000  0.0000
13714SI     SI113714   9.023   3.480   8.519  0.0000  0.0000  0.0000
13715SI     SI113715   2.422   5.181   0.430  0.0000  0.0000  0.0000
13716SI     SI113716   6.836   7.409   0.207  0.0000  0.0000  0.0000
13717SI     SI113717   9.033   1.794   0.795  0.0000  0.0000  0.0000
13718SI     SI113718   8.541   3.696   1.244  0.0000  0.0000  0.0000
13719SI     SI113719   4.859   1.830   0.237  0.0000  0.0000  0.0000
13720SI     SI113720   3.474   6.174   9.450  0.0000  0.0000  0.0000
13721SI     SI113721   4.826   4.736   0.244  0.0000  0.0000  0.0000
13722SI     SI113722   9.214   1.218   9.141  0.0000  0.0000  0.0000
13723SI     SI113723   7.826   9.040   1.006  0.0000  0.0000  0.0000
13724SI     SI113724   1.272   3.152   0.449  0.0000  0.0000  0.0000
13725SI     SI113725   9.054   3.337   8.991  0.0000  0.0000  0.0000
13726SI     SI113726   2.216   4.534   9.523  0.0000  0.0000  0.0000
13727SI     SI113727   3.514   1.924   9.156  0.0000  0.0000  0.0000
13728SI     SI113728   6.966   8.619   8.870  0.0000  0.0000  0.0000
13729SI     SI113729   0.159   3.684   0.764  0.0000  0.0000  0.0000
13730SI     SI113730   4.561   3.437   9.305  0.0000  0.0000  0.0000
13731SI     SI113731   2.548   6.673   0.490  0.0000  0.0000  0.0000
13732SI     SI113732   9.185   9.318   0.475  0.0000  0.0000  0.0000
13733SI     SI113733   0.116   6.768   8.388  0.0000  0.0000  0.0000
13734SI     SI113734   2.610   7.256   1.110  0.0000  0.0000  0.0000
13735SI     SI113735   1.387   2.310   0.880  0.0000  0.0000  0.0000
13736SI     SI113736   5.124   0.201   9.535  0.0000  0.0000  0.0000
13737SI     SI113737   6.588   1.272   9.528  0.0000  0.0000  0.0000
13738SI     SI113738   1.856   8.339   9.294  0.0000  0.0000  0.0000
13739SI     SI113739   3.845   1.462   8.695  0.0000  0.0000  0.0000
13740SI     SI113740   2.160   4.450   0.854  0.0000  0.0000  0.0000
13741SI     SI113741   3.569   7.873   8.568  0.0000  0.0000  0.0000
13742SI     SI113742   5.491   7.490   8.484  0.0000  0.0000  0.0000
13743SI     SI113743   1.624   3.763   8.445  0.0000  0.0000  0.0000
13744SI     SI113744   5.039   2.652   9.357  0.0000  0.0000  0.0000
13745SI     SI113745   1.768   6.272   8.184  0.0000  0.0000  0.0000
13746SI     SI113746   0.110   7.845   8.707  0.0000  0.0000  0.0000
13747SI     SI113747   0.583   0.006   9.538  0.0000  0.0000  0.0000
13748SI     SI113748   6.410   0.927   8.269  0.0000  0.0000  0.0000
13749SI     SI113749   4.304   2.332   1.003  0.0000  0.0000  0.0000
13750SI     SI113750   6.934   8.860   9.586  0.0000  0.0000  0.0000
13751SI     SI113751   0.549   3.531   9.061  0.0000  0.0000  0.0000
13752SI     SI113752   1.722   8.257   8.622  0.0000  0.0000  0.0000
13753SI     SI113753   3.280   3.056   8.453  0.0000  0.0000  0.0000
13754SI     SI113754   9.574   5.497   0.060  0.0000  0.0000  0.0000
13755SI     SI113755   2.074   7.852   9.389  0.0000  0.0000  0.0000
13756SI     SI113756   0.891   3.296   0.753  0.0000  0.0000  0.0000
13757SI     SI113757   7.628   0.007   8.494  0.0000  0.0000  0.0000
13758SI     SI113758   9.369   7.230   0.838  0.0000  0.0000  0.0000
13759SI     SI113759   9.467   6.756   0.440  0.0000  0.0000  0.0000
13760SI     SI113760   6.565   8.847   0.217  0.0000  0.0000  0.0000
13761SI     SI113761   0.393   5.424   0.940  0.0000  0.0000  0.0000
13762SI     SI113762   0.238   6.487   8.363  0.0000  0.0000  0.0000
13763SI     SI113763   6.772   1.205   0.395  0.0000  0.0000  0.0000
13764SI     SI113764   5.722   3.712   9.301  0.0000  0.0000  0.0000
13765SI     SI113765   8.732   2.519   1.252  0.0000  0.0000  0.0000
13766SI     SI113766   6.429   6.457   9.548  0.0000  0.0000  0.0000
13767SI     SI113767   2.781   8.444   0.455  0.0000  0.0000  0.0000
13768SI     SI113768   3.281   8.407   8.979  0.0000  0.0000  0.0000
13769SI     SI113769   6.653   7.587   8.247  0.0000  0.0000  0.0000
13770SI     SI113770   8.385   1.108   0.558  0.0000  0.0000  0.0000
13771SI     SI113771   0.407   3.380   1.286  0.0000  0.0000  0.0000
13772SI     SI113772   0.922   5.728   9.357  0.0000  0.0000  0.0000
13773SI     SI113773   9.259   5.141   0.003  0.0000  0.0000  0.0000
13774SI     SI113774   6.899   5.518   8.478  0.0000  0.0000  0.0000
13775SI     SI113775   8.556   4.661   0.346  0.0000  0.0000  0.0000
13776SI     SI113776   0.933   7.396   8.842  0.0000  0.0000  0.0000
13777SI     SI113777   9.227   8.108   0.242  0.0000  0.0000  0.0000
13778SI     SI113778   3.082   4.786   9.566  0.0000  0.0000  0.0000
13779SI     SI113779   9.215   9.465   1.143  0.0000  0.0000  0.0000
13780SI     SI113780   7.233   0.297   0.749  0.0000  0.0000  0.0000
13781SI     SI113781   0.678   1.596   0.807  0.0000  0.0000  0.0000
13782SI     SI113782   9.173   2.592   8.328  0.0000  0.0000  0.0000
13783SI     SI113783   9.358   3.263   0.297  0.0000  0.0000  0.0000
13784SI     SI113784   7.063   9.090   0.395  0.0000  0.0000  0.0000
13785SI     SI113785   3.373   1.008   0.729  0.0000  0.0000  0.0000
13786SI     SI113786   2.002   5.531   1.120  0.0000  0.0000  0.0000
13787SI     SI113787   3.796   2.383   9.017  0.0000  0.0000  0.0000
13788SI     SI113788   7.040   2.257   0.268  0.0000  0.0000  0.0000
13789SI     SI113789   6.997   5.787   9.277  0.0000  0.0000  0.0000
13790SI     SI113790   5.953   9.024   1.280  0.0000  0.0000  0.0000
13791SI     SI113791   8.250   7.213   0.658  0.0000  0.0000  0.0000
13792SI     SI113792   2.087   4.086   0.691  0.0000  0.0000  0.0000
13793SI     SI113793   2.115   6.554   0.756  0.0000  0.0000  0.0000
13794SI     SI113794   3.171   4.229   0.248  0.0000  0.0000  0.0000
13795SI     SI113795   5.292   3.458   8.388  0.0000  0.0000  0.0000
13796SI     SI113796   5.826   1.755   8.269  0.0000  0.0000  0.0000
13797SI     SI113797   8.896   8.561   8.997  0.0000  0.0000  0.0000
13798SI     SI113798   3.318   4.753   8.984  0.0000  0.0000  0.0000
13799SI     SI113799   3.906   4.979   8.830  0.0000  0.0000  0.0000
13800SI     SI113800   6.056   3.157   9.290  0.0000  0.0000  0.0000
13801SI     SI113801   7.808   1.092   9.330  0.0000  0.0000  0.0000
13802SI     SI113802   2.564   0.440   8.343  0.0000  0.0000  0.0000
13803SI     SI113803   4.961   4.146   0.346  0.0000  0.0000  0.0000
13804SI     SI113804   0.876   4.014   0.898  0.0000  0.0000  0.0000
13805SI     SI113805   8.810   4.510   0.011  0.0000  0.0000  0.0000
13806SI     SI113806   5.671   2.412   0.179  0.0000  0.0000  0.0000
13807SI     SI113807   3.496   4.008   1.052  0.0000  0.0000  0.0000
13808SI     SI113808   8.193   1.636   8.207  0.0000  0.0000  0.0000
13809SI     SI113809   5.501   3.802   8.783  0.0000  0.0000  0.0000
13810SI     SI113810   9.372   5.279   8.573  0.0000  0.0000  0.0000
13811SI     SI113811   2.208   3.596   0.659  0.0000  0.0000  0.0000
13812SI     SI113812   7.508   7.614   9.054  0.0000  0.0000  0.0000
13813SI     SI113813   0.580   4.619   9.584  0.0000  0.0000  0.0000
13814SI     SI113814   7.783   5.629   8.889  0.0000  0.0000  0.0000
13815SI     SI113815   5.121   0.674   0.990  0.0000  0.0000  0.0000
13816SI     SI113816   2.592   4.050   9.529  0.0000  0.0000  0.0000
13817SI     SI113817   2.722   4.668   8.964  0.0000  0.0000  0.0000
13818SI     SI113818   2.416   1.461   8.459  0.0000  0.0000  0.0000
13819SI     SI113819   3.929   5.126   0.846  0.0000  0.0000  0.0000
13820SI     SI113820   6.361   9.413   8.491  0.0000  0.0000  0.0000
13821SI     SI113821   5.234   4.424   9.051  0.0000  0.0000  0.0000
13822SI     SI113822   4.840   1.969   9.088  0.0000  0.0000  0.0000
13823SI     SI113823   4.847   6.004   8.783  0.0000  0.0000  0.0000
13824SI     SI113824   8.651   1.118   8.720  0.0000  0.0000  0.0000
13825SI     SI113825   7.116   2.990   1.288  0.0000  0.0000  0.0000
13826SI     SI113826   2.047   7.347   9.467  0.0000  0.0000  0.0000
13827SI     SI113827   1.572   8.268   0.145  0.0000  0.0000  0.0000
13828SI     SI113828   7.204   9.529   0.218  0.0000  0.0000  0.0000
13829SI     SI113829   1.173   9.543   0.924  0.0000  0.0000  0.0000
13830SI     SI113830   1.449   7.640   0.943  0.0000  0.0000  0.0000
13831SI     SI113831   4.921   7.387   8.950  0.0000  0.0000  0.0000
13832SI     SI113832   8.365   8.126   1.009  0.0000  0.0000  0.0000
13833SI     SI113833   2.223   8.607   8.741  0.0000  0.0000  0.0000
13834SI     SI113834   3.783   6.604   8.840  0.0000  0.0000  0.0000
13835SI     SI113835   6.776   0.385   8.263  0.0000  0.0000  0.0000
13836SI     SI113836   1.019   6.642   0.923  0.0000  0.0000  0.0000
13837SI     SI113837   3.874   6.208   8.597  0.0000  0.0000  0.0000
13838SI     SI113838   5.189   7.763   0.759  0.0000  0.0000  0.0000
13839SI     SI113839   6.141   2.628   0.594  0.0000  0.0000  0.0000
13840SI     SI113840   7.031   0.727   1.309  0.0000  0.0000  0.0000
13841SI     SI113841   2.871   5.389   0.265  0.0000  0.0000  0.0000
13842SI     SI113842   7.591   1.276   8.575  0.0000  0.0000  0.0000
13843SI     SI113843   1.864   6.677   0.679  0.0000  0.0000  0.0000
13844SI     SI113844   2.816   8.915   0.708  0.0000  0.0000  0.0000
13845SI     SI113845   7.276   0.657   0.404  0.0000  0.0000  0.0000
13846SI     SI113846   7.439   4.368   1.185  0.0000  0.0000  0.0000
13847SI     SI113847   4.231   6.028   9.004  0.0000  0.0000  0.0000
13848SI     SI113848   6.960   5.010   9.021  0.0000  0.0000  0.0000
13849SI     SI113849   7.880   4.590   0.208  0.0000  0.0000  0.0000
13850SI     SI113850   3.867   2.701   8.204  0.0000  0.0000  0.0000
13851SI     SI113851   5.406   8.404   1.143  0.0000  0.0000  0.0000
13852SI     SI113852   0.477   2.416   9.420  0.0000  0.0000  0.0000
13853SI     SI113853   2.529   9.357   1.145  0.0000  0.0000  0.0000
13854SI     SI113854   5.361   7.971   8.856  0.0000  0.0000  0.0000
13855SI     SI113855   8.253   3.449   9.010  0.0000  0.0000  0.0000
13856SI     SI113856   3.591   5.993   1.132  0.0000  0.0000  0.0000
13857SI     SI113857   3.642   6.660   9.344  0.0000  0.0000  0.0000
13858SI     SI113858   5.482   1.421   8.518  0.0000  0.0000  0.0000
13859SI     SI113859   2.905   7.827   9.251  0.0000  0.0000  0.0000
13860SI     SI113860   6.134   8.771   0.818  0.0000  0.0000  0.0000
13861SI     SI113861   2.334   1.328   0.505  0.0000  0.0000  0.0000
13862SI     SI113862   5.833   4.770   9.075  0.0000  0.0000  0.0000
13863SI     SI113863   2.554   6.907   8.471  0.0000  0.0000  0.0000
13864SI     SI113864   0.036   3.022   0.005  0.0000  0.0000  0.0000
13865SI     SI113865   7.303   9.511   9.535  0.0000  0.0000  0.0000
13866SI     SI113866   1.731   3.751   9.471  0.0000  0.0000  0.0000
13867SI     SI113867   6.076   3.897   0.124  0.0000  0.0000  0.0000
13868SI     SI113868   5.501   3.014   1.222  0.0000  0.0000  0.0000
13869SI     SI113869   5.920   5.773   8.514  0.0000  0.0000  0.0000
13870SI     SI113870   2.775   5.775   8.608  0.0000  0.0000  0.0000
13871SI     SI113871   0.912   1.548   0.214  0.0000  0.0000  0.0000
13872SI     SI113872   1.203   8.025   0.785  0.0000  0.0000  0.0000
13873SI     SI113873   7.536   2.667   8.676  0.0000  0.0000  0.0000
13874SI     SI113874   3.047   1.288   9.474  0.0000  0.0000  0.0000
13875SI     SI113875   7.368   2.544   0.821  0.0000  0.0000  0.0000
13876SI     SI113876   0.436   1.692   9.397  0.0000  0.0000  0.0000
13877SI     SI113877   6.993   2.094   8.743  0.0000  0.0000  0.0000
13878SI     SI113878   4.774   9.025   0.866  0.0000  0.0000  0.0000
13879SI     SI113879   3.009   4.421   8.548  0.0000  0.0000  0.0000
13880SI     SI113880   2.070   1.292   8.707  0.0000  0.0000  0.0000
13881SI     SI113881   8.216   3.688   8.825  0.0000  0.0000  0.0000
13882SI     SI113882   1.175   0.865   1.042  0.0000  0.0000  0.0000
13883SI     SI113883   9.542   9.364   8.748  0.0000  0.0000  0.0000
13884SI     SI113884   2.262   0.016   9.039  0.0000  0.0000  0.0000
13885SI     SI113885   9.391   4.046   8.935  0.0000  0.0000  0.0000
13886SI     SI113886   4.965   5.253   8.338  0.0000  0.0000  0.0000
13887SI     SI113887   7.394   5.381   0.472  0.0000  0.0000  0.0000
13888SI     SI113888   2.154   4.297   8.502  0.0000  0.0000  0.0000
13889SI     SI113889   9.534   8.818   1.269  0.0000  0.0000  0.0000
13890SI     SI113890   7.894   0.663   9.573  0.0000  0.0000  0.0000
13891SI     SI113891   6.437   2.409   0.246  0.0000  0.0000  0.0000
13892SI     SI113892   8.124   5.284   9.129  0.0000  0.0000  0.0000
13893SI     SI113893   9.101   1.271   0.013  0.0000  0.0000  0.0000
13894SI     SI113894   7.917   0.750   1.047  0.0000  0.0000  0.0000
13895SI     SI113895   1.099   9.081   8.991  0.0000  0.0000  0.0000
13896SI     SI113896   0.144   9.031   1.259  0.0000  0.0000  0.0000
13897SI     SI113897   1.308   0.490   1.254  0.0000  0.0000  0.0000
13898SI     SI113898   4.477   9.550   8.843  0.0000  0.0000  0.0000
13899SI     SI113899   8.851   3.816   9.427  0.0000  0.0000  0.0000
13900SI     SI113900   5.436   0.557   0.357  0.0000  0.0000  0.0000
13901SI     SI113901   4.736   4.778   1.014  0.0000  0.0000  0.0000
13902SI     SI113902   4.271   7.348   0.111  0.0000  0.0000  0.0000
13903SI     SI113903   5.299   1.714   8.195  0.0000  0.0000  0.0000
13904SI     SI113904   0.452   1.949   8.957  0.0000  0.0000  0.0000
13905SI     SI113905   0.710   4.633   9.110  0.0000  0.0000  0.0000
13906SI     SI113906   5.440   2.526   8.351  0.0000  0.0000  0.0000
13907SI     SI113907   5.428   7.935   0.641  0.0000  0.0000  0.0000
13908SI     SI113908   6.258   7.667   0.655  0.0000  0.0000  0.0000
13909SI     SI113909   1.283   7.750   0.713  0.0000  0.0000  0.0000
13910SI     SI113910   3.315   9.034   0.890  0.0000  0.0000  0.0000
13911SI     SI113911   0.300   4.466   0.578  0.0000  0.0000  0.0000
13912SI     SI113912   5.651   1.572   8.981  0.0000  0.0000  0.0000
13913SI     SI113913   0.254   7.003   0.694  0.0000  0.0000  0.0000
13914SI     SI113914   1.497   3.476   9.189  0.0000  0.0000  0.0000
13915SI     SI113915   7.670   4.693   9.250  0.0000  0.0000  0.0000
13916SI     SI113916   1.088   9.492   9.597  0.0000  0.0000  0.0000
13917SI     SI113917   5.604   1.902   0.149  0.0000  0.0000  0.0000
13918SI     SI113918   3.966   1.203   8.828  0.0000  0.0000  0.0000
13919SI     SI113919   7.130   7.640   8.699  0.0000  0.0000  0.0000
13920SI     SI113920   3.178   2.229   9.068  0.0000  0.0000  0.0000
13921SI     SI113921   4.730   3.438   8.407  0.0000  0.0000  0.0000
13922SI     SI113922   8.288   6.717   0.728  0.0000  0.0000  0.0000
13923SI     SI113923   0.179   9.103   0.964  0.0000  0.0000  0.0000
13924SI     SI113924   4.638   1.538   9.147  0.0000  0.0000  0.0000
13925SI     SI113925   5.738   3.443   8.196  0.0000  0.0000  0.0000
13926SI     SI113926   2.820   7.944   0.386  0.0000  0.0000  0.0000
13927SI     SI113927   1.522   7.272   9.306  0.0000  0.0000  0.0000
13928SI     SI113928   4.318   7.979   0.360  0.0000  0.0000  0.0000
13929SI     SI113929   1.468   8.726   1.227  0.0000  0.0000  0.0000
13930SI     SI113930   0.249   5.507   0.434  0.0000  0.0000  0.0000
13931SI     SI113931   5.151   2.448   8.989  0.0000  0.0000  0.0000
13932SI     SI113932   0.044   9.001   8.327  0.0000  0.0000  0.0000
13933SI     SI113933   2.572   3.089   0.063  0.0000  0.0000  0.0000
13934SI     SI113934   0.789   9.484   0.611  0.0000  0.0000  0.0000
13935SI     SI113935   8.214   7.745   1.286  0.0000  0.0000  0.0000
13936SI     SI113936   3.255   4.274   8.638  0.0000  0.0000  0.0000
13937SI     SI113937   0.890   8.216   0.268  0.0000  0.0000  0.0000
13938SI     SI113938   6.611   5.311   0.496  0.0000  0.0000  0.0000
13939SI     SI113939   6.262   8.220   0.680  0.0000  0.0000  0.0000
13940SI     SI113940   2.570   5.180   9.096  0.0000  0.0000  0.0000
13941SI     SI113941   2.170   3.023   9.286  0.0000  0.0000  0.0000
13942SI     SI113942   1.553   8.632   9.193  0.0000  0.0000  0.0000
13943SI     SI113943   8.182   7.116   0.361  0.0000  0.0000  0.0000
13944SI     SI113944   1.000   3.156   8.712  0.0000  0.0000  0.0000
13945SI     SI113945   0.987   5.446   8.859  0.0000  0.0000  0.0000
13946SI     SI113946   5.653   2.019   0.420  0.0000  0.0000  0.0000
13947SI     SI113947   7.570   3.717   9.300  0.0000  0.0000  0.0000
13948SI     SI113948   5.387   8.263   9.443  0.0000  0.0000  0.0000
13949SI     SI113949   2.869   0.346   1.146  0.0000  0.0000  0.0000
13950SI     SI113950   1.100   0.518   9.441  0.0000  0.0000  0.0000
13951SI     SI113951   8.248   3.202   0.711  0.0000  0.0000  0.0000
13952SI     SI113952   6.963   8.104   8.957  0.0000  0.0000  0.0000
13953SI     SI113953   8.461   3.759   8.637  0.0000  0.0000  0.0000
13954SI     SI113954   3.593   6.809   0.545  0.0000  0.0000  0.0000
13955SI     SI113955   7.275   5.514   9.525  0.0000  0.0000  0.0000
13956SI     SI113956   3.176   5.783   9.288  0.0000  0.0000  0.0000
13957SI     SI113957   3.089   0.063   0.718  0.0000  0.0000  0.0000
13958SI     SI113958   1.153   6.745   8.424  0.0000  0.0000  0.0000
13959SI     SI113959   2.905   4.661   8.709  0.0000  0.0000  0.0000
13960SI     SI113960   5.752   7.417   1.110  0.0000  0.0000  0.0000
13961SI     SI113961   8.511   6.333   0.603  0.0000  0.0000  0.0000
13962SI     SI113962   5.581   4.815   0.053  0.0000  0.0000  0.0000
13963SI     SI113963   5.151   2.552   8.409  0.0000  0.0000  0.0000
13964SI     SI113964   5.351   8.672   1.005  0.0000  0.0000  0.0000
13965SI     SI113965   0.500   6.324   9.419  0.0000  0.0000  0.0000
13966SI     SI113966   1.745   3.617   8.693  0.0000  0.0000  0.0000
13967SI     SI113967   3.170   2.579   8.695  0.0000  0.0000  0.0000
13968SI     SI113968   3.359   8.046   8.450  0.0000  0.0000  0.0000
13969SI     SI113969   8.822   9.460   9.094  0.0000  0.0000  0.0000
13970SI     SI113970   3.092   2.092   0.822  0.0000  0.0000  0.0000
13971SI     SI113971   4.950   3.988   1.152  0.0000  0.0000  0.0000
13972SI     SI113972   0.092   1.221   8.603  0.0000  0.0000  0.0000
13973SI     SI113973   5.535   0.984   0.632  0.0000  0.0000  0.0000
13974SI     SI113974   6.537   2.297   8.787  0.0000  0.0000  0.0000
13975SI     SI113975   0.483   0.234   9.360  0.0000  0.0000  0.0000
13976SI     SI113976   5.945   8.967   0.677  0.0000  0.0000  0.0000
13977SI     SI113977   1.429   0.991   9.051  0.0000  0.0000  0.0000
13978SI     SI113978   2.165   6.871   1.427  0.0000  0.0000  0.0000
13979SI     SI113979   7.852   5.446   9.134  0.0000  0.0000  0.0000
13980SI     SI113980   0.992   0.652   8.620  0.0000  0.0000  0.0000
13981SI     SI113981   8.225   8.017   0.425  0.0000  0.0000  0.0000
13982SI     SI113982   0.486   4.084   0.074  0.0000  0.0000  0.0000
13983SI     SI113983   1.043   5.821   0.645  0.0000  0.0000  0.0000
13984SI     SI113984   4.496   4.441   0.436  0.0000  0.0000  0.0000
13985SI     SI113985   2.929   1.916   8.392  0.0000  0.0000  0.0000
13986SI     SI113986   2.075   6.511   8.756  0.0000  0.0000  0.0000
13987SI     SI113987   9.297   0.738   8.498  0.0000  0.0000  0.0000
13988SI     SI113988   3.219   8.671   1.187  0.0000  0.0000  0.0000
13989SI     SI113989   1.249   6.468   0.869  0.0000  0.0000  0.0000
13990SI     SI113990   6.783   4.983   1.071  0.0000  0.0000  0.0000
13991SI     SI113991   3.232   0.146   0.017  0.0000  0.0000  0.0000
13992SI     SI113992   6.046   2.686   9.371  0.0000  0.0000  0.0000
13993SI     SI113993   0.064   7.608   8.906  0.0000  0.0000  0.0000
13994SI     SI113994   2.168   0.171   8.251  0.0000  0.0000  0.0000
13995SI     SI113995   6.283   7.458   8.542  0.0000  0.0000  0.0000
13996SI     SI113996   6.319   3.145   0.758  0.0000  0.0000  0.0000
13997SI     SI113997   8.246   4.901   0.927  0.0000  0.0000  0.0000
13998SI     SI113998   8.472   6.236   0.880  0.0000  0.0000  0.0000
13999SI     SI113999   3.174   9.270   0.221  0.0000  0.0000  0.0000
14000SI     SI114000   4.580   6.406   9.224  0.0000  0.0000  0.0000
14001SI     SI114001   7.124   0.702   8.663  0.0000  0.0000  0.0000
14002SI     SI114002   6.146   6.075   0.003  0.0000  0.0000  0.0000
14003SI     SI114003   8.618   5.372   9.521  0.0000  0.0000  0.0000
14004SI     SI114004   5.805   8.556   1.088  0.0000  0.0000  0.0000
14005SI     SI114005   9.504   2.721   0.369  0.0000  0.0000  0.0000
14006SI     SI114006   3.324   8.194   9.189  0.0000  0.0000  0.0000
14007SI     SI114007   8.339   4.759   0.150  0.0000  0.0000  0.0000
14008SI     SI114008   6.857   4.729   0.891  0.0000  0.0000  0.0000
14009SI     SI114009   5.537   3.289   9.392  0.0000  0.0000  0.0000
14010SI     SI114010   7.137   9.228   8.976  0.0000  0.0000  0.0000
14011SI     SI114011   2.683   2.993   0.999  0.0000  0.0000  0.0000
14012SI     SI114012   9.479   6.961   0.964  0.0000  0.0000  0.0000
14013SI     SI114013   9.260   3.677   8.578  0.0000  0.0000  0.0000
14014SI     SI114014   3.806   6.386   0.569  0.0000  0.0000  0.0000
14015SI     SI114015   8.228   5.099   8.455  0.0000  0.0000  0.0000
14016SI     SI114016   1.360   6.609   9.522  0.0000  0.0000  0.0000
14017SI     SI114017   6.249   8.711   8.870  0.0000  0.0000  0.0000
14018SI     SI114018   0.760   5.789   0.611  0.0000  0.0000  0.0000
14019SI     SI114019   1.015   5.004   0.425  0.0000  0.0000  0.0000
14020SI     SI114020   9.511   7.798   0.213  0.0000  0.0000  0.0000
14021SI     SI114021   7.590   3.678   9.596  0.0000  0.0000  0.0000
14022SI     SI114022   1.666   7.463   0.853  0.0000  0.0000  0.0000
14023SI     SI114023   5.950   9.389   9.308  0.0000  0.0000  0.0000
14024SI     SI114024   1.605   4.670   0.699  0.0000  0.0000  0.0000
14025SI     SI114025   1.897   1.702   1.040  0.0000  0.0000  0.0000
14026SI     SI114026   7.095   0.024   0.731  0.0000  0.0000  0.0000
14027SI     SI114027   8.842   1.486   9.232  0.0000  0.0000  0.0000
14028SI     SI114028   4.282   3.118   0.647  0.0000  0.0000  0.0000
14029SI     SI114029   1.878   9.130   8.529  0.0000  0.0000  0.0000
14030SI     SI114030   2.517   8.610   8.735  0.0000  0.0000  0.0000
14031SI     SI114031   2.597   1.520   9.097  0.0000  0.0000  0.0000
14032SI     SI114032   0.296   5.885   0.664  0.0000  0.0000  0.0000
14033SI     SI114033   5.505   8.221   8.756  0.0000  0.0000  0.0000
14034SI     SI114034   4.623   1.712   9.391  0.0000  0.0000  0.0000
14035SI     SI114035   8.200   5.223   9.594  0.0000  0.0000  0.0000
14036SI     SI114036   7.740   7.149   8.768  0.0000  0.0000  0.0000
14037SI     SI114037   5.073   6.619   8.506  0.0000  0.0000  0.0000
14038SI     SI114038   2.616   2.892   0.536  0.0000  0.0000  0.0000
14039SI     SI114039   7.337   6.787   0.418  0.0000  0.0000  0.0000
14040SI     SI114040   4.254   3.392   8.636  0.0000  0.0000  0.0000
14041SI     SI114041   9.277   6.762   8.966  0.0000  0.0000  0.0000
14042SI     SI114042   3.157   0.291   8.919  0.0000  0.0000  0.0000
14043SI     SI114043   7.378   6.647   0.682  0.0000  0.0000  0.0000
14044SI     SI114044   1.684   4.352   1.036  0.0000  0.0000  0.0000
14045SI     SI114045   1.488   8.514   1.427  0.0000  0.0000  0.0000
14046SI     SI114046   3.176   3.288   1.145  0.0000  0.0000  0.0000
14047SI     SI114047   3.453   7.157   8.793  0.0000  0.0000  0.0000
14048SI     SI114048   9.437   5.425   0.344  0.0000  0.0000  0.0000
14049SI     SI114049   3.460   3.285   8.828  0.0000  0.0000  0.0000
14050SI     SI114050   7.696   0.360   0.629  0.0000  0.0000  0.0000
14051SI     SI114051   2.792   6.812   8.298  0.0000  0.0000  0.0000
14052SI     SI114052   4.840   2.469   9.032  0.0000  0.0000  0.0000
14053SI     SI114053   2.572   4.317   8.718  0.0000  0.0000  0.0000
14054SI     SI114054   6.166   6.571   1.385  0.0000  0.0000  0.0000
14055SI     SI114055   7.639   7.269   1.078  0.0000  0.0000  0.0000
14056SI     SI114056   5.586   1.883   0.689  0.0000  0.0000  0.0000
14057SI     SI114057   2.171   0.938   9.444  0.0000  0.0000  0.0000
14058SI     SI114058   7.700   4.801   8.832  0.0000  0.0000  0.0000
14059SI     SI114059   8.159   3.581   0.055  0.0000  0.0000  0.0000
14060SI     SI114060   5.512   2.782   0.523  0.0000  0.0000  0.0000
14061SI     SI114061   7.922   2.146   9.602  0.0000  0.0000  0.0000
14062SI     SI114062   7.080   3.388   0.498  0.0000  0.0000  0.0000
14063SI     SI114063   0.486   4.051   8.846  0.0000  0.0000  0.0000
14064SI     SI114064   1.385   1.244   8.620  0.0000  0.0000  0.0000
14065SI     SI114065   8.173   0.795   8.854  0.0000  0.0000  0.0000
14066SI     SI114066   8.897   0.933   1.337  0.0000  0.0000  0.0000
14067SI     SI114067   7.136   9.265   9.466  0.0000  0.0000  0.0000
14068SI     SI114068   5.278   1.836   8.788  0.0000  0.0000  0.0000
14069SI     SI114069   0.499   1.082   8.906  0.0000  0.0000  0.0000
14070SI     SI114070   3.408   5.637   0.810  0.0000  0.0000  0.0000
14071SI     SI114071   3.900   3.743   8.764  0.0000  0.0000  0.0000
14072SI     SI114072   9.558   2.333   9.407  0.0000  0.0000  0.0000
14073SI     SI114073   9.314   5.485   9.201  0.0000  0.0000  0.0000
14074SI     SI114074   2.971   6.948   8.688  0.0000  0.0000  0.0000
14075SI     SI114075   3.247   6.601   0.679  0.0000  0.0000  0.0000
14076SI     SI114076   2.277   0.044   9.590  0.0000  0.0000  0.0000
14077SI     SI114077   0.292   5.182   8.809  0.0000  0.0000  0.0000
14078SI     SI114078   7.184   8.673   8.185  0.0000  0.0000  0.0000
14079SI     SI114079   6.497   2.883   0.471  0.0000  0.0000  0.0000
14080SI     SI114080   2.622   4.676   0.708  0.0000  0.0000  0.0000
14081SI     SI114081   6.469   8.347   9.168  0.0000  0.0000  0.0000
14082SI     SI114082   7.933   6.469   9.090  0.0000  0.0000  0.0000
14083SI     SI114083   8.054   3.118   0.250  0.0000  0.0000  0.0000
14084SI     SI114084   0.659   4.245   0.262  0.0000  0.0000  0.0000
14085SI     SI114085   5.065   3.866   0.413  0.0000  0.0000  0.0000
14086SI     SI114086   9.288   0.580   8.756  0.0000  0.0000  0.0000
14087SI     SI114087   6.213   8.301   1.107  0.0000  0.0000  0.0000
14088SI     SI114088   5.361   8.037   8.319  0.0000  0.0000  0.0000
14089SI     SI114089   0.385   3.365   0.976  0.0000  0.0000  0.0000
14090SI     SI114090   6.229   3.782   0.553  0.0000  0.0000  0.0000
14091SI     SI114091   3.799   3.820   9.247  0.0000  0.0000  0.0000
14092SI     SI114092   9.361   0.004   8.825  0.0000  0.0000  0.0000
14093SI     SI114093   6.740   2.492   9.529  0.0000  0.0000  0.0000
14094SI     SI114094   8.559   1.040   0.952  0.0000  0.0000  0.0000
14095SI     SI114095   4.314   1.092   1.102  0.0000  0.0000  0.0000
14096SI     SI114096   9.432   9.275   0.311  0.0000  0.0000  0.0000
14097SI     SI114097   9.151   7.499   1.282  0.0000  0.0000  0.0000
14098SI     SI114098   6.378   1.451   0.316  0.0000  0.0000  0.0000
14099SI     SI114099   6.775   0.892   0.384  0.0000  0.0000  0.0000
14100SI     SI114100   3.520   2.169   8.709  0.0000  0.0000  0.0000
14101SI     SI114101   4.400   5.286   9.210  0.0000  0.0000  0.0000
14102SI     SI114102   3.607   1.473   0.392  0.0000  0.0000  0.0000
14103SI     SI114103   5.855   8.971   9.094  0.0000  0.0000  0.0000
14104SI     SI114104   2.363   2.638   9.502  0.0000  0.0000  0.0000
14105SI     SI114105   4.447   1.886   0.332  0.0000  0.0000  0.0000
14106SI     SI114106   9.325   5.603   0.829  0.0000  0.0000  0.0000
14107SI     SI114107   5.137   7.110   0.838  0.0000  0.0000  0.0000
14108SI     SI114108   7.566   9.356   0.441  0.0000  0.0000  0.0000
14109SI     SI114109   8.637   1.717   0.113  0.0000  0.0000  0.0000
14110SI     SI114110   1.051   8.762   0.967  0.0000  0.0000  0.0000
14111SI     SI114111   8.994   0.252   8.856  0.0000  0.0000  0.0000
14112SI     SI114112   5.367   2.439   9.176  0.0000  0.0000  0.0000
14113SI     SI114113   6.244   4.992   8.306  0.0000  0.0000  0.0000
14114SI     SI114114   3.916   0.724   1.183  0.0000  0.0000  0.0000
14115SI     SI114115   9.213   6.822   0.595  0.0000  0.0000  0.0000
14116SI     SI114116   8.019   6.111   0.696  0.0000  0.0000  0.0000
14117SI     SI114117   2.375   8.990   0.579  0.0000  0.0000  0.0000
14118SI     SI114118   7.828   4.441   9.227  0.0000  0.0000  0.0000
14119SI     SI114119   1.067   8.440   1.260  0.0000  0.0000  0.0000
14120SI     SI114120   7.488   4.173   0.953  0.0000  0.0000  0.0000
14121SI     SI114121   9.061   0.903   8.544  0.0000  0.0000  0.0000
14122SI     SI114122   2.764   2.579   0.235  0.0000  0.0000  0.0000
14123SI     SI114123   8.709   9.199   9.120  0.0000  0.0000  0.0000
14124SI     SI114124   8.987   4.998   9.570  0.0000  0.0000  0.0000
14125SI     SI114125   1.601   5.519   0.598  0.0000  0.0000  0.0000
14126SI     SI114126   5.134   6.188   0.358  0.0000  0.0000  0.0000
14127SI     SI114127   5.504   8.011   9.111  0.0000  0.0000  0.0000
14128SI     SI114128   8.954   3.039   1.279  0.0000  0.0000  0.0000
14129SI     SI114129   0.045   5.111   0.703  0.0000  0.0000  0.0000
14130SI     SI114130   7.801   4.556   0.517  0.0000  0.0000  0.0000
14131SI     SI114131   6.496   4.826   0.689  0.0000  0.0000  0.0000
14132SI     SI114132   8.297   4.640   8.412  0.0000  0.0000  0.0000
14133SI     SI114133   2.500   0.570   9.214  0.0000  0.0000  0.0000
14134SI     SI114134   0.169   1.483   8.929  0.0000  0.0000  0.0000
14135SI     SI114135   2.306   8.114   8.911  0.0000  0.0000  0.0000
14136SI     SI114136   5.238   3.279   0.115  0.0000  0.0000  0.0000
14137SI     SI114137   2.111   3.940   9.292  0.0000  0.0000  0.0000
14138SI     SI114138   0.190   7.839   0.109  0.0000  0.0000  0.0000
14139SI     SI114139   4.614   2.007   9.309  0.0000  0.0000  0.0000
14140SI     SI114140   0.365   2.615   0.260  0.0000  0.0000  0.0000
14141SI     SI114141   7.945   0.221   0.170  0.0000  0.0000  0.0000
14142SI     SI114142   2.131   3.186   9.018  0.0000  0.0000  0.0000
14143SI     SI114143   5.604   3.059   0.650  0.0000  0.0000  0.0000
14144SI     SI114144   4.343   5.568   1.125  0.0000  0.0000  0.0000
14145SI     SI114145   6.303   6.948   9.314  0.0000  0.0000  0.0000
14146SI     SI114146   4.315   5.730   9.049  0.0000  0.0000  0.0000
14147SI     SI114147   4.126   0.735   0.143  0.0000  0.0000  0.0000
14148SI     SI114148   6.525   9.576   8.278  0.0000  0.0000  0.0000
14149SI     SI114149   0.808   7.263   8.331  0.0000  0.0000  0.0000
14150SI     SI114150   0.110   1.059   0.943  0.0000  0.0000  0.0000
14151SI     SI114151   0.113   1.347   0.863  0.0000  0.0000  0.0000
14152SI     SI114152   0.181   3.970   8.626  0.0000  0.0000  0.0000
14153SI     SI114153   6.701   7.153   0.178  0.0000  0.0000  0.0000
14154SI     SI114154   3.893   7.837   0.864  0.0000  0.0000  0.0000
14155SI     SI114155   1.720   6.426   0.661  0.0000  0.0000  0.0000
14156SI     SI114156   5.170   3.294   1.425  0.0000  0.0000  0.0000
14157SI     SI114157   5.065   7.641   8.444  0.0000  0.0000  0.0000
14158SI     SI114158   0.589   9.229   1.138  0.0000  0.0000  0.0000
14159SI     SI114159   2.168   0.715   0.678  0.0000  0.0000  0.0000
14160SI     SI114160   3.614   2.922   1.143  0.0000  0.0000  0.0000
14161SI     SI114161   3.141   7.726   9.065  0.0000  0.0000  0.0000
14162SI     SI114162   4.740   4.643   9.319  0.0000  0.0000  0.0000
14163SI     SI114163   8.563   6.136   8.591  0.0000  0.0000  0.0000
14164SI     SI114164   9.415   7.873   0.939  0.0000  0.0000  0.0000
14165SI     SI114165   3.606   1.830   0.878  0.0000  0.0000  0.0000
14166SI     SI114166   3.630   5.778   0.164  0.0000  0.0000  0.0000
14167SI     SI114167   2.134   2.118   8.988  0.0000  0.0000  0.0000
14168SI     SI114168   4.556   3.792   0.272  0.0000  0.0000  0.0000
14169SI     SI114169   5.539   1.048   9.193  0.0000  0.0000  0.0000
14170SI     SI114170   5.555   6.813   8.810  0.0000  0.0000  0.0000
14171SI     SI114171   1.823   6.685   1.108  0.0000  0.0000  0.0000
14172SI     SI114172   8.681   8.382   0.647  0.0000  0.0000  0.0000
14173SI     SI114173   3.067   0.720   0.641  0.0000  0.0000  0.0000
14174SI     SI114174   8.579   4.154   9.393  0.0000  0.0000  0.0000
14175SI     SI114175   9.522   0.592   9.206  0.0000  0.0000  0.0000
14176SI     SI114176   0.570   7.466   8.403  0.0000  0.0000  0.0000
14177SI     SI114177   7.942   9.151   0.214  0.0000  0.0000  0.0000
14178SI     SI114178   2.163   8.520   8.447  0.0000  0.0000  0.0000
14179SI     SI114179   7.893   2.853   0.634  0.0000  0.0000  0.0000
14180SI     SI114180   4.159   7.928   0.870  0.0000  0.0000  0.0000
14181SI     SI114181   5.368   4.120   0.535  0.0000  0.0000  0.0000
14182SI     SI114182   3.046   0.273   0.504  0.0000  0.0000  0.0000
14183SI     SI114183   9.510   3.535   8.712  0.0000  0.0000  0.0000
14184SI     SI114184   6.174   1.559   9.270  0.0000  0.0000  0.0000
14185SI     SI114185   1.650   7.465   8.806  0.0000  0.0000  0.0000
14186SI     SI114186   2.717   6.175   0.797  0.0000  0.0000  0.0000
14187SI     SI114187   0.142   6.717   0.064  0.0000  0.0000  0.0000
14188SI     SI114188   6.876   4.737   8.437  0.0000  0.0000  0.0000
14189SI     SI114189   4.894   2.054   0.681  0.0000  0.0000  0.0000
14190SI     SI114190   5.853   6.837   8.858  0.0000  0.0000  0.0000
14191SI     SI114191   2.370   0.323   8.688  0.0000  0.0000  0.0000
14192SI     SI114192   8.304   6.018   0.717  0.0000  0.0000  0.0000
14193SI     SI114193   7.425   2.779   0.623  0.0000  0.0000  0.0000
14194SI     SI114194   6.778   2.744   8.743  0.0000  0.0000  0.0000
14195SI     SI114195   8.496   7.751   9.096  0.0000  0.0000  0.0000
14196SI     SI114196   3.740   0.680   8.908  0.0000  0.0000  0.0000
14197SI     SI114197   8.242   8.407   9.012  0.0000  0.0000  0.0000
14198SI     SI114198   4.706   1.153   8.637  0.0000  0.0000  0.0000
14199SI     SI114199   6.181   7.819   9.505  0.0000  0.0000  0.0000
14200SI     SI114200   5.171   6.217   1.136  0.0000  0.0000  0.0000
14201SI     SI114201   5.745   4.733   0.589  0.0000  0.0000  0.0000
14202SI     SI114202   8.281   6.185   9.309  0.0000  0.0000  0.0000
14203SI     SI114203   4.212   4.715   9.498  0.0000  0.0000  0.0000
14204SI     SI114204   4.761   5.987   0.649  0.0000  0.0000  0.0000
14205SI     SI114205   1.640   7.206   0.465  0.0000  0.0000  0.0000
14206SI     SI114206   8.544   4.313   8.677  0.0000  0.0000  0.0000
14207SI     SI114207   8.231   4.334   9.100  0.0000  0.0000  0.0000
14208SI     SI114208   8.380   1.734   9.409  0.0000  0.0000  0.0000
14209SI     SI114209   6.114   4.816   8.983  0.0000  0.0000  0.0000
14210SI     SI114210   3.117   7.437   9.187  0.0000  0.0000  0.0000
14211SI     SI114211   2.459   5.522   1.264  0.0000  0.0000  0.0000
14212SI     SI114212   1.495   1.251   1.111  0.0000  0.0000  0.0000
14213SI     SI114213   3.310   1.253   9.323  0.0000  0.0000  0.0000
14214SI     SI114214   6.283   3.115   9.466  0.0000  0.0000  0.0000
14215SI     SI114215   1.828   8.559   9.502  0.0000  0.0000  0.0000
14216SI     SI114216   1.826   9.060   8.231  0.0000  0.0000  0.0000
14217SI     SI114217   9.215   6.277   1.059  0.0000  0.0000  0.0000
14218SI     SI114218   1.798   0.782   0.442  0.0000  0.0000  0.0000
14219SI     SI114219   5.771   7.640   9.315  0.0000  0.0000  0.0000
14220SI     SI114220   4.821   8.042   0.436  0.0000  0.0000  0.0000
14221SI     SI114221   2.509   3.329   0.771  0.0000  0.0000  0.0000
14222SI     SI114222   5.335   8.144   0.989  0.0000  0.0000  0.0000
14223SI     SI114223   5.311   9.243   9.293  0.0000  0.0000  0.0000
14224SI     SI114224   4.109   7.909   9.006  0.0000  0.0000  0.0000
14225SI     SI114225   0.431   1.459   8.747  0.0000  0.0000  0.0000
14226SI     SI114226   7.351   1.647   0.895  0.0000  0.0000  0.0000
14227SI     SI114227   9.125   0.123   8.203  0.0000  0.0000  0.0000
14228SI     SI114228   8.229   4.794   0.669  0.0000  0.0000  0.0000
14229SI     SI114229   6.532   1.976   9.049  0.0000  0.0000  0.0000
14230SI     SI114230   9.582   3.020   0.726  0.0000  0.0000  0.0000
14231SI     SI114231   3.529   8.405   0.883  0.0000  0.0000  0.0000
14232SI     SI114232   6.761   4.961   0.237  0.0000  0.0000  0.0000
14233SI     SI114233   3.894   3.481   0.948  0.0000  0.0000  0.0000
14234SI     SI114234   2.615   4.047   0.941  0.0000  0.0000  0.0000
14235SI     SI114235   6.866   2.822   9.199  0.0000  0.0000  0.0000
14236SI     SI114236   8.596   4.560   9.132  0.0000  0.0000  0.0000
14237SI     SI114237   4.183   2.492   0.392  0.0000  0.0000  0.0000
14238SI     SI114238   1.306   4.974   0.323  0.0000  0.0000  0.0000
14239SI     SI114239   7.491   5.650   0.089  0.0000  0.0000  0.0000
14240SI     SI114240   4.945   0.271   8.185  0.0000  0.0000  0.0000
14241SI     SI114241   1.037   4.467   8.331  0.0000  0.0000  0.0000
14242SI     SI114242   9.589   2.110   0.557  0.0000  0.0000  0.0000
14243SI     SI114243   3.606   5.571   9.020  0.0000  0.0000  0.0000
14244SI     SI114244   2.344   5.809   0.881  0.0000  0.0000  0.0000
14245SI     SI114245   5.967   1.330   9.219  0.0000  0.0000  0.0000
14246SI     SI114246   8.182   5.907   8.607  0.0000  0.0000  0.0000
14247SI     SI114247   5.557   4.770   8.654  0.0000  0.0000  0.0000
14248SI     SI114248   1.743   2.198   0.352  0.0000  0.0000  0.0000
14249SI     SI114249   0.316   7.723   1.161  0.0000  0.0000  0.0000
14250SI     SI114250   9.167   2.384   8.546  0.0000  0.0000  0.0000
14251SI     SI114251   5.541   7.712   8.841  0.0000  0.0000  0.0000
14252SI     SI114252   5.469   8.997   0.661  0.0000  0.0000  0.0000
14253SI     SI114253   0.943   1.988   0.194  0.0000  0.0000  0.0000
14254SI     SI114254   0.236   6.555   0.971  0.0000  0.0000  0.0000
14255SI     SI114255   3.902   0.860   0.299  0.0000  0.0000  0.0000
14256SI     SI114256   4.789   6.748   9.199  0.0000  0.0000  0.0000
14257SI     SI114257   2.997   3.554   9.205  0.0000  0.0000  0.0000
14258SI     SI114258   0.003   6.434   0.078  0.0000  0.0000  0.0000
14259SI     SI114259   8.312   7.521   9.001  0.0000  0.0000  0.0000
14260SI     SI114260   5.711   7.579   0.692  0.0000  0.0000  0.0000
14261SI     SI114261   0.925   0.816   0.848  0.0000  0.0000  0.0000
14262SI     SI114262   2.330   1.875   9.042  0.0000  0.0000  0.0000
14263SI     SI114263   8.799   9.477   8.787  0.0000  0.0000  0.0000
14264SI     SI114264   3.178   2.805   0.945  0.0000  0.0000  0.0000
14265SI     SI114265   5.344   6.785   8.447  0.0000  0.0000  0.0000
14266SI     SI114266   7.320   6.406   8.489  0.0000  0.0000  0.0000
14267SI     SI114267   0.140   0.191   0.056  0.0000  0.0000  0.0000
14268SI     SI114268   7.300   8.528   9.504  0.0000  0.0000  0.0000
14269SI     SI114269   3.859   6.683   0.470  0.0000  0.0000  0.0000
14270SI     SI114270   1.229   9.010   8.375  0.0000  0.0000  0.0000
14271SI     SI114271   5.835   8.390   0.822  0.0000  0.0000  0.0000
14272SI     SI114272   7.744   0.491   8.658  0.0000  0.0000  0.0000
14273SI     SI114273   0.905   3.674   0.350  0.0000  0.0000  0.0000
14274SI     SI114274   6.064   5.963   0.997  0.0000  0.0000  0.0000
14275SI     SI114275   9.140   4.967   0.672  0.0000  0.0000  0.0000
14276SI     SI114276   0.287   6.829   8.636  0.0000  0.0000  0.0000
14277SI     SI114277   0.635   0.836   9.264  0.0000  0.0000  0.0000
14278SI     SI114278   8.492   4.142   0.804  0.0000  0.0000  0.0000
14279SI     SI114279   5.980   3.802   0.387  0.0000  0.0000  0.0000
14280SI     SI114280   1.882   1.206   9.086  0.0000  0.0000  0.0000
14281SI     SI114281   0.367   3.416   9.491  0.0000  0.0000  0.0000
14282SI     SI114282   1.734   8.884   9.233  0.0000  0.0000  0.0000
14283SI     SI114283   9.323   4.856   0.438  0.0000  0.0000  0.0000
14284SI     SI114284   1.948   4.551   8.962  0.0000  0.0000  0.0000
14285SI     SI114285   5.086   3.157   1.176  0.0000  0.0000  0.0000
14286SI     SI114286   1.303   7.989   0.316  0.0000  0.0000  0.0000
14287SI     SI114287   1.134   4.548   0.334  0.0000  0.0000  0.0000
14288SI     SI114288   6.822   8.490   8.415  0.0000  0.0000  0.0000
14289SI     SI114289   9.580   8.081   8.597  0.0000  0.0000  0.0000
14290SI     SI114290   1.759   7.634   0.073  0.0000  0.0000  0.0000
14291SI     SI114291   2.009   1.589   0.242  0.0000  0.0000  0.0000
14292SI     SI114292   5.615   6.165   0.592  0.0000  0.0000  0.0000
14293SI     SI114293   1.171   8.731   1.238  0.0000  0.0000  0.0000
14294SI     SI114294   1.465   3.924   9.509  0.0000  0.0000  0.0000
14295SI     SI114295   4.255   2.785   9.593  0.0000  0.0000  0.0000
14296SI     SI114296   5.880   3.748   8.470  0.0000  0.0000  0.0000
14297SI     SI114297   8.289   2.729   0.473  0.0000  0.0000  0.0000
14298SI     SI114298   5.918   1.422   8.924  0.0000  0.0000  0.0000
14299SI     SI114299   3.185   3.378   0.043  0.0000  0.0000  0.0000
14300SI     SI114300   5.617   6.418   0.195  0.0000  0.0000  0.0000
14301SI     SI114301   0.622   4.828   8.906  0.0000  0.0000  0.0000
14302SI     SI114302   5.681   5.476   0.116  0.0000  0.0000  0.0000
14303SI     SI114303   4.563   6.091   8.265  0.0000  0.0000  0.0000
14304SI     SI114304   0.861   6.177   0.943  0.0000  0.0000  0.0000
14305SI     SI114305   3.901   1.564   9.236  0.0000  0.0000  0.0000
14306SI     SI114306   6.566   4.313   9.472  0.0000  0.0000  0.0000
14307SI     SI114307   8.976   3.012   9.373  0.0000  0.0000  0.0000
14308SI     SI114308   8.329   3.795   9.505  0.0000  0.0000  0.0000
14309SI     SI114309   1.530   4.440   8.869  0.0000  0.0000  0.0000
14310SI     SI114310   5.317   7.160   9.159  0.0000  0.0000  0.0000
14311SI     SI114311   1.013   7.926   0.269  0.0000  0.0000  0.0000
14312SI     SI114312   2.236   6.612   0.470  0.0000  0.0000  0.0000
14313SI     SI114313   6.780   0.270   0.207  0.0000  0.0000  0.0000
14314SI     SI114314   3.535   0.087   9.559  0.0000  0.0000  0.0000
14315SI     SI114315   8.107   3.188   8.948  0.0000  0.0000  0.0000
14316SI     SI114316   4.198   4.090   9.018  0.0000  0.0000  0.0000
14317SI     SI114317   3.020   4.940   9.305  0.0000  0.0000  0.0000
14318SI     SI114318   3.364   8.664   8.455  0.0000  0.0000  0.0000
14319SI     SI114319   5.314   0.282   0.851  0.0000  0.0000  0.0000
14320SI     SI114320   5.911   4.541   8.418  0.0000  0.0000  0.0000
14321SI     SI114321   3.364   3.009   8.943  0.0000  0.0000  0.0000
14322SI     SI114322   7.239   8.454   8.896  0.0000  0.0000  0.0000
14323SI     SI114323   8.772   3.168   8.609  0.0000  0.0000  0.0000
14324SI     SI114324   7.749   1.499   9.136  0.0000  0.0000  0.0000
14325SI     SI114325   2.178   8.216   8.401  0.0000  0.0000  0.0000
14326SI     SI114326   4.799   7.697   8.299  0.0000  0.0000  0.0000
14327SI     SI114327   0.111   2.669   8.808  0.0000  0.0000  0.0000
14328SI     SI114328   4.398   9.075   0.140  0.0000  0.0000  0.0000
14329SI     SI114329   3.069   9.114   1.073  0.0000  0.0000  0.0000
14330SI     SI114330   4.378   1.724   8.748  0.0000  0.0000  0.0000
14331SI     SI114331   8.813   8.306   1.144  0.0000  0.0000  0.0000
14332SI     SI114332   1.316   7.957   8.891  0.0000  0.0000  0.0000
14333SI     SI114333   3.791   1.198   1.413  0.0000  0.0000  0.0000
14334SI     SI114334   8.212   9.091   9.214  0.0000  0.0000  0.0000
14335SI     SI114335   1.887   0.790   8.841  0.0000  0.0000  0.0000
14336SI     SI114336   9.598   7.917   9.239  0.0000  0.0000  0.0000
14337SI     SI114337   1.015   6.431   1.306  0.0000  0.0000  0.0000
14338SI     SI114338   6.905   0.001   0.207  0.0000  0.0000  0.0000
14339SI     SI114339   6.114   6.665   0.679  0.0000  0.0000  0.0000
14340SI     SI114340   9.054   3.430   0.831  0.0000  0.0000  0.0000
14341SI     SI114341   0.551   7.137   0.298  0.0000  0.0000  0.0000
14342SI     SI114342   5.001   7.984   1.368  0.0000  0.0000  0.0000
14343SI     SI114343   5.981   5.095   9.483  0.0000  0.0000  0.0000
14344SI     SI114344   1.607   2.786   8.219  0.0000  0.0000  0.0000
14345SI     SI114345   5.631   4.382   9.597  0.0000  0.0000  0.0000
14346SI     SI114346   2.693   1.902   0.773  0.0000  0.0000  0.0000
14347SI     SI114347   1.898   7.495   8.333  0.0000  0.0000  0.0000
14348SI     SI114348   0.327   3.408   0.359  0.0000  0.0000  0.0000
14349SI     SI114349   7.770   5.518   0.082  0.0000  0.0000  0.0000
14350SI     SI114350   8.932   7.862   8.935  0.0000  0.0000  0.0000
14351SI     SI114351   2.737   3.177   9.416  0.0000  0.0000  0.0000
14352SI     SI114352   8.077   6.358   1.092  0.0000  0.0000  0.0000
14353SI     SI114353   0.220   4.004   0.517  0.0000  0.0000  0.0000
14354SI     SI114354   0.778   4.397   8.662  0.0000  0.0000  0.0000
14355SI     SI114355   6.453   2.549   9.410  0.0000  0.0000  0.0000
14356SI     SI114356   5.113   1.762   9.465  0.0000  0.0000  0.0000
14357SI     SI114357   5.854   2.828   8.349  0.0000  0.0000  0.0000
14358SI     SI114358   7.036   3.301   9.341  0.0000  0.0000  0.0000
14359SI     SI114359   1.534   6.273   1.159  0.0000  0.0000  0.0000
14360SI     SI114360   7.983   1.469   9.585  0.0000  0.0000  0.0000
14361SI     SI114361   3.576   6.360   8.233  0.0000  0.0000  0.0000
14362SI     SI114362   8.521   2.906   1.094  0.0000  0.0000  0.0000
14363SI     SI114363   7.120   5.175   8.604  0.0000  0.0000  0.0000
14364SI     SI114364   1.702   9.314   0.497  0.0000  0.0000  0.0000
14365SI     SI114365   3.957   3.964   1.090  0.0000  0.0000  0.0000
14366SI     SI114366   4.769   5.481   9.484  0.0000  0.0000  0.0000
14367SI     SI114367   6.959   2.778   0.923  0.0000  0.0000  0.0000
14368SI     SI114368   0.768   8.666   0.090  0.0000  0.0000  0.0000
14369SI     SI114369   2.709   0.371   9.100  0.0000  0.0000  0.0000
14370SI     SI114370   2.817   4.264   0.840  0.0000  0.0000  0.0000
14371SI     SI114371   4.838   9.374   0.141  0.0000  0.0000  0.0000
14372SI     SI114372   8.112   3.856   9.298  0.0000  0.0000  0.0000
14373SI     SI114373   3.023   5.261   8.542  0.0000  0.0000  0.0000
14374SI     SI114374   2.583   7.791   1.235  0.0000  0.0000  0.0000
14375SI     SI114375   8.586   1.597   8.848  0.0000  0.0000  0.0000
14376SI     SI114376   9.172   3.682   0.429  0.0000  0.0000  0.0000
14377SI     SI114377   7.018   6.830   0.870  0.0000  0.0000  0.0000
14378SI     SI114378   9.025   9.272   9.352  0.0000  0.0000  0.0000
14379SI     SI114379   5.573   9.250   0.192  0.0000  0.0000  0.0000
14380SI     SI114380   5.918   5.598   0.485  0.0000  0.0000  0.0000
14381SI     SI114381   1.725   8.713   8.803  0.0000  0.0000  0.0000
14382SI     SI114382   7.219   8.801   9.594  0.0000  0.0000  0.0000
14383SI     SI114383   6.951   1.409   9.265  0.0000  0.0000  0.0000
14384SI     SI114384   5.761   2.888   1.365  0.0000  0.0000  0.0000
14385SI     SI114385   5.250   2.253   0.955  0.0000  0.0000  0.0000
14386SI     SI114386   4.933   0.380   8.987  0.0000  0.0000  0.0000
14387SI     SI114387   2.542   6.450   1.108  0.0000  0.0000  0.0000
14388SI     SI114388   6.686   2.495   8.602  0.0000  0.0000  0.0000
14389SI     SI114389   7.968   3.990   1.146  0.0000  0.0000  0.0000
14390SI     SI114390   8.497   8.680   0.276  0.0000  0.0000  0.0000
14391SI     SI114391   7.459   8.088   1.273  0.0000  0.0000  0.0000
14392SI     SI114392   7.009   9.382   8.444  0.0000  0.0000  0.0000
14393SI     SI114393   6.455   7.264   1.024  0.0000  0.0000  0.0000
14394SI     SI114394   9.177   0.335   1.090  0.0000  0.0000  0.0000
14395SI     SI114395   8.410   3.120   9.264  0.0000  0.0000  0.0000
14396SI     SI114396   3.388   2.659   0.067  0.0000  0.0000  0.0000
14397SI     SI114397   1.363   7.631   9.455  0.0000  0.0000  0.0000
14398SI     SI114398   6.331   1.262   8.839  0.0000  0.0000  0.0000
14399SI     SI114399   7.360   1.356   0.970  0.0000  0.0000  0.0000
14400SI     SI114400   5.596   8.059   0.213  0.0000  0.0000  0.0000
14401SI     SI114401   9.569   9.426   8.452  0.0000  0.0000  0.0000
14402SI     SI114402   8.080   9.200   8.765  0.0000  0.0000  0.0000
14403SI     SI114403   6.070   7.672   8.965  0.0000  0.0000  0.0000
14404SI     SI114404   8.434   2.489   9.561  0.0000  0.0000  0.0000
14405SI     SI114405   6.761   2.367   0.920  0.0000  0.0000  0.0000
14406SI     SI114406   7.167   6.513   8.975  0.0000  0.0000  0.0000
14407SI     SI114407   6.639   3.549   8.603  0.0000  0.0000  0.0000
14408SI     SI114408   6.923   0.520   1.097  0.0000  0.0000  0.0000
14409SI     SI114409   0.909   0.433   0.240  0.0000  0.0000  0.0000
14410SI     SI114410   1.146   5.716   8.168  0.0000  0.0000  0.0000
14411SI     SI114411   4.310   8.020   1.110  0.0000  0.0000  0.0000
14412SI     SI114412   7.696   6.664   9.569  0.0000  0.0000  0.0000
14413SI     SI114413   4.368   3.424   0.412  0.0000  0.0000  0.0000
14414SI     SI114414   9.518   8.337   1.144  0.0000  0.0000  0.0000
14415SI     SI114415   2.140   5.484   8.604  0.0000  0.0000  0.0000
14416SI     SI114416   1.151   6.989   8.610  0.0000  0.0000  0.0000
14417SI     SI114417   3.985   0.009   0.375  0.0000  0.0000  0.0000
14418SI     SI114418   8.659   8.914   0.146  0.0000  0.0000  0.0000
14419SI     SI114419   1.385   4.314   1.113  0.0000  0.0000  0.0000
14420SI     SI114420   5.337   9.413   8.503  0.0000  0.0000  0.0000
14421SI     SI114421   1.836   7.304   0.664  0.0000  0.0000  0.0000
14422SI     SI114422   2.766   3.062   0.312  0.0000  0.0000  0.0000
14423SI     SI114423   7.181   8.125   1.220  0.0000  0.0000  0.0000
14424SI     SI114424   1.400   8.993   0.733  0.0000  0.0000  0.0000
14425SI     SI114425   6.229   8.136   9.167  0.0000  0.0000  0.0000
14426SI     SI114426   1.321   3.859   0.170  0.0000  0.0000  0.0000
14427SI     SI114427   1.817   8.886   1.238  0.0000  0.0000  0.0000
14428SI     SI114428   5.913   7.653   0.263  0.0000  0.0000  0.0000
14429SI     SI114429   8.401   9.109   0.662  0.0000  0.0000  0.0000
14430SI     SI114430   5.825   2.265   9.134  0.0000  0.0000  0.0000
14431SI     SI114431   3.425   6.966   9.216  0.0000  0.0000  0.0000
14432SI     SI114432   5.293   6.860   9.228  0.0000  0.0000  0.0000
14433SI     SI114433   0.541   0.666   0.476  0.0000  0.0000  0.0000
14434SI     SI114434   2.623   9.572   0.936  0.0000  0.0000  0.0000
14435SI     SI114435   3.944   1.063   9.472  0.0000  0.0000  0.0000
14436SI     SI114436   9.245   4.400   9.256  0.0000  0.0000  0.0000
14437SI     SI114437   7.811   8.004   0.689  0.0000  0.0000  0.0000
14438SI     SI114438   1.878   7.697   0.835  0.0000  0.0000  0.0000
14439SI     SI114439   4.627   4.691   8.703  0.0000  0.0000  0.0000
14440SI     SI114440   5.533   2.292   0.406  0.0000  0.0000  0.0000
14441SI     SI114441   2.612   9.004   8.409  0.0000  0.0000  0.0000
14442SI     SI114442   3.554   3.184   8.541  0.0000  0.0000  0.0000
14443SI     SI114443   6.612   1.665   0.332  0.0000  0.0000  0.0000
14444SI     SI114444   0.914   2.064   9.085  0.0000  0.0000  0.0000
14445SI     SI114445   7.401   0.225   1.006  0.0000  0.0000  0.0000
14446SI     SI114446   5.445   9.468   0.972  0.0000  0.0000  0.0000
14447SI     SI114447   1.410   6.245   9.160  0.0000  0.0000  0.0000
14448SI     SI114448   6.402   7.871   0.232  0.0000  0.0000  0.0000
14449SI     SI114449   4.026   8.424   1.035  0.0000  0.0000  0.0000
14450SI     SI114450   7.138   0.578   8.385  0.0000  0.0000  0.0000
14451SI     SI114451   0.507   3.796   0.132  0.0000  0.0000  0.0000
14452SI     SI114452   7.321   7.295   1.085  0.0000  0.0000  0.0000
14453SI     SI114453   2.500   5.254   1.408  0.0000  0.0000  0.0000
14454SI     SI114454   4.347   7.351   9.413  0.0000  0.0000  0.0000
14455SI     SI114455   3.384   0.908   8.557  0.0000  0.0000  0.0000
14456SI     SI114456   0.644   7.300   0.546  0.0000  0.0000  0.0000
14457SI     SI114457   8.747   5.928   0.740  0.0000  0.0000  0.0000
14458SI     SI114458   4.982   4.653   8.371  0.0000  0.0000  0.0000
14459SI     SI114459   2.604   8.381   9.256  0.0000  0.0000  0.0000
14460SI     SI114460   1.183   8.518   0.282  0.0000  0.0000  0.0000
14461SI     SI114461   9.322   1.671   9.331  0.0000  0.0000  0.0000
14462SI     SI114462   1.914   2.654   1.155  0.0000  0.0000  0.0000
14463SI     SI114463   5.651   7.577   0.390  0.0000  0.0000  0.0000
14464SI     SI114464   8.243   5.461   8.195  0.0000  0.0000  0.0000
14465SI     SI114465   0.413   3.113   8.955  0.0000  0.0000  0.0000
14466SI     SI114466   6.138   1.601   8.784  0.0000  0.0000  0.0000
14467SI     SI114467   6.314   0.876   0.567  0.0000  0.0000  0.0000
14468SI     SI114468   6.875   1.375   9.552  0.0000  0.0000  0.0000
14469SI     SI114469   0.021   5.807   8.336  0.0000  0.0000  0.0000
14470SI     SI114470   9.102   5.699   8.816  0.0000  0.0000  0.0000
14471SI     SI114471   2.965   2.227   9.555  0.0000  0.0000  0.0000
14472SI     SI114472   3.674   8.618   8.821  0.0000  0.0000  0.0000
14473SI     SI114473   3.021   1.097   8.943  0.0000  0.0000  0.0000
14474SI     SI114474   0.640   7.202   9.021  0.0000  0.0000  0.0000
14475SI     SI114475   6.218   6.966   8.809  0.0000  0.0000  0.0000
14476SI     SI114476   5.297   9.393   0.250  0.0000  0.0000  0.0000
14477SI     SI114477   8.406   9.512   8.950  0.0000  0.0000  0.0000
14478SI     SI114478   0.909   4.645   1.412  0.0000  0.0000  0.0000
14479SI     SI114479   2.587   2.314   9.112  0.0000  0.0000  0.0000
14480SI     SI114480   4.191   8.504   8.556  0.0000  0.0000  0.0000
14481SI     SI114481   2.324   3.523   0.932  0.0000  0.0000  0.0000
14482SI     SI114482   3.840   8.052   8.984  0.0000  0.0000  0.0000
14483SI     SI114483   5.420   2.742   0.904  0.0000  0.0000  0.0000
14484SI     SI114484   9.137   3.678   0.129  0.0000  0.0000  0.0000
14485SI     SI114485   0.040   1.594   1.240  0.0000  0.0000  0.0000
14486SI     SI114486   9.365   8.184   0.916  0.0000  0.0000  0.0000
14487SI     SI114487   6.418   2.457   1.107  0.0000  0.0000  0.0000
14488SI     SI114488   3.330   4.580   0.509  0.0000  0.0000  0.0000
14489SI     SI114489   5.502   5.282   9.549  0.0000  0.0000  0.0000
14490SI     SI114490   7.116   3.391   8.394  0.0000  0.0000  0.0000
14491SI     SI114491   3.183   6.226   1.088  0.0000  0.0000  0.0000
14492SI     SI114492   0.280   0.413   9.499  0.0000  0.0000  0.0000
14493SI     SI114493   6.682   8.922   1.188  0.0000  0.0000  0.0000
14494SI     SI114494   0.536   8.478   0.057  0.0000  0.0000  0.0000
14495SI     SI114495   4.834   7.465   0.055  0.0000  0.0000  0.0000
14496SI     SI114496   4.078   5.595   9.165  0.0000  0.0000  0.0000
14497SI     SI114497   8.055   5.858   0.985  0.0000  0.0000  0.0000
14498SI     SI114498   6.614   8.951   0.635  0.0000  0.0000  0.0000
14499SI     SI114499   4.228   0.810   9.082  0.0000  0.0000  0.0000
14500SI     SI114500   6.055   5.076   1.120  0.0000  0.0000  0.0000
14501SI     SI114501   4.622   3.721   8.712  0.0000  0.0000  0.0000
14502SI     SI114502   9.474   1.691   0.518  0.0000  0.0000  0.0000
14503SI     SI114503   8.565   2.436   8.632  0.0000  0.0000  0.0000
14504SI     SI114504   0.536   6.663   0.966  0.0000  0.0000  0.0000
14505SI     SI114505   0.049   8.031   9.526  0.0000  0.0000  0.0000
14506SI     SI114506   0.278   3.553   9.222  0.0000  0.0000  0.0000
14507SI     SI114507   2.387   4.536   9.266  0.0000  0.0000  0.0000
14508SI     SI114508   8.812   2.460   0.540  0.0000  0.0000  0.0000
14509SI     SI114509   1.846   1.090   8.804  0.0000  0.0000  0.0000
14510SI     SI114510   8.451   0.182   0.162  0.0000  0.0000  0.0000
14511SI     SI114511   8.038   9.385   0.035  0.0000  0.0000  0.0000
14512SI     SI114512   1.412   5.015   0.049  0.0000  0.0000  0.0000
14513SI     SI114513   1.842   5.194   1.391  0.0000  0.0000  0.0000
14514SI     SI114514   2.080   3.377   1.066  0.0000  0.0000  0.0000
14515SI     SI114515   5.765   4.309   9.192  0.0000  0.0000  0.0000
14516SI     SI114516   0.625   5.071   9.418  0.0000  0.0000  0.0000
14517SI     SI114517   6.619   1.732   9.435  0.0000  0.0000  0.0000
14518SI     SI114518   7.107   9.396   1.131  0.0000  0.0000  0.0000
14519SI     SI114519   0.302   6.180   9.027  0.0000  0.0000  0.0000
14520SI     SI114520   3.577   2.047   1.323  0.0000  0.0000  0.0000
14521SI     SI114521   8.225   7.164   8.700  0.0000  0.0000  0.0000
14522SI     SI114522   2.387   8.119   9.556  0.0000  0.0000  0.0000
14523SI     SI114523   5.589   5.564   9.257  0.0000  0.0000  0.0000
14524SI     SI114524   4.350   1.622   9.492  0.0000  0.0000  0.0000
14525SI     SI114525   2.448   1.225   1.011  0.0000  0.0000  0.0000
14526SI     SI114526   0.667   1.255   8.271  0.0000  0.0000  0.0000
14527SI     SI114527   0.033   5.985   0.201  0.0000  0.0000  0.0000
14528SI     SI114528   7.204   2.733   0.425  0.0000  0.0000  0.0000
14529SI     SI114529   5.896   8.135   0.264  0.0000  0.0000  0.0000
14530SI     SI114530   1.726   8.149   0.582  0.0000  0.0000  0.0000
14531SI     SI114531   4.309   3.796   0.767  0.0000  0.0000  0.0000
14532SI     SI114532   7.894   2.695   8.303  0.0000  0.0000  0.0000
14533SI     SI114533   4.269   1.992   8.671  0.0000  0.0000  0.0000
14534SI     SI114534   1.027   3.261   9.181  0.0000  0.0000  0.0000
14535SI     SI114535   1.623   5.340   8.652  0.0000  0.0000  0.0000
14536SI     SI114536   5.307   3.347   8.690  0.0000  0.0000  0.0000
14537SI     SI114537   3.063   0.278   9.391  0.0000  0.0000  0.0000
14538SI     SI114538   9.420   4.608   8.846  0.0000  0.0000  0.0000
14539SI     SI114539   1.096   6.221   9.165  0.0000  0.0000  0.0000
14540SI     SI114540   4.983   2.811   8.362  0.0000  0.0000  0.0000
14541SI     SI114541   1.736   2.397   8.715  0.0000  0.0000  0.0000
14542SI     SI114542   6.805   1.652   0.078  0.0000  0.0000  0.0000
14543SI     SI114543   3.088   3.641   0.724  0.0000  0.0000  0.0000
14544SI     SI114544   0.176   1.740   0.471  0.0000  0.0000  0.0000
14545SI     SI114545   4.957   7.063   0.470  0.0000  0.0000  0.0000
14546SI     SI114546   1.202   2.676   9.426  0.0000  0.0000  0.0000
14547SI     SI114547   0.027   2.246   0.096  0.0000  0.0000  0.0000
14548SI     SI114548   1.746   7.988   8.778  0.0000  0.0000  0.0000
14549SI     SI114549   3.220   6.578   9.601  0.0000  0.0000  0.0000
14550SI     SI114550   5.639   8.169   9.321  0.0000  0.0000  0.0000
14551SI     SI114551   9.045   2.770   0.354  0.0000  0.0000  0.0000
14552SI     SI114552   5.164   0.639   0.490  0.0000  0.0000  0.0000
14553SI     SI114553   8.169   8.034   8.858  0.0000  0.0000  0.0000
14554SI     SI114554   0.696   5.555   8.883  0.0000  0.0000  0.0000
14555SI     SI114555   8.646   1.273   0.255  0.0000  0.0000  0.0000
14556SI     SI114556   7.265   8.924   1.236  0.0000  0.0000  0.0000
14557SI     SI114557   7.487   7.581   0.548  0.0000  0.0000  0.0000
14558SI     SI114558   5.919   1.256   0.357  0.0000  0.0000  0.0000
14559SI     SI114559   4.581   7.214   9.262  0.0000  0.0000  0.0000
14560SI     SI114560   3.989   3.232   8.989  0.0000  0.0000  0.0000
14561SI     SI114561   7.854   6.592   8.482  0.0000  0.0000  0.0000
14562SI     SI114562   9.524   0.715   8.914  0.0000  0.0000  0.0000
14563SI     SI114563   6.377   3.892   0.117  0.0000  0.0000  0.0000
14564SI     SI114564   0.544   4.772   1.185  0.0000  0.0000  0.0000
14565SI     SI114565   2.132   4.149   0.961  0.0000  0.0000  0.0000
14566SI     SI114566   4.992   8.572   9.248  0.0000  0.0000  0.0000
14567SI     SI114567   3.686   4.370   0.201  0.0000  0.0000  0.0000
14568SI     SI114568   1.257   6.338   0.430  0.0000  0.0000  0.0000
14569SI     SI114569   8.834   7.601   1.030  0.0000  0.0000  0.0000
14570SI     SI114570   4.540   8.980   9.493  0.0000  0.0000  0.0000
14571SI     SI114571   9.408   4.186   0.476  0.0000  0.0000  0.0000
14572SI     SI114572   0.337   8.574   8.415  0.0000  0.0000  0.0000
14573SI     SI114573   5.088   1.987   9.270  0.0000  0.0000  0.0000
14574SI     SI114574   7.723   8.851   0.780  0.0000  0.0000  0.0000
14575SI     SI114575   4.625   7.551   0.264  0.0000  0.0000  0.0000
14576SI     SI114576   6.223   9.311   9.380  0.0000  0.0000  0.0000
14577SI     SI114577   6.534   3.337   0.648  0.0000  0.0000  0.0000
14578SI     SI114578   8.392   5.037   0.609  0.0000  0.0000  0.0000
14579SI     SI114579   2.544   3.760   9.456  0.0000  0.0000  0.0000
14580SI     SI114580   1.866   5.444   0.431  0.0000  0.0000  0.0000
14581SI     SI114581   1.069   6.772   8.807  0.0000  0.0000  0.0000
14582SI     SI114582   0.158   0.757   8.709  0.0000  0.0000  0.0000
14583SI     SI114583   0.648   1.145   0.569  0.0000  0.0000  0.0000
14584SI     SI114584   1.892   2.638   9.545  0.0000  0.0000  0.0000
14585SI     SI114585   0.825   1.116   0.132  0.0000  0.0000  0.0000
14586SI     SI114586   0.026   9.247   9.440  0.0000  0.0000  0.0000
14587SI     SI114587   3.632   4.491   9.226  0.0000  0.0000  0.0000
14588SI     SI114588   0.689   3.300   0.979  0.0000  0.0000  0.0000
14589SI     SI114589   0.272   9.134   9.580  0.0000  0.0000  0.0000
14590SI     SI114590   2.760   0.485   9.582  0.0000  0.0000  0.0000
14591SI     SI114591   0.386   7.901   8.332  0.0000  0.0000  0.0000
14592SI     SI114592   3.455   5.389   8.232  0.0000  0.0000  0.0000
14593SI     SI114593   2.563   4.013   0.644  0.0000  0.0000  0.0000
14594SI     SI114594   5.955   7.046   8.661  0.0000  0.0000  0.0000
14595SI     SI114595   1.066   6.257   0.758  0.0000  0.0000  0.0000
14596SI     SI114596   9.004   0.171   1.290  0.0000  0.0000  0.0000
14597SI     SI114597   1.381   2.415   0.608  0.0000  0.0000  0.0000
14598SI     SI114598   0.436   8.662   9.178  0.0000  0.0000  0.0000
14599SI     SI114599   4.990   5.848   0.101  0.0000  0.0000  0.0000
14600SI     SI114600   0.958   1.167   0.558  0.0000  0.0000  0.0000
14601SI     SI114601   0.796   6.259   0.580  0.0000  0.0000  0.0000
14602SI     SI114602   4.564   7.231   0.809  0.0000  0.0000  0.0000
14603SI     SI114603   8.491   6.222   0.149  0.0000  0.0000  0.0000
14604SI     SI114604   2.369   4.855   1.114  0.0000  0.0000  0.0000
14605SI     SI114605   8.037   3.432   0.693  0.0000  0.0000  0.0000
14606SI     SI114606   8.910   4.019   0.602  0.0000  0.0000  0.0000
14607SI     SI114607   1.860   9.459   9.345  0.0000  0.0000  0.0000
14608SI     SI114608   4.199   3.158   1.014  0.0000  0.0000  0.0000
14609SI     SI114609   3.850   9.311   9.459  0.0000  0.0000  0.0000
14610SI     SI114610   1.836   2.448   9.002  0.0000  0.0000  0.0000
14611SI     SI114611   4.329   1.392   0.573  0.0000  0.0000  0.0000
14612SI     SI114612   3.132   1.274   8.445  0.0000  0.0000  0.0000
14613SI     SI114613   0.201   2.743   9.261  0.0000  0.0000  0.0000
14614SI     SI114614   6.887   6.622   9.405  0.0000  0.0000  0.0000
14615SI     SI114615   5.196   1.079   1.111  0.0000  0.0000  0.0000
14616SI     SI114616   6.501   8.599   9.004  0.0000  0.0000  0.0000
14617SI     SI114617   7.441   5.091   9.169  0.0000  0.0000  0.0000
14618SI     SI114618   4.068   2.010   0.106  0.0000  0.0000  0.0000
14619SI     SI114619   4.254   0.273   8.775  0.0000  0.0000  0.0000
14620SI     SI114620   7.324   5.348   9.050  0.0000  0.0000  0.0000
14621SI     SI114621   4.783   9.124   0.561  0.0000  0.0000  0.0000
14622SI     SI114622   6.196   5.797   8.367  0.0000  0.0000  0.0000
14623SI     SI114623   6.608   0.018   0.631  0.0000  0.0000  0.0000
14624SI     SI114624   2.537   6.181   8.621  0.0000  0.0000  0.0000
14625SI     SI114625   5.281   6.475   9.048  0.0000  0.0000  0.0000
14626SI     SI114626   3.733   6.182   0.333  0.0000  0.0000  0.0000
14627SI     SI114627   1.384   0.405   9.382  0.0000  0.0000  0.0000
14628SI     SI114628   1.401   2.412   8.305  0.0000  0.0000  0.0000
14629SI     SI114629   3.162   8.084   8.692  0.0000  0.0000  0.0000
14630SI     SI114630   3.862   3.935   0.806  0.0000  0.0000  0.0000
14631SI     SI114631   5.456   3.181   9.112  0.0000  0.0000  0.0000
14632SI     SI114632   6.702   1.604   8.241  0.0000  0.0000  0.0000
14633SI     SI114633   5.875   5.502   9.329  0.0000  0.0000  0.0000
14634SI     SI114634   7.855   1.328   8.430  0.0000  0.0000  0.0000
14635SI     SI114635   2.798   9.236   8.487  0.0000  0.0000  0.0000
14636SI     SI114636   5.365   8.812   0.157  0.0000  0.0000  0.0000
14637SI     SI114637   7.344   2.675   0.032  0.0000  0.0000  0.0000
14638SI     SI114638   2.922   0.614   8.701  0.0000  0.0000  0.0000
14639SI     SI114639   2.320   6.637   9.407  0.0000  0.0000  0.0000
14640SI     SI114640   8.111   0.242   9.417  0.0000  0.0000  0.0000
14641SI     SI114641   8.422   9.238   0.100  0.0000  0.0000  0.0000
14642SI     SI114642   4.408   6.843   1.142  0.0000  0.0000  0.0000
14643SI     SI114643   5.557   6.604   8.591  0.0000  0.0000  0.0000
14644SI     SI114644   4.138   6.517   9.441  0.0000  0.0000  0.0000
14645SI     SI114645   4.516   9.375   0.736  0.0000  0.0000  0.0000
14646SI     SI114646   9.180   2.293   0.287  0.0000  0.0000  0.0000
14647SI     SI114647   9.124   5.861   0.204  0.0000  0.0000  0.0000
14648SI     SI114648   3.561   4.111   1.331  0.0000  0.0000  0.0000
14649SI     SI114649   3.742   8.976   9.024  0.0000  0.0000  0.0000
14650SI     SI114650   4.989   2.336   8.250  0.0000  0.0000  0.0000
14651SI     SI114651   3.683   2.960   9.342  0.0000  0.0000  0.0000
14652SI     SI114652   7.258   4.448   0.168  0.0000  0.0000  0.0000
14653SI     SI114653   7.944   5.257   0.672  0.0000  0.0000  0.0000
14654SI     SI114654   0.819   1.888   8.370  0.0000  0.0000  0.0000
14655SI     SI114655   6.245   1.403   8.322  0.0000  0.0000  0.0000
14656SI     SI114656   5.978   2.248   0.842  0.0000  0.0000  0.0000
14657SI     SI114657   0.640   6.724   0.518  0.0000  0.0000  0.0000
14658SI     SI114658   7.501   3.431   9.215  0.0000  0.0000  0.0000
14659SI     SI114659   8.648   5.875   0.011  0.0000  0.0000  0.0000
14660SI     SI114660   9.103   7.972   8.389  0.0000  0.0000  0.0000
14661SI     SI114661   6.473   4.759   1.228  0.0000  0.0000  0.0000
14662SI     SI114662   4.452   2.768   1.209  0.0000  0.0000  0.0000
14663SI     SI114663   3.737   8.406   8.291  0.0000  0.0000  0.0000
14664SI     SI114664   6.997   1.873   9.296  0.0000  0.0000  0.0000
14665SI     SI114665   8.582   0.615   8.928  0.0000  0.0000  0.0000
14666SI     SI114666   4.823   8.398   0.724  0.0000  0.0000  0.0000
14667SI     SI114667   5.003   4.288   9.485  0.0000  0.0000  0.0000
14668SI     SI114668   3.579   5.252   0.317  0.0000  0.0000  0.0000
14669SI     SI114669   5.581   2.275   9.532  0.0000  0.0000  0.0000
14670SI     SI114670   3.248   8.800   0.393  0.0000  0.0000  0.0000
14671SI     SI114671   2.212   6.753   8.902  0.0000  0.0000  0.0000
14672SI     SI114672   5.910   3.883   9.493  0.0000  0.0000  0.0000
14673SI     SI114673   4.662   4.854   0.733  0.0000  0.0000  0.0000
14674SI     SI114674   8.034   7.537   8.846  0.0000  0.0000  0.0000
14675SI     SI114675   0.019   6.222   8.915  0.0000  0.0000  0.0000
14676SI     SI114676   4.862   4.210   0.640  0.0000  0.0000  0.0000
14677SI     SI114677   9.499   3.327   8.936  0.0000  0.0000  0.0000
14678SI     SI114678   8.006   2.420   0.143  0.0000  0.0000  0.0000
14679SI     SI114679   0.274   9.162   8.462  0.0000  0.0000  0.0000
14680SI     SI114680   4.006   1.414   1.385  0.0000  0.0000  0.0000
14681SI     SI114681   5.280   1.549   9.320  0.0000  0.0000  0.0000
14682SI     SI114682   3.865   2.851   8.859  0.0000  0.0000  0.0000
14683SI     SI114683   8.888   1.593   8.939  0.0000  0.0000  0.0000
14684SI     SI114684   3.073   4.205   1.221  0.0000  0.0000  0.0000
14685SI     SI114685   3.625   4.423   8.934  0.0000  0.0000  0.0000
14686SI     SI114686   2.001   4.124   0.148  0.0000  0.0000  0.0000
14687SI     SI114687   2.212   1.945   9.491  0.0000  0.0000  0.0000
14688SI     SI114688   7.721   9.297   9.350  0.0000  0.0000  0.0000
14689SI     SI114689   3.479   6.797   1.333  0.0000  0.0000  0.0000
14690SI     SI114690   3.268   8.191   8.202  0.0000  0.0000  0.0000
14691SI     SI114691   7.772   8.127   9.125  0.0000  0.0000  0.0000
14692SI     SI114692   4.293   7.838   1.363  0.0000  0.0000  0.0000
14693SI     SI114693   8.555   8.494   9.411  0.0000  0.0000  0.0000
14694SI     SI114694   8.596   2.795   8.947  0.0000  0.0000  0.0000
14695SI     SI114695   3.486   0.792   9.233  0.0000  0.0000  0.0000
14696SI     SI114696   5.676   4.486   0.408  0.0000  0.0000  0.0000
14697SI     SI114697   0.677   5.777   1.145  0.0000  0.0000  0.0000
14698SI     SI114698   8.558   4.471   9.430  0.0000  0.0000  0.0000
14699SI     SI114699   0.513   5.850   0.440  0.0000  0.0000  0.0000
14700SI     SI114700   3.500   4.785   8.749  0.0000  0.0000  0.0000
14701SI     SI114701   2.809   2.787   9.096  0.0000  0.0000  0.0000
14702SI     SI114702   8.768   4.534   0.756  0.0000  0.0000  0.0000
14703SI     SI114703   2.491   2.178   0.249  0.0000  0.0000  0.0000
14704SI     SI114704   4.186   6.061   9.392  0.0000  0.0000  0.0000
14705SI     SI114705   1.712   3.825   1.126  0.0000  0.0000  0.0000
14706SI     SI114706   9.248   6.189   0.763  0.0000  0.0000  0.0000
14707SI     SI114707   4.280   5.310   8.727  0.0000  0.0000  0.0000
14708SI     SI114708   9.090   6.467   9.568  0.0000  0.0000  0.0000
14709SI     SI114709   1.079   0.899   1.330  0.0000  0.0000  0.0000
14710SI     SI114710   8.664   5.217   8.206  0.0000  0.0000  0.0000
14711SI     SI114711   6.628   9.484   0.109  0.0000  0.0000  0.0000
14712SI     SI114712   1.518   9.102   9.267  0.0000  0.0000  0.0000
14713SI     SI114713   9.152   6.692   9.358  0.0000  0.0000  0.0000
14714SI     SI114714   2.517   5.905   8.719  0.0000  0.0000  0.0000
14715SI     SI114715   7.301   5.411   0.759  0.0000  0.0000  0.0000
14716SI     SI114716   6.222   4.221   0.868  0.0000  0.0000  0.0000
14717SI     SI114717   5.192   5.377   1.357  0.0000  0.0000  0.0000
14718SI     SI114718   2.706   7.452   8.731  0.0000  0.0000  0.0000
14719SI     SI114719   7.118   1.167   1.049  0.0000  0.0000  0.0000
14720SI     SI114720   8.187   7.281   9.462  0.0000  0.0000  0.0000
14721SI     SI114721   0.208   4.744   8.525  0.0000  0.0000  0.0000
14722SI     SI114722   0.688   8.958   0.731  0.0000  0.0000  0.0000
14723SI     SI114723   6.239   2.013   8.991  0.0000  0.0000  0.0000
14724SI     SI114724   5.979   2.898   9.160  0.0000  0.0000  0.0000
14725SI     SI114725   3.645   3.797   0.397  0.0000  0.0000  0.0000
14726SI     SI114726   6.174   0.540   0.817  0.0000  0.0000  0.0000
14727SI     SI114727   8.585   0.156   9.042  0.0000  0.0000  0.0000
14728SI     SI114728   0.095   3.469   0.556  0.0000  0.0000  0.0000
14729SI     SI114729   2.626   8.171   0.505  0.0000  0.0000  0.0000
14730SI     SI114730   6.320   2.720   9.222  0.0000  0.0000  0.0000
14731SI     SI114731   0.828   7.763   0.472  0.0000  0.0000  0.0000
14732SI     SI114732   0.826   9.453   8.584  0.0000  0.0000  0.0000
14733SI     SI114733   3.617   7.720   1.249  0.0000  0.0000  0.0000
14734SI     SI114734   7.718   8.687   0.271  0.0000  0.0000  0.0000
14735SI     SI114735   2.545   9.320   8.668  0.0000  0.0000  0.0000
14736SI     SI114736   5.100   9.576   1.286  0.0000  0.0000  0.0000
14737SI     SI114737   2.891   5.418   8.984  0.0000  0.0000  0.0000
14738SI     SI114738   5.846   6.817   0.737  0.0000  0.0000  0.0000
14739SI     SI114739   7.933   4.365   0.697  0.0000  0.0000  0.0000
14740SI     SI114740   4.221   3.179   9.422  0.0000  0.0000  0.0000
14741SI     SI114741   3.192   8.139   0.979  0.0000  0.0000  0.0000
14742SI     SI114742   3.646   0.778   0.182  0.0000  0.0000  0.0000
14743SI     SI114743   3.891   4.324   8.324  0.0000  0.0000  0.0000
14744SI     SI114744   4.734   1.810   0.741  0.0000  0.0000  0.0000
14745SI     SI114745   3.790   4.725   8.682  0.0000  0.0000  0.0000
14746SI     SI114746   7.805   0.473   1.136  0.0000  0.0000  0.0000
14747SI     SI114747   0.077   1.807   8.628  0.0000  0.0000  0.0000
14748SI     SI114748   1.598   8.765   8.261  0.0000  0.0000  0.0000
14749SI     SI114749   0.461   5.572   1.192  0.0000  0.0000  0.0000
14750SI     SI114750   6.174   0.102   0.001  0.0000  0.0000  0.0000
14751SI     SI114751   0.544   5.502   0.094  0.0000  0.0000  0.0000
14752SI     SI114752   1.920   6.779   9.282  0.0000  0.0000  0.0000
14753SI     SI114753   3.868   8.985   0.598  0.0000  0.0000  0.0000
14754SI     SI114754   4.235   2.213   9.588  0.0000  0.0000  0.0000
14755SI     SI114755   2.444   6.241   0.919  0.0000  0.0000  0.0000
14756SI     SI114756   9.277   8.424   1.279  0.0000  0.0000  0.0000
14757SI     SI114757   5.834   6.128   9.163  0.0000  0.0000  0.0000
14758SI     SI114758   5.887   5.303   8.588  0.0000  0.0000  0.0000
14759SI     SI114759   5.188   3.768   8.740  0.0000  0.0000  0.0000
14760SI     SI114760   0.173   8.161   1.107  0.0000  0.0000  0.0000
14761SI     SI114761   8.853   5.760   8.631  0.0000  0.0000  0.0000
14762SI     SI114762   8.076   6.657   0.247  0.0000  0.0000  0.0000
14763SI     SI114763   3.249   4.169   0.966  0.0000  0.0000  0.0000
14764SI     SI114764   2.456   4.427   0.098  0.0000  0.0000  0.0000
14765SI     SI114765   0.833   3.765   9.417  0.0000  0.0000  0.0000
14766SI     SI114766   2.222   7.172   0.480  0.0000  0.0000  0.0000
14767SI     SI114767   3.637   3.461   8.214  0.0000  0.0000  0.0000
14768SI     SI114768   5.293   2.650   9.482  0.0000  0.0000  0.0000
14769SI     SI114769   3.451   7.790   9.477  0.0000  0.0000  0.0000
14770SI     SI114770   5.956   6.245   0.908  0.0000  0.0000  0.0000
14771SI     SI114771   3.172   5.917   0.408  0.0000  0.0000  0.0000
14772SI     SI114772   0.621   2.816   0.644  0.0000  0.0000  0.0000
14773SI     SI114773   3.138   9.059   8.979  0.0000  0.0000  0.0000
14774SI     SI114774   6.751   2.485   0.643  0.0000  0.0000  0.0000
14775SI     SI114775   6.312   1.723   0.724  0.0000  0.0000  0.0000
14776SI     SI114776   0.789   1.003   8.865  0.0000  0.0000  0.0000
14777SI     SI114777   6.905   5.385   0.560  0.0000  0.0000  0.0000
14778SI     SI114778   8.565   7.901   8.472  0.0000  0.0000  0.0000
14779SI     SI114779   8.618   8.175   8.603  0.0000  0.0000  0.0000
14780SI     SI114780   3.307   8.848   8.819  0.0000  0.0000  0.0000
14781SI     SI114781   8.875   8.730   0.045  0.0000  0.0000  0.0000
14782SI     SI114782   6.952   7.192   9.306  0.0000  0.0000  0.0000
14783SI     SI114783   4.661   0.212   1.270  0.0000  0.0000  0.0000
14784SI     SI114784   2.966   8.003   9.497  0.0000  0.0000  0.0000
14785SI     SI114785   3.073   9.478   0.004  0.0000  0.0000  0.0000
14786SI     SI114786   3.075   4.151   0.706  0.0000  0.0000  0.0000
14787SI     SI114787   5.154   8.200   8.482  0.0000  0.0000  0.0000
14788SI     SI114788   1.562   8.283   1.026  0.0000  0.0000  0.0000
14789SI     SI114789   0.668   7.641   0.094  0.0000  0.0000  0.0000
14790SI     SI114790   7.216   4.025   0.898  0.0000  0.0000  0.0000
14791SI     SI114791   6.986   2.576   9.340  0.0000  0.0000  0.0000
14792SI     SI114792   7.137   0.268   8.704  0.0000  0.0000  0.0000
14793SI     SI114793   3.052   7.748   0.052  0.0000  0.0000  0.0000
14794SI     SI114794   8.094   6.963   9.151  0.0000  0.0000  0.0000
14795SI     SI114795   6.278   9.121   9.143  0.0000  0.0000  0.0000
14796SI     SI114796   2.895   4.464   9.113  0.0000  0.0000  0.0000
14797SI     SI114797   8.926   1.392   0.245  0.0000  0.0000  0.0000
14798SI     SI114798   0.972   0.139   9.239  0.0000  0.0000  0.0000
14799SI     SI114799   6.249   4.510   0.366  0.0000  0.0000  0.0000
14800SI     SI114800   3.551   2.559   9.038  0.0000  0.0000  0.0000
14801SI     SI114801   2.413   1.356   0.201  0.0000  0.0000  0.0000
14802SI     SI114802   4.406   2.930   9.366  0.0000  0.0000  0.0000
14803SI     SI114803   7.308   4.789   1.237  0.0000  0.0000  0.0000
14804SI     SI114804   8.540   8.642   0.586  0.0000  0.0000  0.0000
14805SI     SI114805   1.992   0.563   0.460  0.0000  0.0000  0.0000
14806SI     SI114806   9.407   9.064   9.316  0.0000  0.0000  0.0000
14807SI     SI114807   2.249   9.181   9.262  0.0000  0.0000  0.0000
14808SI     SI114808   3.567   7.070   0.399  0.0000  0.0000  0.0000
14809SI     SI114809   6.912   7.588   8.918  0.0000  0.0000  0.0000
14810SI     SI114810   7.136   8.244   0.296  0.0000  0.0000  0.0000
14811SI     SI114811   6.707   8.472   0.990  0.0000  0.0000  0.0000
14812SI     SI114812   3.324   1.495   0.497  0.0000  0.0000  0.0000
14813SI     SI114813   0.786   2.399   8.434  0.0000  0.0000  0.0000
14814SI     SI114814   0.633   6.849   0.226  0.0000  0.0000  0.0000
14815SI     SI114815   4.596   8.186   8.337  0.0000  0.0000  0.0000
14816SI     SI114816   5.211   8.499   8.485  0.0000  0.0000  0.0000
14817SI     SI114817   4.766   1.932   8.545  0.0000  0.0000  0.0000
14818SI     SI114818   6.803   2.227   0.466  0.0000  0.0000  0.0000
14819SI     SI114819   8.570   2.474   0.225  0.0000  0.0000  0.0000
14820SI     SI114820   8.572   8.243   0.133  0.0000  0.0000  0.0000
14821SI     SI114821   4.621   8.804   0.745  0.0000  0.0000  0.0000
14822SI     SI114822   1.419   6.507   0.627  0.0000  0.0000  0.0000
14823SI     SI114823   1.019   9.128   8.543  0.0000  0.0000  0.0000
14824SI     SI114824   7.064   7.775   1.004  0.0000  0.0000  0.0000
14825SI     SI114825   2.639   9.145   0.605  0.0000  0.0000  0.0000
14826SI     SI114826   9.483   6.049   8.486  0.0000  0.0000  0.0000
14827SI     SI114827   4.342   7.590   9.215  0.0000  0.0000  0.0000
14828SI     SI114828   6.632   2.715   9.025  0.0000  0.0000  0.0000
14829SI     SI114829   4.238   8.445   9.506  0.0000  0.0000  0.0000
14830SI     SI114830   7.650   5.256   8.646  0.0000  0.0000  0.0000
14831SI     SI114831   1.273   6.030   0.716  0.0000  0.0000  0.0000
14832SI     SI114832   8.318   5.326   1.368  0.0000  0.0000  0.0000
14833SI     SI114833   2.776   1.060   8.777  0.0000  0.0000  0.0000
14834SI     SI114834   2.140   1.073   1.300  0.0000  0.0000  0.0000
14835SI     SI114835   9.181   5.114   1.415  0.0000  0.0000  0.0000
14836SI     SI114836   2.608   6.888   1.269  0.0000  0.0000  0.0000
14837SI     SI114837   7.550   8.210   1.005  0.0000  0.0000  0.0000
14838SI     SI114838   5.440   4.217   0.140  0.0000  0.0000  0.0000
14839SI     SI114839   3.950   0.229   0.912  0.0000  0.0000  0.0000
14840SI     SI114840   0.974   6.919   1.015  0.0000  0.0000  0.0000
14841SI     SI114841   6.985   3.402   0.012  0.0000  0.0000  0.0000
14842SI     SI114842   2.949   4.011   8.883  0.0000  0.0000  0.0000
14843SI     SI114843   3.930   8.838   9.341  0.0000  0.0000  0.0000
14844SI     SI114844   3.998   4.868   9.326  0.0000  0.0000  0.0000
14845SI     SI114845   8.987   5.269   1.000  0.0000  0.0000  0.0000
14846SI     SI114846   2.158   5.273   9.333  0.0000  0.0000  0.0000
14847SI     SI114847   9.279   7.472   9.174  0.0000  0.0000  0.0000
14848SI     SI114848   9.169   4.316   1.063  0.0000  0.0000  0.0000
14849SI     SI114849   2.540   5.104   1.125  0.0000  0.0000  0.0000
14850SI     SI114850   9.352   3.386   0.804  0.0000  0.0000  0.0000
14851SI     SI114851   3.699   8.723   0.200  0.0000  0.0000  0.0000
14852SI     SI114852   4.305   6.501   0.767  0.0000  0.0000  0.0000
14853SI     SI114853   7.790   1.724   0.602  0.0000  0.0000  0.0000
14854SI     SI114854   1.345   5.905   0.256  0.0000  0.0000  0.0000
14855SI     SI114855   6.003   1.054   9.351  0.0000  0.0000  0.0000
14856SI     SI114856   1.141   1.761   0.223  0.0000  0.0000  0.0000
14857SI     SI114857   0.264   4.436   1.394  0.0000  0.0000  0.0000
14858SI     SI114858   1.895   7.116   1.162  0.0000  0.0000  0.0000
14859SI     SI114859   4.660   5.773   8.807  0.0000  0.0000  0.0000
14860SI     SI114860   0.383   7.766   8.618  0.0000  0.0000  0.0000
14861SI     SI114861   3.729   4.787   0.539  0.0000  0.0000  0.0000
14862SI     SI114862   9.387   3.111   0.955  0.0000  0.0000  0.0000
14863SI     SI114863   2.271   7.953   0.832  0.0000  0.0000  0.0000
14864SI     SI114864   1.749   2.201   0.046  0.0000  0.0000  0.0000
14865SI     SI114865   7.609   0.999   0.643  0.0000  0.0000  0.0000
14866SI     SI114866   9.248   2.913   8.728  0.0000  0.0000  0.0000
14867SI     SI114867   2.752   1.268   9.460  0.0000  0.0000  0.0000
14868SI     SI114868   5.757   5.335   0.885  0.0000  0.0000  0.0000
14869SI     SI114869   8.915   8.592   8.680  0.0000  0.0000  0.0000
14870SI     SI114870   5.913   0.703   0.346  0.0000  0.0000  0.0000
14871SI     SI114871   3.047   6.718   0.475  0.0000  0.0000  0.0000
14872SI     SI114872   7.506   8.260   8.241  0.0000  0.0000  0.0000
14873SI     SI114873   4.773   1.327   9.319  0.0000  0.0000  0.0000
14874SI     SI114874   8.762   6.636   8.877  0.0000  0.0000  0.0000
14875SI     SI114875   8.976   3.553   9.308  0.0000  0.0000  0.0000
14876SI     SI114876   1.169   0.296   8.823  0.0000  0.0000  0.0000
14877SI     SI114877   2.694   7.471   8.220  0.0000  0.0000  0.0000
14878SI     SI114878   8.891   8.840   8.518  0.0000  0.0000  0.0000
14879SI     SI114879   2.524   4.135   0.195  0.0000  0.0000  0.0000
14880SI     SI114880   2.997   0.742   8.242  0.0000  0.0000  0.0000
14881SI     SI114881   2.080   4.453   1.332  0.0000  0.0000  0.0000
14882SI     SI114882   5.153   1.801   0.305  0.0000  0.0000  0.0000
14883SI     SI114883   5.597   7.480   1.358  0.0000  0.0000  0.0000
14884SI     SI114884   5.210   0.219   1.127  0.0000  0.0000  0.0000
14885SI     SI114885   3.775   5.154   9.039  0.0000  0.0000  0.0000
14886SI     SI114886   5.545   5.982   8.911  0.0000  0.0000  0.0000
14887SI     SI114887   0.567   6.660   1.261  0.0000  0.0000  0.0000
14888SI     SI114888   5.622   3.571   0.646  0.0000  0.0000  0.0000
14889SI     SI114889   5.910   9.529   9.055  0.0000  0.0000  0.0000
14890SI     SI114890   8.183   2.760   9.120  0.0000  0.0000  0.0000
14891SI     SI114891   6.764   6.794   9.177  0.0000  0.0000  0.0000
14892SI     SI114892   4.212   2.475   8.457  0.0000  0.0000  0.0000
14893SI     SI114893   1.342   1.291   8.320  0.0000  0.0000  0.0000
14894SI     SI114894   7.428   3.551   0.722  0.0000  0.0000  0.0000
14895SI     SI114895   9.580   0.111   8.380  0.0000  0.0000  0.0000
14896SI     SI114896   3.916   0.944   8.656  0.0000  0.0000  0.0000
14897SI     SI114897   0.987   3.459   8.745  0.0000  0.0000  0.0000
14898SI     SI114898   1.886   5.219   9.192  0.0000  0.0000  0.0000
14899SI     SI114899   2.955   0.483   8.988  0.0000  0.0000  0.0000
14900SI     SI114900   7.410   7.382   8.467  0.0000  0.0000  0.0000
14901SI     SI114901   7.514   9.496   9.003  0.0000  0.0000  0.0000
14902SI     SI114902   1.884   0.029   8.742  0.0000  0.0000  0.0000
14903SI     SI114903   2.616   8.908   9.514  0.0000  0.0000  0.0000
14904SI     SI114904   5.484   7.200   9.384  0.0000  0.0000  0.0000
14905SI     SI114905   8.011   3.005   9.190  0.0000  0.0000  0.0000
14906SI     SI114906   6.678   3.897   1.122  0.0000  0.0000  0.0000
14907SI     SI114907   3.030   8.976   0.493  0.0000  0.0000  0.0000
14908SI     SI114908   6.967   8.981   1.193  0.0000  0.0000  0.0000
14909SI     SI114909   7.849   3.513   0.453  0.0000  0.0000  0.0000
14910SI     SI114910   0.545   5.091   0.406  0.0000  0.0000  0.0000
14911SI     SI114911   0.853   4.849   8.686  0.0000  0.0000  0.0000
14912SI     SI114912   7.211   8.226   9.084  0.0000  0.0000  0.0000
14913SI     SI114913   4.936   0.591   0.278  0.0000  0.0000  0.0000
14914SI     SI114914   1.513   1.119   9.431  0.0000  0.0000  0.0000
14915SI     SI114915   5.847   1.974   0.854  0.0000  0.0000  0.0000
14916SI     SI114916   3.658   3.247   9.283  0.0000  0.0000  0.0000
14917SI     SI114917   0.765   2.814   0.010  0.0000  0.0000  0.0000
14918SI     SI114918   0.357   4.034   0.798  0.0000  0.0000  0.0000
14919SI     SI114919   8.985   6.158   8.808  0.0000  0.0000  0.0000
14920SI     SI114920   2.070   7.012   8.849  0.0000  0.0000  0.0000
14921SI     SI114921   3.357   2.387   8.862  0.0000  0.0000  0.0000
14922SI     SI114922   6.679   8.383   0.490  0.0000  0.0000  0.0000
14923SI     SI114923   7.546   1.533   8.760  0.0000  0.0000  0.0000
14924SI     SI114924   3.044   2.722   0.686  0.0000  0.0000  0.0000
14925SI     SI114925   2.672   1.005   9.295  0.0000  0.0000  0.0000
14926SI     SI114926   0.570   4.545   0.285  0.0000  0.0000  0.0000
14927SI     SI114927   8.382   4.766   9.019  0.0000  0.0000  0.0000
14928SI     SI114928   6.117   2.307   9.015  0.0000  0.0000  0.0000
14929SI     SI114929   9.060   0.372   0.800  0.0000  0.0000  0.0000
14930SI     SI114930   2.118   2.292   0.819  0.0000  0.0000  0.0000
14931SI     SI114931   7.310   1.655   9.495  0.0000  0.0000  0.0000
14932SI     SI114932   0.059   9.498   0.909  0.0000  0.0000  0.0000
14933SI     SI114933   2.892   4.205   0.218  0.0000  0.0000  0.0000
14934SI     SI114934   7.482   4.579   9.021  0.0000  0.0000  0.0000
14935SI     SI114935   7.584   7.836   1.408  0.0000  0.0000  0.0000
14936SI     SI114936   2.366   8.972   9.055  0.0000  0.0000  0.0000
14937SI     SI114937   2.940   7.195   9.131  0.0000  0.0000  0.0000
14938SI     SI114938   2.668   6.921   9.359  0.0000  0.0000  0.0000
14939SI     SI114939   1.661   7.962   9.286  0.0000  0.0000  0.0000
14940SI     SI114940   5.999   4.196   9.045  0.0000  0.0000  0.0000
14941SI     SI114941   9.547   0.922   0.520  0.0000  0.0000  0.0000
14942SI     SI114942   8.132   1.040   0.742  0.0000  0.0000  0.0000
14943SI     SI114943   3.077   8.343   0.508  0.0000  0.0000  0.0000
14944SI     SI114944   8.785   4.505   1.073  0.0000  0.0000  0.0000
14945SI     SI114945   4.711   4.921   9.173  0.0000  0.0000  0.0000
14946SI     SI114946   3.124   4.979   0.195  0.0000  0.0000  0.0000
14947SI     SI114947   3.215   5.807   8.825  0.0000  0.0000  0.0000
14948SI     SI114948   2.873   0.496   0.643  0.0000  0.0000  0.0000
14949SI     SI114949   6.606   0.776   0.628  0.0000  0.0000  0.0000
14950SI     SI114950   2.326   5.433   0.590  0.0000  0.0000  0.0000
14951SI     SI114951   2.115   0.047   0.986  0.0000  0.0000  0.0000
14952SI     SI114952   9.355   3.875   0.809  0.0000  0.0000  0.0000
14953SI     SI114953   1.440   2.853   0.139  0.0000  0.0000  0.0000
14954SI     SI114954   1.225   1.931   9.347  0.0000  0.0000  0.0000
14955SI     SI114955   1.510   5.449   0.057  0.0000  0.0000  0.0000
14956SI     SI114956   2.618   8.477   8.328  0.0000  0.0000  0.0000
14957SI     SI114957   1.904   7.871   8.540  0.0000  0.0000  0.0000
14958SI     SI114958   8.287   3.054   8.733  0.0000  0.0000  0.0000
14959SI     SI114959   4.853   0.684   9.046  0.0000  0.0000  0.0000
14960SI     SI114960   3.246   7.445   0.196  0.0000  0.0000  0.0000
14961SI     SI114961   1.459   8.679   0.743  0.0000  0.0000  0.0000
14962SI     SI114962   5.602   4.022   8.573  0.0000  0.0000  0.0000
14963SI     SI114963   6.803   6.344   9.309  0.0000  0.0000  0.0000
14964SI     SI114964   0.065   9.294   0.477  0.0000  0.0000  0.0000
14965SI     SI114965   8.473   2.353   9.076  0.0000  0.0000  0.0000
14966SI     SI114966   4.503   0.617   9.413  0.0000  0.0000  0.0000
14967SI     SI114967   7.980   1.926   0.212  0.0000  0.0000  0.0000
14968SI     SI114968   0.933   8.216   1.141  0.0000  0.0000  0.0000
14969SI     SI114969   7.643   0.136   0.834  0.0000  0.0000  0.0000
14970SI     SI114970   1.056   3.018   8.976  0.0000  0.0000  0.0000
14971SI     SI114971   5.897   8.446   0.269  0.0000  0.0000  0.0000
14972SI     SI114972   5.487   0.249   0.348  0.0000  0.0000  0.0000
14973SI     SI114973   5.311   2.012   0.759  0.0000  0.0000  0.0000
14974SI     SI114974   8.740   1.075   0.707  0.0000  0.0000  0.0000
14975SI     SI114975   7.226   6.146   0.582  0.0000  0.0000  0.0000
14976SI     SI114976   6.812   7.045   8.818  0.0000  0.0000  0.0000
14977SI     SI114977   5.366   9.367   9.002  0.0000  0.0000  0.0000
14978SI     SI114978   9.144   8.246   8.727  0.0000  0.0000  0.0000
14979SI     SI114979   6.259   6.719   9.130  0.0000  0.0000  0.0000
14980SI     SI114980   5.128   5.795   9.204  0.0000  0.0000  0.0000
14981SI     SI114981   8.959   1.468   8.444  0.0000  0.0000  0.0000
14982SI     SI114982   2.053   9.509   0.167  0.0000  0.0000  0.0000
14983SI     SI114983   6.370   5.789   0.489  0.0000  0.0000  0.0000
14984SI     SI114984   2.447   0.775   0.535  0.0000  0.0000  0.0000
14985SI     SI114985   1.598   9.494   1.330  0.0000  0.0000  0.0000
14986SI     SI114986   6.171   7.422   8.835  0.0000  0.0000  0.0000
14987SI     SI114987   2.591   5.744   0.007  0.0000  0.0000  0.0000
14988SI     SI114988   2.221   3.272   9.469  0.0000  0.0000  0.0000
14989SI     SI114989   8.462   6.674   9.235  0.0000  0.0000  0.0000
14990SI     SI114990   5.992   0.169   0.465  0.0000  0.0000  0.0000
14991SI     SI114991   8.937   3.322   0.073  0.0000  0.0000  0.0000
14992SI     SI114992   9.402   4.927   0.162  0.0000  0.0000  0.0000
14993SI     SI114993   0.617   6.470   0.059  0.0000  0.0000  0.0000
14994SI     SI114994   8.796   8.395   8.466  0.0000  0.0000  0.0000
14995SI     SI114995   3.877   5.318   0.351  0.0000  0.0000  0.0000
14996SI     SI114996   8.772   1.145   1.148  0.0000  0.0000  0.0000
14997SI     SI114997   5.844   0.968   9.593  0.0000  0.0000  0.0000
14998SI     SI114998   3.104   7.679   8.503  0.0000  0.0000  0.0000
14999SI     SI114999   7.734   6.505   9.316  0.0000  0.0000  0.0000
15000SI     SI115000   3.757   1.198   9.054  0.0000  0.0000  0.0000
15001SI     SI115001   3.956   0.645   9.503  0.0000  0.0000  0.0000
15002SI     SI115002   6.985   6.982   9.065  0.0000  0.0000  0.0000
15003SI     SI115003   7.093   1.923   8.285  0.0000  0.0000  0.0000
15004SI     SI115004   7.054   6.542   0.959  0.0000  0.0000  0.0000
15005SI     SI115005   5.868   2.882   0.219  0.0000  0.0000  0.0000
15006SI     SI115006   6.197   4.547   8.296  0.0000  0.0000  0.0000
15007SI     SI115007   1.319   3.943   0.839  0.0000  0.0000  0.0000
15008SI     SI115008   8.848   7.163   0.693  0.0000  0.0000  0.0000
15009SI     SI115009   4.640   0.552   0.920  0.0000  0.0000  0.0000
15010SI     SI115010   7.535   5.431   8.852  0.0000  0.0000  0.0000
15011SI     SI115011   8.940   2.550   9.053  0.0000  0.0000  0.0000
15012SI     SI115012   4.986   5.070   9.205  0.0000  0.0000  0.0000
15013SI     SI115013   4.618   8.460   9.013  0.0000  0.0000  0.0000
15014SI     SI115014   3.017   1.948   1.099  0.0000  0.0000  0.0000
15015SI     SI115015   6.861   1.653   1.030  0.0000  0.0000  0.0000
15016SI     SI115016   3.720   8.801   1.012  0.0000  0.0000  0.0000
15017SI     SI115017   7.240   2.565   8.625  0.0000  0.0000  0.0000
15018SI     SI115018   3.238   3.515   8.833  0.0000  0.0000  0.0000
15019SI     SI115019   1.660   5.190   0.008  0.0000  0.0000  0.0000
15020SI     SI115020   5.043   9.373   9.297  0.0000  0.0000  0.0000
15021SI     SI115021   9.283   6.459   0.663  0.0000  0.0000  0.0000
15022SI     SI115022   7.819   1.281   0.153  0.0000  0.0000  0.0000
15023SI     SI115023   5.167   7.241   1.328  0.0000  0.0000  0.0000
15024SI     SI115024   4.338   7.028   0.899  0.0000  0.0000  0.0000
15025SI     SI115025   7.812   6.484   0.193  0.0000  0.0000  0.0000
15026SI     SI115026   0.472   0.404   9.101  0.0000  0.0000  0.0000
15027SI     SI115027   8.124   5.058   9.351  0.0000  0.0000  0.0000
15028SI     SI115028   0.255   6.174   9.334  0.0000  0.0000  0.0000
15029SI     SI115029   3.966   1.651   1.207  0.0000  0.0000  0.0000
15030SI     SI115030   5.301   4.588   1.345  0.0000  0.0000  0.0000
15031SI     SI115031   1.673   7.335   1.136  0.0000  0.0000  0.0000
15032SI     SI115032   4.665   1.074   9.164  0.0000  0.0000  0.0000
15033SI     SI115033   0.258   7.466   8.345  0.0000  0.0000  0.0000
15034SI     SI115034   7.569   7.178   9.018  0.0000  0.0000  0.0000
15035SI     SI115035   8.967   4.631   8.613  0.0000  0.0000  0.0000
15036SI     SI115036   1.011   7.522   1.190  0.0000  0.0000  0.0000
15037SI     SI115037   0.844   0.154   0.656  0.0000  0.0000  0.0000
15038SI     SI115038   1.404   4.800   0.869  0.0000  0.0000  0.0000
15039SI     SI115039   4.715   0.476   8.604  0.0000  0.0000  0.0000
15040SI     SI115040   4.657   9.262   9.511  0.0000  0.0000  0.0000
15041SI     SI115041   1.600   4.754   9.297  0.0000  0.0000  0.0000
15042SI     SI115042   3.816   6.858   0.895  0.0000  0.0000  0.0000
15043SI     SI115043   7.092   2.217   9.005  0.0000  0.0000  0.0000
15044SI     SI115044   1.029   4.961   0.954  0.0000  0.0000  0.0000
15045SI     SI115045   5.239   1.445   8.344  0.0000  0.0000  0.0000
15046SI     SI115046   3.811   1.328   0.580  0.0000  0.0000  0.0000
15047SI     SI115047   8.623   2.929   0.097  0.0000  0.0000  0.0000
15048SI     SI115048   2.939   1.712   9.422  0.0000  0.0000  0.0000
15049SI     SI115049   8.563   2.908   0.791  0.0000  0.0000  0.0000
15050SI     SI115050   7.124   1.788   1.047  0.0000  0.0000  0.0000
15051SI     SI115051   4.730   0.793   9.301  0.0000  0.0000  0.0000
15052SI     SI115052   8.818   6.557   0.913  0.0000  0.0000  0.0000
15053SI     SI115053   1.305   2.695   0.611  0.0000  0.0000  0.0000
15054SI     SI115054   2.880   4.027   9.391  0.0000  0.0000  0.0000
15055SI     SI115055   1.871   9.314   9.599  0.0000  0.0000  0.0000
15056SI     SI115056   7.606   7.903   0.103  0.0000  0.0000  0.0000
15057SI     SI115057   6.336   9.493   8.793  0.0000  0.0000  0.0000
15058SI     SI115058   0.829   4.759   0.009  0.0000  0.0000  0.0000
15059SI     SI115059   6.419   9.253   1.076  0.0000  0.0000  0.0000
15060SI     SI115060   7.983   1.842   9.221  0.0000  0.0000  0.0000
15061SI     SI115061   1.949   5.737   0.365  0.0000  0.0000  0.0000
15062SI     SI115062   6.852   9.047   8.376  0.0000  0.0000  0.0000
15063SI     SI115063   1.448   5.386   8.399  0.0000  0.0000  0.0000
15064SI     SI115064   4.907   2.768   0.925  0.0000  0.0000  0.0000
15065SI     SI115065   0.707   1.421   8.908  0.0000  0.0000  0.0000
15066SI     SI115066   5.879   7.130   0.721  0.0000  0.0000  0.0000
15067SI     SI115067   6.556   6.217   8.594  0.0000  0.0000  0.0000
15068SI     SI115068   3.546   6.401   9.242  0.0000  0.0000  0.0000
15069SI     SI115069   8.252   6.796   8.431  0.0000  0.0000  0.0000
15070SI     SI115070   2.180   7.498   1.379  0.0000  0.0000  0.0000
15071SI     SI115071   3.067   8.361   8.797  0.0000  0.0000  0.0000
15072SI     SI115072   7.326   4.614   1.012  0.0000  0.0000  0.0000
15073SI     SI115073   2.658   5.641   9.325  0.0000  0.0000  0.0000
15074SI     SI115074   6.156   2.906   8.270  0.0000  0.0000  0.0000
15075SI     SI115075   9.496   5.973   8.795  0.0000  0.0000  0.0000
15076SI     SI115076   1.872   9.061   0.416  0.0000  0.0000  0.0000
15077SI     SI115077   4.919   9.562   9.521  0.0000  0.0000  0.0000
15078SI     SI115078   1.778   4.537   9.211  0.0000  0.0000  0.0000
15079SI     SI115079   3.942   8.608   8.420  0.0000  0.0000  0.0000
15080SI     SI115080   4.274   1.568   8.488  0.0000  0.0000  0.0000
15081SI     SI115081   2.669   2.752   8.643  0.0000  0.0000  0.0000
15082SI     SI115082   1.697   4.062   8.476  0.0000  0.0000  0.0000
15083SI     SI115083   4.247   9.313   9.176  0.0000  0.0000  0.0000
15084SI     SI115084   3.907   6.760   1.353  0.0000  0.0000  0.0000
15085SI     SI115085   8.015   8.892   0.081  0.0000  0.0000  0.0000
15086SI     SI115086   6.146   3.555   1.185  0.0000  0.0000  0.0000
15087SI     SI115087   9.402   1.378   0.855  0.0000  0.0000  0.0000
15088SI     SI115088   0.902   2.730   9.353  0.0000  0.0000  0.0000
15089SI     SI115089   7.134   3.512   8.676  0.0000  0.0000  0.0000
15090SI     SI115090   4.208   7.376   0.561  0.0000  0.0000  0.0000
15091SI     SI115091   7.871   7.524   0.775  0.0000  0.0000  0.0000
15092SI     SI115092   0.781   7.995   0.680  0.0000  0.0000  0.0000
15093SI     SI115093   7.535   8.896   0.373  0.0000  0.0000  0.0000
15094SI     SI115094   6.157   9.430   0.681  0.0000  0.0000  0.0000
15095SI     SI115095   6.248   3.907   0.843  0.0000  0.0000  0.0000
15096SI     SI115096   3.761   0.055   0.552  0.0000  0.0000  0.0000
15097SI     SI115097   8.957   2.160   8.512  0.0000  0.0000  0.0000
15098SI     SI115098   7.743   5.040   0.590  0.0000  0.0000  0.0000
15099SI     SI115099   7.834   3.011   8.328  0.0000  0.0000  0.0000
15100SI     SI115100   0.063   1.509   8.518  0.0000  0.0000  0.0000
15101SI     SI115101   6.430   9.512   9.247  0.0000  0.0000  0.0000
15102SI     SI115102   9.229   0.538   8.297  0.0000  0.0000  0.0000
15103SI     SI115103   9.425   7.674   0.692  0.0000  0.0000  0.0000
15104SI     SI115104   5.046   7.968   0.018  0.0000  0.0000  0.0000
15105SI     SI115105   4.617   1.404   0.454  0.0000  0.0000  0.0000
15106SI     SI115106   7.625   3.971   8.536  0.0000  0.0000  0.0000
15107SI     SI115107   4.985   0.413   8.705  0.0000  0.0000  0.0000
15108SI     SI115108   0.543   2.908   8.757  0.0000  0.0000  0.0000
15109SI     SI115109   2.317   2.400   1.245  0.0000  0.0000  0.0000
15110SI     SI115110   8.981   3.058   0.467  0.0000  0.0000  0.0000
15111SI     SI115111   6.455   5.272   9.297  0.0000  0.0000  0.0000
15112SI     SI115112   3.624   4.118   9.004  0.0000  0.0000  0.0000
15113SI     SI115113   6.019   8.793   1.100  0.0000  0.0000  0.0000
15114SI     SI115114   6.175   8.998   8.416  0.0000  0.0000  0.0000
15115SI     SI115115   0.876   9.482   0.916  0.0000  0.0000  0.0000
15116SI     SI115116   0.794   8.653   8.644  0.0000  0.0000  0.0000
15117SI     SI115117   3.614   2.864   9.049  0.0000  0.0000  0.0000
15118SI     SI115118   6.015   5.172   0.381  0.0000  0.0000  0.0000
15119SI     SI115119   8.354   4.574   1.035  0.0000  0.0000  0.0000
15120SI     SI115120   8.276   6.687   8.835  0.0000  0.0000  0.0000
15121SI     SI115121   1.708   3.076   0.990  0.0000  0.0000  0.0000
15122SI     SI115122   3.788   1.310   9.351  0.0000  0.0000  0.0000
15123SI     SI115123   2.557   8.073   0.801  0.0000  0.0000  0.0000
15124SI     SI115124   0.063   4.140   8.849  0.0000  0.0000  0.0000
15125SI     SI115125   7.244   7.672   0.373  0.0000  0.0000  0.0000
15126SI     SI115126   4.043   1.079   8.400  0.0000  0.0000  0.0000
15127SI     SI115127   3.988   5.144   1.394  0.0000  0.0000  0.0000
15128SI     SI115128   5.056   4.541   8.836  0.0000  0.0000  0.0000
15129SI     SI115129   8.045   0.890   1.287  0.0000  0.0000  0.0000
15130SI     SI115130   9.568   8.572   0.317  0.0000  0.0000  0.0000
15131SI     SI115131   5.276   4.317   0.892  0.0000  0.0000  0.0000
15132SI     SI115132   2.851   1.065   1.045  0.0000  0.0000  0.0000
15133SI     SI115133   5.530   0.128   8.307  0.0000  0.0000  0.0000
15134SI     SI115134   1.582   2.813   0.682  0.0000  0.0000  0.0000
15135SI     SI115135   0.281   8.513   8.967  0.0000  0.0000  0.0000
15136SI     SI115136   8.569   0.362   1.210  0.0000  0.0000  0.0000
15137SI     SI115137   8.341   9.241   1.076  0.0000  0.0000  0.0000
15138SI     SI115138   7.639   0.427   9.149  0.0000  0.0000  0.0000
15139SI     SI115139   3.935   1.546   0.736  0.0000  0.0000  0.0000
15140SI     SI115140   4.154   4.072   8.547  0.0000  0.0000  0.0000
15141SI     SI115141   4.901   5.339   9.096  0.0000  0.0000  0.0000
15142SI     SI115142   3.116   2.093   8.559  0.0000  0.0000  0.0000
15143SI     SI115143   4.378   6.499   8.474  0.0000  0.0000  0.0000
15144SI     SI115144   6.695   4.283   9.215  0.0000  0.0000  0.0000
15145SI     SI115145   8.543   5.507   8.253  0.0000  0.0000  0.0000
15146SI     SI115146   6.116   4.803   8.680  0.0000  0.0000  0.0000
15147SI     SI115147   7.709   1.827   0.321  0.0000  0.0000  0.0000
15148SI     SI115148   1.397   8.064   0.018  0.0000  0.0000  0.0000
15149SI     SI115149   0.180   3.035   1.170  0.0000  0.0000  0.0000
15150SI     SI115150   9.339   4.690   9.338  0.0000  0.0000  0.0000
15151SI     SI115151   6.813   2.033   8.371  0.0000  0.0000  0.0000
15152SI     SI115152   2.749   4.235   8.951  0.0000  0.0000  0.0000
15153SI     SI115153   3.711   6.313   8.849  0.0000  0.0000  0.0000
15154SI     SI115154   9.067   0.847   0.536  0.0000  0.0000  0.0000
15155SI     SI115155   5.525   6.051   9.188  0.0000  0.0000  0.0000
15156SI     SI115156   6.604   6.451   8.389  0.0000  0.0000  0.0000
15157SI     SI115157   8.636   0.387   0.486  0.0000  0.0000  0.0000
15158SI     SI115158   1.828   9.402   8.933  0.0000  0.0000  0.0000
15159SI     SI115159   5.291   5.509   0.314  0.0000  0.0000  0.0000
15160SI     SI115160   2.038   0.420   9.024  0.0000  0.0000  0.0000
15161SI     SI115161   3.917   4.471   8.816  0.0000  0.0000  0.0000
15162SI     SI115162   5.572   3.905   1.122  0.0000  0.0000  0.0000
15163SI     SI115163   9.395   3.648   9.290  0.0000  0.0000  0.0000
15164SI     SI115164   4.172   7.193   9.235  0.0000  0.0000  0.0000
15165SI     SI115165   2.924   6.586   8.464  0.0000  0.0000  0.0000
15166SI     SI115166   7.149   2.929   0.012  0.0000  0.0000  0.0000
15167SI     SI115167   7.668   6.355   0.447  0.0000  0.0000  0.0000
15168SI     SI115168   8.347   0.764   8.614  0.0000  0.0000  0.0000
15169SI     SI115169   1.031   2.344   8.609  0.0000  0.0000  0.0000
15170SI     SI115170   2.800   1.006   0.320  0.0000  0.0000  0.0000
15171SI     SI115171   6.370   0.442   0.385  0.0000  0.0000  0.0000
15172SI     SI115172   1.150   5.265   9.241  0.0000  0.0000  0.0000
15173SI     SI115173   9.086   4.073   8.430  0.0000  0.0000  0.0000
15174SI     SI115174   1.865   9.421   8.507  0.0000  0.0000  0.0000
15175SI     SI115175   8.551   8.153   0.757  0.0000  0.0000  0.0000
15176SI     SI115176   0.629   8.214   1.198  0.0000  0.0000  0.0000
15177SI     SI115177   9.279   0.276   8.714  0.0000  0.0000  0.0000
15178SI     SI115178   6.256   0.164   0.297  0.0000  0.0000  0.0000
15179SI     SI115179   8.592   7.145   9.085  0.0000  0.0000  0.0000
15180SI     SI115180   8.075   6.619   0.557  0.0000  0.0000  0.0000
15181SI     SI115181   3.573   0.292   0.625  0.0000  0.0000  0.0000
15182SI     SI115182   9.162   3.606   9.075  0.0000  0.0000  0.0000
15183SI     SI115183   2.599   1.996   9.152  0.0000  0.0000  0.0000
15184SI     SI115184   5.117   6.666   1.050  0.0000  0.0000  0.0000
15185SI     SI115185   2.411   7.038   9.261  0.0000  0.0000  0.0000
15186SI     SI115186   6.997   1.248   0.186  0.0000  0.0000  0.0000
15187SI     SI115187   6.725   7.764   8.504  0.0000  0.0000  0.0000
15188SI     SI115188   4.621   2.473   0.021  0.0000  0.0000  0.0000
15189SI     SI115189   7.666   6.977   8.523  0.0000  0.0000  0.0000
15190SI     SI115190   5.296   5.319   1.077  0.0000  0.0000  0.0000
15191SI     SI115191   6.914   8.170   0.949  0.0000  0.0000  0.0000
15192SI     SI115192   7.507   2.308   0.682  0.0000  0.0000  0.0000
15193SI     SI115193   7.132   8.896   8.408  0.0000  0.0000  0.0000
15194SI     SI115194   0.013   2.532   1.057  0.0000  0.0000  0.0000
15195SI     SI115195   5.260   0.913   9.122  0.0000  0.0000  0.0000
15196SI     SI115196   5.888   5.562   1.032  0.0000  0.0000  0.0000
15197SI     SI115197   0.780   4.965   0.235  0.0000  0.0000  0.0000
15198SI     SI115198   5.659   0.703   0.536  0.0000  0.0000  0.0000
15199SI     SI115199   2.006   5.235   1.127  0.0000  0.0000  0.0000
15200SI     SI115200   5.162   3.418   0.679  0.0000  0.0000  0.0000
15201SI     SI115201   6.681   8.171   9.028  0.0000  0.0000  0.0000
15202SI     SI115202   6.432   3.013   9.233  0.0000  0.0000  0.0000
15203SI     SI115203   9.140   1.911   8.593  0.0000  0.0000  0.0000
15204SI     SI115204   9.093   1.912   0.132  0.0000  0.0000  0.0000
15205SI     SI115205   3.812   0.527   1.399  0.0000  0.0000  0.0000
15206SI     SI115206   6.875   6.037   1.313  0.0000  0.0000  0.0000
15207SI     SI115207   9.027   3.010   8.519  0.0000  0.0000  0.0000
15208SI     SI115208   0.771   5.112   1.039  0.0000  0.0000  0.0000
15209SI     SI115209   6.141   5.209   0.660  0.0000  0.0000  0.0000
15210SI     SI115210   1.093   2.326   0.978  0.0000  0.0000  0.0000
15211SI     SI115211   4.584   5.744   1.142  0.0000  0.0000  0.0000
15212SI     SI115212   1.483   7.906   8.661  0.0000  0.0000  0.0000
15213SI     SI115213   5.647   5.733   1.163  0.0000  0.0000  0.0000
15214SI     SI115214   6.982   4.026   0.227  0.0000  0.0000  0.0000
15215SI     SI115215   1.233   2.864   0.356  0.0000  0.0000  0.0000
15216SI     SI115216   5.059   9.368   8.660  0.0000  0.0000  0.0000
15217SI     SI115217   6.517   1.206   0.218  0.0000  0.0000  0.0000
15218SI     SI115218   2.253   0.573   8.577  0.0000  0.0000  0.0000
15219SI     SI115219   0.136   7.142   9.291  0.0000  0.0000  0.0000
15220SI     SI115220   3.646   9.172   0.499  0.0000  0.0000  0.0000
15221SI     SI115221   6.740   6.013   8.426  0.0000  0.0000  0.0000
15222SI     SI115222   6.420   6.876   9.586  0.0000  0.0000  0.0000
15223SI     SI115223   2.741   7.210   0.572  0.0000  0.0000  0.0000
15224SI     SI115224   2.816   3.361   0.739  0.0000  0.0000  0.0000
15225SI     SI115225   8.921   7.682   1.310  0.0000  0.0000  0.0000
15226SI     SI115226   2.012   2.191   9.482  0.0000  0.0000  0.0000
15227SI     SI115227   9.076   1.847   8.896  0.0000  0.0000  0.0000
15228SI     SI115228   1.665   1.639   8.804  0.0000  0.0000  0.0000
15229SI     SI115229   9.452   0.971   1.069  0.0000  0.0000  0.0000
15230SI     SI115230   4.234   3.893   8.341  0.0000  0.0000  0.0000
15231SI     SI115231   7.524   7.281   0.594  0.0000  0.0000  0.0000
15232SI     SI115232   2.587   0.506   0.516  0.0000  0.0000  0.0000
15233SI     SI115233   0.227   1.751   0.187  0.0000  0.0000  0.0000
15234SI     SI115234   7.017   6.028   1.036  0.0000  0.0000  0.0000
15235SI     SI115235   1.497   3.847   1.329  0.0000  0.0000  0.0000
15236SI     SI115236   2.728   5.304   8.491  0.0000  0.0000  0.0000
15237SI     SI115237   4.929   5.548   8.427  0.0000  0.0000  0.0000
15238SI     SI115238   3.959   2.011   9.412  0.0000  0.0000  0.0000
15239SI     SI115239   5.547   1.510   1.212  0.0000  0.0000  0.0000
15240SI     SI115240   3.387   1.937   8.545  0.0000  0.0000  0.0000
15241SI     SI115241   4.903   6.974   8.631  0.0000  0.0000  0.0000
15242SI     SI115242   8.795   9.438   8.342  0.0000  0.0000  0.0000
15243SI     SI115243   7.115   7.613   9.369  0.0000  0.0000  0.0000
15244SI     SI115244   7.986   1.889   0.776  0.0000  0.0000  0.0000
15245SI     SI115245   1.999   5.708   9.472  0.0000  0.0000  0.0000
15246SI     SI115246   0.281   8.199   9.431  0.0000  0.0000  0.0000
15247SI     SI115247   0.288   4.763   0.529  0.0000  0.0000  0.0000
15248SI     SI115248   3.003   7.488   0.777  0.0000  0.0000  0.0000
15249SI     SI115249   0.755   3.614   0.079  0.0000  0.0000  0.0000
15250SI     SI115250   6.594   1.679   8.973  0.0000  0.0000  0.0000
15251SI     SI115251   8.879   0.995   8.303  0.0000  0.0000  0.0000
15252SI     SI115252   1.368   8.076   8.473  0.0000  0.0000  0.0000
15253SI     SI115253   1.424   6.037   8.329  0.0000  0.0000  0.0000
15254SI     SI115254   2.210   5.883   9.324  0.0000  0.0000  0.0000
15255SI     SI115255   8.332   3.110   8.430  0.0000  0.0000  0.0000
15256SI     SI115256   2.182   7.656   9.197  0.0000  0.0000  0.0000
15257SI     SI115257   1.114   4.075   0.283  0.0000  0.0000  0.0000
15258SI     SI115258   6.477   9.325   9.016  0.0000  0.0000  0.0000
15259SI     SI115259   1.052   0.359   8.539  0.0000  0.0000  0.0000
15260SI     SI115260   8.377   2.046   9.446  0.0000  0.0000  0.0000
15261SI     SI115261   9.430   9.068   8.786  0.0000  0.0000  0.0000
15262SI     SI115262   7.051   0.909   9.440  0.0000  0.0000  0.0000
15263SI     SI115263   1.604   8.648   0.474  0.0000  0.0000  0.0000
15264SI     SI115264   0.597   9.577   0.381  0.0000  0.0000  0.0000
15265SI     SI115265   3.029   7.185   8.506  0.0000  0.0000  0.0000
15266SI     SI115266   4.086   8.225   0.800  0.0000  0.0000  0.0000
15267SI     SI115267   3.292   1.769   0.092  0.0000  0.0000  0.0000
15268SI     SI115268   7.328   3.898   9.202  0.0000  0.0000  0.0000
15269SI     SI115269   0.749   5.480   0.607  0.0000  0.0000  0.0000
15270SI     SI115270   8.642   9.501   1.065  0.0000  0.0000  0.0000
15271SI     SI115271   6.034   1.592   1.328  0.0000  0.0000  0.0000
15272SI     SI115272   2.030   3.387   0.320  0.0000  0.0000  0.0000
15273SI     SI115273   0.425   2.899   9.386  0.0000  0.0000  0.0000
15274SI     SI115274   3.757   9.051   8.546  0.0000  0.0000  0.0000
15275SI     SI115275   1.086   7.244   0.022  0.0000  0.0000  0.0000
15276SI     SI115276   2.972   0.147   8.431  0.0000  0.0000  0.0000
15277SI     SI115277   6.126   5.844   1.277  0.0000  0.0000  0.0000
15278SI     SI115278   1.082   8.296   0.696  0.0000  0.0000  0.0000
15279SI     SI115279   3.036   0.979   9.493  0.0000  0.0000  0.0000
15280SI     SI115280   5.337   7.497   8.752  0.0000  0.0000  0.0000
15281SI     SI115281   1.712   3.740   0.635  0.0000  0.0000  0.0000
15282SI     SI115282   4.388   1.550   0.840  0.0000  0.0000  0.0000
15283SI     SI115283   3.052   6.937   8.998  0.0000  0.0000  0.0000
15284SI     SI115284   4.394   0.211   0.619  0.0000  0.0000  0.0000
15285SI     SI115285   5.882   3.980   8.662  0.0000  0.0000  0.0000
15286SI     SI115286   7.702   8.657   8.680  0.0000  0.0000  0.0000
15287SI     SI115287   7.924   1.675   0.974  0.0000  0.0000  0.0000
15288SI     SI115288   4.541   8.136   0.509  0.0000  0.0000  0.0000
15289SI     SI115289   7.688   8.903   1.235  0.0000  0.0000  0.0000
15290SI     SI115290   1.332   6.798   0.616  0.0000  0.0000  0.0000
15291SI     SI115291   2.286   6.271   8.775  0.0000  0.0000  0.0000
15292SI     SI115292   6.269   6.645   0.124  0.0000  0.0000  0.0000
15293SI     SI115293   6.155   5.502   0.681  0.0000  0.0000  0.0000
15294SI     SI115294   4.103   7.599   0.136  0.0000  0.0000  0.0000
15295SI     SI115295   0.495   9.395   0.759  0.0000  0.0000  0.0000
15296SI     SI115296   8.858   7.789   8.453  0.0000  0.0000  0.0000
15297SI     SI115297   2.798   4.942   1.076  0.0000  0.0000  0.0000
15298SI     SI115298   6.133   3.370   9.096  0.0000  0.0000  0.0000
15299SI     SI115299   1.225   8.105   9.356  0.0000  0.0000  0.0000
15300SI     SI115300   1.909   8.539   0.958  0.0000  0.0000  0.0000
15301SI     SI115301   5.083   2.599   0.259  0.0000  0.0000  0.0000
15302SI     SI115302   5.718   6.500   9.156  0.0000  0.0000  0.0000
15303SI     SI115303   4.215   0.593   0.535  0.0000  0.0000  0.0000
15304SI     SI115304   2.752   2.534   9.261  0.0000  0.0000  0.0000
15305SI     SI115305   9.202   6.754   0.300  0.0000  0.0000  0.0000
15306SI     SI115306   4.020   0.218   0.149  0.0000  0.0000  0.0000
15307SI     SI115307   6.744   3.158   1.125  0.0000  0.0000  0.0000
15308SI     SI115308   4.464   6.670   8.717  0.0000  0.0000  0.0000
15309SI     SI115309   7.934   1.119   0.382  0.0000  0.0000  0.0000
15310SI     SI115310   1.242   5.506   9.548  0.0000  0.0000  0.0000
15311SI     SI115311   6.878   0.771   8.816  0.0000  0.0000  0.0000
15312SI     SI115312   7.203   9.182   8.344  0.0000  0.0000  0.0000
15313SI     SI115313   6.566   2.640   8.353  0.0000  0.0000  0.0000
15314SI     SI115314   2.952   9.501   8.821  0.0000  0.0000  0.0000
15315SI     SI115315   7.548   8.433   9.347  0.0000  0.0000  0.0000
15316SI     SI115316   6.946   3.727   1.142  0.0000  0.0000  0.0000
15317SI     SI115317   6.098   6.684   8.889  0.0000  0.0000  0.0000
15318SI     SI115318   2.852   1.167   8.492  0.0000  0.0000  0.0000
15319SI     SI115319   5.644   0.150   8.813  0.0000  0.0000  0.0000
15320SI     SI115320   5.174   2.272   9.366  0.0000  0.0000  0.0000
15321SI     SI115321   2.678   5.074   0.534  0.0000  0.0000  0.0000
15322SI     SI115322   4.056   6.570   8.715  0.0000  0.0000  0.0000
15323SI     SI115323   7.178   4.949   8.802  0.0000  0.0000  0.0000
15324SI     SI115324   3.455   6.270   0.402  0.0000  0.0000  0.0000
15325SI     SI115325   7.821   7.575   9.077  0.0000  0.0000  0.0000
15326SI     SI115326   8.135   1.231   0.977  0.0000  0.0000  0.0000
15327SI     SI115327   2.840   9.486   8.309  0.0000  0.0000  0.0000
15328SI     SI115328   7.349   7.532   9.529  0.0000  0.0000  0.0000
15329SI     SI115329   6.710   3.016   9.381  0.0000  0.0000  0.0000
15330SI     SI115330   1.833   0.516   1.351  0.0000  0.0000  0.0000
15331SI     SI115331   4.698   2.944   9.281  0.0000  0.0000  0.0000
15332SI     SI115332   2.502   0.962   8.240  0.0000  0.0000  0.0000
15333SI     SI115333   8.699   5.079   9.513  0.0000  0.0000  0.0000
15334SI     SI115334   4.482   4.817   1.204  0.0000  0.0000  0.0000
15335SI     SI115335   7.814   0.855   0.448  0.0000  0.0000  0.0000
15336SI     SI115336   3.469   9.386   8.825  0.0000  0.0000  0.0000
15337SI     SI115337   0.130   4.331   9.394  0.0000  0.0000  0.0000
15338SI     SI115338   6.158   7.806   0.403  0.0000  0.0000  0.0000
15339SI     SI115339   8.158   7.769   8.709  0.0000  0.0000  0.0000
15340SI     SI115340   3.867   7.206   0.024  0.0000  0.0000  0.0000
15341SI     SI115341   1.168   0.731   0.044  0.0000  0.0000  0.0000
15342SI     SI115342   1.493   0.690   8.661  0.0000  0.0000  0.0000
15343SI     SI115343   6.019   7.513   0.735  0.0000  0.0000  0.0000
15344SI     SI115344   1.743   4.938   0.378  0.0000  0.0000  0.0000
15345SI     SI115345   8.840   2.514   0.959  0.0000  0.0000  0.0000
15346SI     SI115346   8.428   6.614   1.189  0.0000  0.0000  0.0000
15347SI     SI115347   4.656   3.929   9.183  0.0000  0.0000  0.0000
15348SI     SI115348   5.575   5.337   8.643  0.0000  0.0000  0.0000
15349SI     SI115349   5.445   8.469   0.555  0.0000  0.0000  0.0000
15350SI     SI115350   1.418   8.732   0.266  0.0000  0.0000  0.0000
15351SI     SI115351   9.162   9.235   0.033  0.0000  0.0000  0.0000
15352SI     SI115352   0.766   3.116   0.028  0.0000  0.0000  0.0000
15353SI     SI115353   8.962   8.965   9.277  0.0000  0.0000  0.0000
15354SI     SI115354   5.065   0.952   0.865  0.0000  0.0000  0.0000
15355SI     SI115355   7.730   3.139   8.598  0.0000  0.0000  0.0000
15356SI     SI115356   4.383   5.254   1.151  0.0000  0.0000  0.0000
15357SI     SI115357   6.467   4.181   9.046  0.0000  0.0000  0.0000
15358SI     SI115358   4.878   8.193   0.165  0.0000  0.0000  0.0000
15359SI     SI115359   1.518   6.523   9.269  0.0000  0.0000  0.0000
15360SI     SI115360   6.325   1.456   8.605  0.0000  0.0000  0.0000
15361SI     SI115361   6.207   4.601   1.175  0.0000  0.0000  0.0000
15362SI     SI115362   0.228   4.162   1.008  0.0000  0.0000  0.0000
15363SI     SI115363   0.143   3.711   8.808  0.0000  0.0000  0.0000
15364SI     SI115364   2.376   7.715   0.429  0.0000  0.0000  0.0000
15365SI     SI115365   8.159   8.509   8.618  0.0000  0.0000  0.0000
15366SI     SI115366   6.923   1.239   1.271  0.0000  0.0000  0.0000
15367SI     SI115367   3.337   5.901   0.669  0.0000  0.0000  0.0000
15368SI     SI115368   3.761   2.995   0.119  0.0000  0.0000  0.0000
15369SI     SI115369   5.477   4.362   8.869  0.0000  0.0000  0.0000
15370SI     SI115370   0.963   5.172   9.015  0.0000  0.0000  0.0000
15371SI     SI115371   1.293   0.439   0.777  0.0000  0.0000  0.0000
15372SI     SI115372   0.088   7.422   9.427  0.0000  0.0000  0.0000
15373SI     SI115373   5.693   0.702   9.526  0.0000  0.0000  0.0000
15374SI     SI115374   4.678   5.281   1.089  0.0000  0.0000  0.0000
15375SI     SI115375   0.085   0.807   0.279  0.0000  0.0000  0.0000
15376SI     SI115376   6.541   4.796   9.196  0.0000  0.0000  0.0000
15377SI     SI115377   6.228   9.163   1.306  0.0000  0.0000  0.0000
15378SI     SI115378   1.471   1.031   1.328  0.0000  0.0000  0.0000
15379SI     SI115379   0.791   6.217   1.233  0.0000  0.0000  0.0000
15380SI     SI115380   3.860   9.357   1.300  0.0000  0.0000  0.0000
15381SI     SI115381   5.566   1.033   0.136  0.0000  0.0000  0.0000
15382SI     SI115382   8.332   0.391   9.580  0.0000  0.0000  0.0000
15383SI     SI115383   0.190   8.115   9.136  0.0000  0.0000  0.0000
15384SI     SI115384   8.685   7.285   8.621  0.0000  0.0000  0.0000
15385SI     SI115385   8.803   7.278   0.416  0.0000  0.0000  0.0000
15386SI     SI115386   3.733   8.523   1.097  0.0000  0.0000  0.0000
15387SI     SI115387   1.312   4.305   8.704  0.0000  0.0000  0.0000
15388SI     SI115388   2.118   6.298   0.104  0.0000  0.0000  0.0000
15389SI     SI115389   5.511   5.712   0.224  0.0000  0.0000  0.0000
15390SI     SI115390   6.557   5.941   0.919  0.0000  0.0000  0.0000
15391SI     SI115391   3.710   9.199   8.805  0.0000  0.0000  0.0000
15392SI     SI115392   2.155   1.852   0.185  0.0000  0.0000  0.0000
15393SI     SI115393   3.730   1.812   9.334  0.0000  0.0000  0.0000
15394SI     SI115394   8.231   4.423   8.213  0.0000  0.0000  0.0000
15395SI     SI115395   0.672   8.196   9.213  0.0000  0.0000  0.0000
15396SI     SI115396   8.055   4.150   8.926  0.0000  0.0000  0.0000
15397SI     SI115397   6.968   0.656   0.379  0.0000  0.0000  0.0000
15398SI     SI115398   2.002   4.570   0.381  0.0000  0.0000  0.0000
15399SI     SI115399   2.288   1.574   1.227  0.0000  0.0000  0.0000
15400SI     SI115400   8.484   8.779   8.812  0.0000  0.0000  0.0000
15401SI     SI115401   1.589   2.420   9.161  0.0000  0.0000  0.0000
15402SI     SI115402   1.416   0.363   0.319  0.0000  0.0000  0.0000
15403SI     SI115403   4.416   3.117   0.379  0.0000  0.0000  0.0000
15404SI     SI115404   1.337   5.874   8.869  0.0000  0.0000  0.0000
15405SI     SI115405   9.298   7.990   8.620  0.0000  0.0000  0.0000
15406SI     SI115406   8.636   1.155   8.420  0.0000  0.0000  0.0000
15407SI     SI115407   7.094   2.685   1.304  0.0000  0.0000  0.0000
15408SI     SI115408   7.583   9.416   8.711  0.0000  0.0000  0.0000
15409SI     SI115409   0.625   2.345   1.232  0.0000  0.0000  0.0000
15410SI     SI115410   2.781   7.395   0.009  0.0000  0.0000  0.0000
15411SI     SI115411   7.654   2.539   8.410  0.0000  0.0000  0.0000
15412SI     SI115412   3.949   2.551   8.802  0.0000  0.0000  0.0000
15413SI     SI115413   6.497   4.204   1.374  0.0000  0.0000  0.0000
15414SI     SI115414   0.802   6.215   8.645  0.0000  0.0000  0.0000
15415SI     SI115415   6.792   5.420   0.007  0.0000  0.0000  0.0000
15416SI     SI115416   0.720   6.459   9.072  0.0000  0.0000  0.0000
15417SI     SI115417   0.946   7.752   0.034  0.0000  0.0000  0.0000
15418SI     SI115418   6.130   0.917   8.410  0.0000  0.0000  0.0000
15419SI     SI115419   4.276   8.108   9.186  0.0000  0.0000  0.0000
15420SI     SI115420   2.440   0.756   8.962  0.0000  0.0000  0.0000
15421SI     SI115421   1.530   9.243   1.173  0.0000  0.0000  0.0000
15422SI     SI115422   2.035   1.811   8.533  0.0000  0.0000  0.0000
15423SI     SI115423   8.440   2.090   0.521  0.0000  0.0000  0.0000
15424SI     SI115424   7.417   0.597   8.247  0.0000  0.0000  0.0000
15425SI     SI115425   2.076   2.799   0.533  0.0000  0.0000  0.0000
15426SI     SI115426   6.687   8.508   8.769  0.0000  0.0000  0.0000
15427SI     SI115427   7.312   7.966   0.695  0.0000  0.0000  0.0000
15428SI     SI115428   0.166   8.063   0.507  0.0000  0.0000  0.0000
15429SI     SI115429   3.375   2.183   0.274  0.0000  0.0000  0.0000
15430SI     SI115430   8.746   3.881   0.375  0.0000  0.0000  0.0000
15431SI     SI115431   4.410   4.011   1.258  0.0000  0.0000  0.0000
15432SI     SI115432   3.078   1.163   0.306  0.0000  0.0000  0.0000
15433SI     SI115433   0.037   8.352   8.711  0.0000  0.0000  0.0000
15434SI     SI115434   3.690   6.984   0.128  0.0000  0.0000  0.0000
15435SI     SI115435   5.028   7.598   0.549  0.0000  0.0000  0.0000
15436SI     SI115436   2.240   3.522   8.544  0.0000  0.0000  0.0000
15437SI     SI115437   8.550   2.275   9.376  0.0000  0.0000  0.0000
15438SI     SI115438   6.392   5.637   8.529  0.0000  0.0000  0.0000
15439SI     SI115439   1.234   3.434   0.516  0.0000  0.0000  0.0000
15440SI     SI115440   3.019   3.442   8.409  0.0000  0.0000  0.0000
15441SI     SI115441   1.566   8.561   0.049  0.0000  0.0000  0.0000
15442SI     SI115442   1.146   4.561   9.056  0.0000  0.0000  0.0000
15443SI     SI115443   6.652   0.872   0.924  0.0000  0.0000  0.0000
15444SI     SI115444   5.120   0.689   8.718  0.0000  0.0000  0.0000
15445SI     SI115445   8.290   2.689   1.061  0.0000  0.0000  0.0000
15446SI     SI115446   5.121   5.166   0.634  0.0000  0.0000  0.0000
15447SI     SI115447   6.353   9.546   0.486  0.0000  0.0000  0.0000
15448SI     SI115448   1.450   7.571   8.332  0.0000  0.0000  0.0000
15449SI     SI115449   2.880   7.460   8.474  0.0000  0.0000  0.0000
15450SI     SI115450   2.217   9.372   1.071  0.0000  0.0000  0.0000
15451SI     SI115451   7.135   7.389   0.307  0.0000  0.0000  0.0000
15452SI     SI115452   5.280   6.940   8.202  0.0000  0.0000  0.0000
15453SI     SI115453   1.049   1.281   8.215  0.0000  0.0000  0.0000
15454SI     SI115454   8.426   4.834   1.159  0.0000  0.0000  0.0000
15455SI     SI115455   4.989   1.307   9.123  0.0000  0.0000  0.0000
15456SI     SI115456   3.474   5.160   0.796  0.0000  0.0000  0.0000
15457SI     SI115457   6.108   6.583   0.371  0.0000  0.0000  0.0000
15458SI     SI115458   6.349   4.753   8.468  0.0000  0.0000  0.0000
15459SI     SI115459   7.838   4.952   9.291  0.0000  0.0000  0.0000
15460SI     SI115460   5.956   3.908   8.956  0.0000  0.0000  0.0000
15461SI     SI115461   1.810   0.745   9.144  0.0000  0.0000  0.0000
15462SI     SI115462   5.386   7.218   8.866  0.0000  0.0000  0.0000
15463SI     SI115463   2.181   7.227   1.224  0.0000  0.0000  0.0000
15464SI     SI115464   0.696   5.934   0.876  0.0000  0.0000  0.0000
15465SI     SI115465   9.472   3.654   0.434  0.0000  0.0000  0.0000
15466SI     SI115466   8.457   7.302   8.847  0.0000  0.0000  0.0000
15467SI     SI115467   9.469   5.383   8.292  0.0000  0.0000  0.0000
15468SI     SI115468   3.616   7.475   0.390  0.0000  0.0000  0.0000
15469SI     SI115469   5.380   4.549   0.417  0.0000  0.0000  0.0000
15470SI     SI115470   1.701   1.772   9.481  0.0000  0.0000  0.0000
15471SI     SI115471   6.381   7.187   8.406  0.0000  0.0000  0.0000
15472SI     SI115472   3.775   2.480   1.185  0.0000  0.0000  0.0000
15473SI     SI115473   9.023   1.254   8.232  0.0000  0.0000  0.0000
15474SI     SI115474   0.765   5.050   8.466  0.0000  0.0000  0.0000
15475SI     SI115475   3.465   5.186   9.117  0.0000  0.0000  0.0000
15476SI     SI115476   3.629   8.035   9.571  0.0000  0.0000  0.0000
15477SI     SI115477   2.052   4.971   0.758  0.0000  0.0000  0.0000
15478SI     SI115478   3.072   8.658   8.756  0.0000  0.0000  0.0000
15479SI     SI115479   1.528   2.158   8.736  0.0000  0.0000  0.0000
15480SI     SI115480   3.781   3.361   8.447  0.0000  0.0000  0.0000
15481SI     SI115481   8.690   7.565   0.448  0.0000  0.0000  0.0000
15482SI     SI115482   1.450   1.006   0.701  0.0000  0.0000  0.0000
15483SI     SI115483   5.346   2.475   0.750  0.0000  0.0000  0.0000
15484SI     SI115484   3.440   3.297   0.381  0.0000  0.0000  0.0000
15485SI     SI115485   5.311   1.901   0.064  0.0000  0.0000  0.0000
15486SI     SI115486   2.467   7.278   9.061  0.0000  0.0000  0.0000
15487SI     SI115487   7.553   1.826   9.399  0.0000  0.0000  0.0000
15488SI     SI115488   2.464   3.508   0.511  0.0000  0.0000  0.0000
15489SI     SI115489   3.194   4.524   8.311  0.0000  0.0000  0.0000
15490SI     SI115490   2.023   2.070   0.363  0.0000  0.0000  0.0000
15491SI     SI115491   7.617   2.749   0.179  0.0000  0.0000  0.0000
15492SI     SI115492   0.507   3.546   0.564  0.0000  0.0000  0.0000
15493SI     SI115493   3.347   6.919   8.937  0.0000  0.0000  0.0000
15494SI     SI115494   8.810   7.841   0.832  0.0000  0.0000  0.0000
15495SI     SI115495   7.264   4.375   9.047  0.0000  0.0000  0.0000
15496SI     SI115496   2.647   8.242   0.003  0.0000  0.0000  0.0000
15497SI     SI115497   2.637   0.735   9.451  0.0000  0.0000  0.0000
15498SI     SI115498   2.882   8.701   9.011  0.0000  0.0000  0.0000
15499SI     SI115499   1.297   0.885   0.449  0.0000  0.0000  0.0000
15500SI     SI115500   3.974   3.493   8.623  0.0000  0.0000  0.0000
15501SI     SI115501   7.785   2.863   0.930  0.0000  0.0000  0.0000
15502SI     SI115502   9.421   1.557   8.360  0.0000  0.0000  0.0000
15503SI     SI115503   2.232   1.436   0.954  0.0000  0.0000  0.0000
15504SI     SI115504   5.674   3.862   9.040  0.0000  0.0000  0.0000
15505SI     SI115505   8.438   7.708   8.286  0.0000  0.0000  0.0000
15506SI     SI115506   8.239   7.346   0.157  0.0000  0.0000  0.0000
15507SI     SI115507   8.868   6.524   8.426  0.0000  0.0000  0.0000
15508SI     SI115508   0.710   1.181   1.116  0.0000  0.0000  0.0000
15509SI     SI115509   6.264   9.508   0.965  0.0000  0.0000  0.0000
15510SI     SI115510   3.805   1.173   8.218  0.0000  0.0000  0.0000
15511SI     SI115511   7.137   6.491   1.243  0.0000  0.0000  0.0000
15512SI     SI115512   8.705   9.279   9.587  0.0000  0.0000  0.0000
15513SI     SI115513   8.751   4.888   0.385  0.0000  0.0000  0.0000
15514SI     SI115514   5.217   3.218   0.915  0.0000  0.0000  0.0000
15515SI     SI115515   4.078   1.284   1.100  0.0000  0.0000  0.0000
15516SI     SI115516   2.617   7.492   1.311  0.0000  0.0000  0.0000
15517SI     SI115517   8.490   1.128   9.431  0.0000  0.0000  0.0000
15518SI     SI115518   2.532   1.227   0.709  0.0000  0.0000  0.0000
15519SI     SI115519   3.417   3.725   1.115  0.0000  0.0000  0.0000
15520SI     SI115520   1.189   0.871   8.527  0.0000  0.0000  0.0000
15521SI     SI115521   0.799   5.661   0.038  0.0000  0.0000  0.0000
15522SI     SI115522   4.890   2.393   9.308  0.0000  0.0000  0.0000
15523SI     SI115523   0.820   0.524   0.838  0.0000  0.0000  0.0000
15524SI     SI115524   6.417   0.430   9.284  0.0000  0.0000  0.0000
15525SI     SI115525   7.660   1.075   0.005  0.0000  0.0000  0.0000
15526SI     SI115526   4.803   3.229   1.086  0.0000  0.0000  0.0000
15527SI     SI115527   0.931   2.228   9.349  0.0000  0.0000  0.0000
15528SI     SI115528   0.190   1.951   9.123  0.0000  0.0000  0.0000
15529SI     SI115529   1.545   3.770   0.873  0.0000  0.0000  0.0000
15530SI     SI115530   3.376   3.085   0.597  0.0000  0.0000  0.0000
15531SI     SI115531   2.928   9.399   0.704  0.0000  0.0000  0.0000
15532SI     SI115532   5.924   0.305   8.798  0.0000  0.0000  0.0000
15533SI     SI115533   5.192   3.101   9.218  0.0000  0.0000  0.0000
15534SI     SI115534   1.437   4.678   9.047  0.0000  0.0000  0.0000
15535SI     SI115535   5.049   3.553   9.145  0.0000  0.0000  0.0000
15536SI     SI115536   1.978   3.159   0.860  0.0000  0.0000  0.0000
15537SI     SI115537   8.578   7.759   0.645  0.0000  0.0000  0.0000
15538SI     SI115538   0.248   2.035   0.071  0.0000  0.0000  0.0000
15539SI     SI115539   7.642   2.056   8.902  0.0000  0.0000  0.0000
15540SI     SI115540   6.607   3.136   8.774  0.0000  0.0000  0.0000
15541SI     SI115541   5.705   0.283   1.170  0.0000  0.0000  0.0000
15542SI     SI115542   6.666   9.019   8.599  0.0000  0.0000  0.0000
15543SI     SI115543   1.863   5.527   8.677  0.0000  0.0000  0.0000
15544SI     SI115544   4.462   0.085   9.099  0.0000  0.0000  0.0000
15545SI     SI115545   4.522   8.629   0.962  0.0000  0.0000  0.0000
15546SI     SI115546   0.084   2.364   8.504  0.0000  0.0000  0.0000
15547SI     SI115547   2.147   6.254   0.831  0.0000  0.0000  0.0000
15548SI     SI115548   2.975   2.122   8.844  0.0000  0.0000  0.0000
15549SI     SI115549   4.354   1.068   9.152  0.0000  0.0000  0.0000
15550SI     SI115550   6.154   5.764   0.015  0.0000  0.0000  0.0000
15551SI     SI115551   7.171   1.975   0.211  0.0000  0.0000  0.0000
15552SI     SI115552   3.641   5.974   0.688  0.0000  0.0000  0.0000
15553SI     SI115553   0.548   1.093   0.290  0.0000  0.0000  0.0000
15554SI     SI115554   9.233   0.216   0.164  0.0000  0.0000  0.0000
15555SI     SI115555   1.155   8.805   9.478  0.0000  0.0000  0.0000
15556SI     SI115556   9.295   1.420   8.916  0.0000  0.0000  0.0000
15557SI     SI115557   1.037   7.671   8.253  0.0000  0.0000  0.0000
15558SI     SI115558   0.654   2.440   8.956  0.0000  0.0000  0.0000
15559SI     SI115559   0.778   6.471   0.883  0.0000  0.0000  0.0000
15560SI     SI115560   0.539   7.763   0.343  0.0000  0.0000  0.0000
15561SI     SI115561   2.813   4.961   0.273  0.0000  0.0000  0.0000
15562SI     SI115562   4.074   5.691   1.160  0.0000  0.0000  0.0000
15563SI     SI115563   0.268   2.135   1.061  0.0000  0.0000  0.0000
15564SI     SI115564   9.511   4.704   9.602  0.0000  0.0000  0.0000
15565SI     SI115565   3.500   7.719   8.815  0.0000  0.0000  0.0000
15566SI     SI115566   2.310   3.434   9.114  0.0000  0.0000  0.0000
15567SI     SI115567   0.340   2.183   8.474  0.0000  0.0000  0.0000
15568SI     SI115568   1.425   8.357   8.563  0.0000  0.0000  0.0000
15569SI     SI115569   2.504   4.114   9.104  0.0000  0.0000  0.0000
15570SI     SI115570   1.816   9.026   0.102  0.0000  0.0000  0.0000
15571SI     SI115571   6.307   7.077   0.464  0.0000  0.0000  0.0000
15572SI     SI115572   6.390   1.520   9.491  0.0000  0.0000  0.0000
15573SI     SI115573   0.352   4.919   8.337  0.0000  0.0000  0.0000
15574SI     SI115574   9.369   7.249   8.961  0.0000  0.0000  0.0000
15575SI     SI115575   7.894   3.999   9.459  0.0000  0.0000  0.0000
15576SI     SI115576   8.673   3.139   0.435  0.0000  0.0000  0.0000
15577SI     SI115577   7.582   3.125   9.565  0.0000  0.0000  0.0000
15578SI     SI115578   4.216   2.576   9.407  0.0000  0.0000  0.0000
15579SI     SI115579   7.894   7.862   9.196  0.0000  0.0000  0.0000
15580SI     SI115580   3.272   6.321   9.133  0.0000  0.0000  0.0000
15581SI     SI115581   4.793   6.180   9.269  0.0000  0.0000  0.0000
15582SI     SI115582   3.943   0.739   0.577  0.0000  0.0000  0.0000
15583SI     SI115583   7.399   4.144   9.382  0.0000  0.0000  0.0000
15584SI     SI115584   1.642   5.789   1.335  0.0000  0.0000  0.0000
15585SI     SI115585   1.620   4.153   8.992  0.0000  0.0000  0.0000
15586SI     SI115586   7.862   7.408   8.652  0.0000  0.0000  0.0000
15587SI     SI115587   1.311   2.108   8.959  0.0000  0.0000  0.0000
15588SI     SI115588   6.012   2.869   0.477  0.0000  0.0000  0.0000
15589SI     SI115589   0.026   6.385   9.369  0.0000  0.0000  0.0000
15590SI     SI115590   8.622   0.814   8.683  0.0000  0.0000  0.0000
15591SI     SI115591   3.901   4.234   8.622  0.0000  0.0000  0.0000
15592SI     SI115592   4.753   8.357   9.255  0.0000  0.0000  0.0000
15593SI     SI115593   9.428   0.705   0.930  0.0000  0.0000  0.0000
15594SI     SI115594   8.164   2.465   0.403  0.0000  0.0000  0.0000
15595SI     SI115595   4.242   7.882   8.538  0.0000  0.0000  0.0000
15596SI     SI115596   1.939   3.674   0.295  0.0000  0.0000  0.0000
15597SI     SI115597   6.385   4.437   8.896  0.0000  0.0000  0.0000
15598SI     SI115598   6.644   0.228   9.555  0.0000  0.0000  0.0000
15599SI     SI115599   4.203   2.599   1.126  0.0000  0.0000  0.0000
15600SI     SI115600   7.778   9.187   8.814  0.0000  0.0000  0.0000
15601SI     SI115601   5.076   1.071   9.308  0.0000  0.0000  0.0000
15602SI     SI115602   2.352   0.085   0.397  0.0000  0.0000  0.0000
15603SI     SI115603   8.139   5.181   1.182  0.0000  0.0000  0.0000
15604SI     SI115604   2.177   2.853   8.270  0.0000  0.0000  0.0000
15605SI     SI115605   4.398   3.933   0.491  0.0000  0.0000  0.0000
15606SI     SI115606   2.265   2.551   0.481  0.0000  0.0000  0.0000
15607SI     SI115607   5.921   7.417   8.271  0.0000  0.0000  0.0000
15608SI     SI115608   3.240   8.467   0.020  0.0000  0.0000  0.0000
15609SI     SI115609   4.356   8.873   9.282  0.0000  0.0000  0.0000
15610SI     SI115610   3.654   0.758   8.631  0.0000  0.0000  0.0000
15611SI     SI115611   9.566   5.667   8.741  0.0000  0.0000  0.0000
15612SI     SI115612   2.572   6.744   1.003  0.0000  0.0000  0.0000
15613SI     SI115613   1.463   3.081   0.805  0.0000  0.0000  0.0000
15614SI     SI115614   0.911   3.522   8.444  0.0000  0.0000  0.0000
15615SI     SI115615   5.885   7.341   8.735  0.0000  0.0000  0.0000
15616SI     SI115616   0.674   6.181   9.196  0.0000  0.0000  0.0000
15617SI     SI115617   4.348   3.628   8.834  0.0000  0.0000  0.0000
15618SI     SI115618   4.493   2.280   1.235  0.0000  0.0000  0.0000
15619SI     SI115619   5.749   2.772   9.042  0.0000  0.0000  0.0000
15620SI     SI115620   1.598   8.826   8.551  0.0000  0.0000  0.0000
15621SI     SI115621   3.584   8.455   0.315  0.0000  0.0000  0.0000
15622SI     SI115622   8.404   6.001   9.538  0.0000  0.0000  0.0000
15623SI     SI115623   0.037   5.883   0.491  0.0000  0.0000  0.0000
15624SI     SI115624   8.842   4.736   9.131  0.0000  0.0000  0.0000
15625SI     SI115625   1.474   4.725   9.567  0.0000  0.0000  0.0000
15626SI     SI115626   8.192   5.248   0.505  0.0000  0.0000  0.0000
15627SI     SI115627   2.799   3.395   1.344  0.0000  0.0000  0.0000
15628SI     SI115628   6.760   2.675   0.183  0.0000  0.0000  0.0000
15629SI     SI115629   2.356   4.139   8.643  0.0000  0.0000  0.0000
15630SI     SI115630   4.630   6.318   0.219  0.0000  0.0000  0.0000
15631SI     SI115631   3.052   8.760   9.274  0.0000  0.0000  0.0000
15632SI     SI115632   4.383   9.268   8.883  0.0000  0.0000  0.0000
15633SI     SI115633   8.191   4.572   8.906  0.0000  0.0000  0.0000
15634SI     SI115634   7.406   9.228   8.552  0.0000  0.0000  0.0000
15635SI     SI115635   8.558   9.305   8.759  0.0000  0.0000  0.0000
15636SI     SI115636   5.160   2.816   9.113  0.0000  0.0000  0.0000
15637SI     SI115637   2.495   4.808   9.288  0.0000  0.0000  0.0000
15638SI     SI115638   0.893   1.248   8.713  0.0000  0.0000  0.0000
15639SI     SI115639   1.397   2.910   9.344  0.0000  0.0000  0.0000
15640SI     SI115640   0.692   0.631   9.492  0.0000  0.0000  0.0000
15641SI     SI115641   3.671   9.185   9.231  0.0000  0.0000  0.0000
15642SI     SI115642   2.050   5.694   0.850  0.0000  0.0000  0.0000
15643SI     SI115643   2.847   8.404   9.448  0.0000  0.0000  0.0000
15644SI     SI115644   0.721   7.054   1.074  0.0000  0.0000  0.0000
15645SI     SI115645   7.782   6.971   0.011  0.0000  0.0000  0.0000
15646SI     SI115646   5.779   6.673   0.990  0.0000  0.0000  0.0000
15647SI     SI115647   7.124   5.728   1.065  0.0000  0.0000  0.0000
15648SI     SI115648   2.481   7.705   9.288  0.0000  0.0000  0.0000
15649SI     SI115649   4.318   8.540   0.622  0.0000  0.0000  0.0000
15650SI     SI115650   4.868   3.493   0.660  0.0000  0.0000  0.0000
15651SI     SI115651   6.196   7.184   1.194  0.0000  0.0000  0.0000
15652SI     SI115652   4.552   8.743   9.087  0.0000  0.0000  0.0000
15653SI     SI115653   9.494   7.485   0.264  0.0000  0.0000  0.0000
15654SI     SI115654   7.231   6.802   9.088  0.0000  0.0000  0.0000
15655SI     SI115655   1.543   8.345   0.431  0.0000  0.0000  0.0000
15656SI     SI115656   1.426   3.896   8.995  0.0000  0.0000  0.0000
15657SI     SI115657   9.557   5.514   9.014  0.0000  0.0000  0.0000
15658SI     SI115658   4.386   2.644   8.945  0.0000  0.0000  0.0000
15659SI     SI115659   2.547   4.015   8.155  0.0000  0.0000  0.0000
15660SI     SI115660   3.827   4.181   9.605  0.0000  0.0000  0.0000
15661SI     SI115661   2.725   7.984   0.095  0.0000  0.0000  0.0000
15662SI     SI115662   2.324   2.363   8.961  0.0000  0.0000  0.0000
15663SI     SI115663   8.866   6.469   0.397  0.0000  0.0000  0.0000
15664SI     SI115664   6.807   1.661   9.187  0.0000  0.0000  0.0000
15665SI     SI115665   0.560   8.455   0.507  0.0000  0.0000  0.0000
15666SI     SI115666   0.504   8.644   0.971  0.0000  0.0000  0.0000
15667SI     SI115667   1.233   0.602   8.796  0.0000  0.0000  0.0000
15668SI     SI115668   8.648   8.926   0.648  0.0000  0.0000  0.0000
15669SI     SI115669   2.141   7.433   8.723  0.0000  0.0000  0.0000
15670SI     SI115670   0.527   0.560   0.756  0.0000  0.0000  0.0000
15671SI     SI115671   2.800   2.340   8.392  0.0000  0.0000  0.0000
15672SI     SI115672   8.894   8.262   9.062  0.0000  0.0000  0.0000
15673SI     SI115673   7.895   0.594   0.616  0.0000  0.0000  0.0000
15674SI     SI115674   4.229   7.712   8.798  0.0000  0.0000  0.0000
15675SI     SI115675   1.943   7.567   0.563  0.0000  0.0000  0.0000
15676SI     SI115676   7.982   8.261   8.946  0.0000  0.0000  0.0000
15677SI     SI115677   6.112   4.635   0.883  0.0000  0.0000  0.0000
15678SI     SI115678   6.247   2.363   8.737  0.0000  0.0000  0.0000
15679SI     SI115679   0.435   3.079   1.344  0.0000  0.0000  0.0000
15680SI     SI115680   4.596   8.200   0.048  0.0000  0.0000  0.0000
15681SI     SI115681   1.867   7.157   0.044  0.0000  0.0000  0.0000
15682SI     SI115682   1.535   4.880   1.128  0.0000  0.0000  0.0000
15683SI     SI115683   2.655   8.876   8.678  0.0000  0.0000  0.0000
15684SI     SI115684   8.107   4.406   9.376  0.0000  0.0000  0.0000
15685SI     SI115685   1.034   0.978   8.303  0.0000  0.0000  0.0000
15686SI     SI115686   5.013   1.421   8.552  0.0000  0.0000  0.0000
15687SI     SI115687   5.663   7.862   0.813  0.0000  0.0000  0.0000
15688SI     SI115688   3.396   0.476   8.907  0.0000  0.0000  0.0000
15689SI     SI115689   5.375   6.762   0.706  0.0000  0.0000  0.0000
15690SI     SI115690   1.827   4.900   1.395  0.0000  0.0000  0.0000
15691SI     SI115691   3.073   5.322   0.732  0.0000  0.0000  0.0000
15692SI     SI115692   3.993   2.626   1.336  0.0000  0.0000  0.0000
15693SI     SI115693   4.200   3.132   8.767  0.0000  0.0000  0.0000
15694SI     SI115694   5.441   7.021   8.622  0.0000  0.0000  0.0000
15695SI     SI115695   0.859   2.487   0.358  0.0000  0.0000  0.0000
15696SI     SI115696   8.725   0.157   8.755  0.0000  0.0000  0.0000
15697SI     SI115697   5.671   5.035   9.449  0.0000  0.0000  0.0000
15698SI     SI115698   9.529   2.825   8.607  0.0000  0.0000  0.0000
15699SI     SI115699   5.456   7.812   0.359  0.0000  0.0000  0.0000
15700SI     SI115700   0.670   7.681   9.188  0.0000  0.0000  0.0000
15701SI     SI115701   6.429   0.586   9.025  0.0000  0.0000  0.0000
15702SI     SI115702   6.605   5.811   0.301  0.0000  0.0000  0.0000
15703SI     SI115703   4.263   1.074   9.456  0.0000  0.0000  0.0000
15704SI     SI115704   2.758   4.240   8.496  0.0000  0.0000  0.0000
15705SI     SI115705   5.586   7.195   0.679  0.0000  0.0000  0.0000
15706SI     SI115706   9.052   4.826   9.310  0.0000  0.0000  0.0000
15707SI     SI115707   0.800   8.895   0.298  0.0000  0.0000  0.0000
15708SI     SI115708   0.497   4.975   0.965  0.0000  0.0000  0.0000
15709SI     SI115709   4.211   4.591   0.450  0.0000  0.0000  0.0000
15710SI     SI115710   4.665   0.510   0.416  0.0000  0.0000  0.0000
15711SI     SI115711   2.931   2.840   0.175  0.0000  0.0000  0.0000
15712SI     SI115712   6.011   8.093   1.056  0.0000  0.0000  0.0000
15713SI     SI115713   8.518   8.003   0.484  0.0000  0.0000  0.0000
15714SI     SI115714   6.237   6.312   0.446  0.0000  0.0000  0.0000
15715SI     SI115715   5.466   3.578   9.424  0.0000  0.0000  0.0000
15716SI     SI115716   1.740   5.494   9.119  0.0000  0.0000  0.0000
15717SI     SI115717   1.574   4.303   9.249  0.0000  0.0000  0.0000
15718SI     SI115718   6.421   5.741   9.452  0.0000  0.0000  0.0000
15719SI     SI115719   9.166   6.473   0.386  0.0000  0.0000  0.0000
15720SI     SI115720   0.241   3.926   8.986  0.0000  0.0000  0.0000
15721SI     SI115721   4.162   5.988   1.193  0.0000  0.0000  0.0000
15722SI     SI115722   4.208   2.934   0.236  0.0000  0.0000  0.0000
15723SI     SI115723   2.860   6.110   9.279  0.0000  0.0000  0.0000
15724SI     SI115724   8.446   2.376   0.484  0.0000  0.0000  0.0000
15725SI     SI115725   1.430   6.094   0.464  0.0000  0.0000  0.0000
15726SI     SI115726   4.614   6.216   8.778  0.0000  0.0000  0.0000
15727SI     SI115727   6.574   2.597   0.427  0.0000  0.0000  0.0000
15728SI     SI115728   0.460   2.241   8.878  0.0000  0.0000  0.0000
15729SI     SI115729   6.009   5.902   9.034  0.0000  0.0000  0.0000
15730SI     SI115730   0.442   7.448   0.694  0.0000  0.0000  0.0000
15731SI     SI115731   7.295   7.610   1.098  0.0000  0.0000  0.0000
15732SI     SI115732   8.027   4.230   8.619  0.0000  0.0000  0.0000
15733SI     SI115733   5.432   6.307   8.579  0.0000  0.0000  0.0000
15734SI     SI115734   4.057   0.978   0.712  0.0000  0.0000  0.0000
15735SI     SI115735   4.181   0.558   8.669  0.0000  0.0000  0.0000
15736SI     SI115736   3.566   3.962   0.773  0.0000  0.0000  0.0000
15737SI     SI115737   3.252   3.427   1.366  0.0000  0.0000  0.0000
15738SI     SI115738   3.885   1.133   0.925  0.0000  0.0000  0.0000
15739SI     SI115739   2.213   4.098   9.039  0.0000  0.0000  0.0000
15740SI     SI115740   1.489   6.468   8.547  0.0000  0.0000  0.0000
15741SI     SI115741   4.032   2.681   0.868  0.0000  0.0000  0.0000
15742SI     SI115742   4.445   2.199   8.821  0.0000  0.0000  0.0000
15743SI     SI115743   7.831   4.461   8.649  0.0000  0.0000  0.0000
15744SI     SI115744   3.200   4.472   9.055  0.0000  0.0000  0.0000
15745SI     SI115745   1.404   2.570   0.021  0.0000  0.0000  0.0000
15746SI     SI115746   5.111   1.586   8.809  0.0000  0.0000  0.0000
15747SI     SI115747   4.661   6.481   1.114  0.0000  0.0000  0.0000
15748SI     SI115748   0.704   7.126   0.795  0.0000  0.0000  0.0000
15749SI     SI115749   1.216   2.243   9.434  0.0000  0.0000  0.0000
15750SI     SI115750   2.135   8.954   8.540  0.0000  0.0000  0.0000
15751SI     SI115751   5.140   3.730   8.426  0.0000  0.0000  0.0000
15752SI     SI115752   2.864   5.680   0.150  0.0000  0.0000  0.0000
15753SI     SI115753   2.205   2.320   0.291  0.0000  0.0000  0.0000
15754SI     SI115754   1.310   8.771   8.532  0.0000  0.0000  0.0000
15755SI     SI115755   3.476   0.999   0.075  0.0000  0.0000  0.0000
15756SI     SI115756   9.179   8.212   9.038  0.0000  0.0000  0.0000
15757SI     SI115757   3.110   6.480   0.926  0.0000  0.0000  0.0000
15758SI     SI115758   1.171   5.560   9.269  0.0000  0.0000  0.0000
15759SI     SI115759   8.101   9.019   8.525  0.0000  0.0000  0.0000
15760SI     SI115760   7.877   3.307   0.933  0.0000  0.0000  0.0000
15761SI     SI115761   3.978   0.839   9.262  0.0000  0.0000  0.0000
15762SI     SI115762   8.210   0.875   8.359  0.0000  0.0000  0.0000
15763SI     SI115763   4.515   5.790   8.369  0.0000  0.0000  0.0000
15764SI     SI115764   5.252   3.757   0.192  0.0000  0.0000  0.0000
15765SI     SI115765   6.206   3.332   8.474  0.0000  0.0000  0.0000
15766SI     SI115766   3.353   4.389   9.327  0.0000  0.0000  0.0000
15767SI     SI115767   7.071   2.660   8.169  0.0000  0.0000  0.0000
15768SI     SI115768   4.128   4.879   9.035  0.0000  0.0000  0.0000
15769SI     SI115769   1.917   3.622   8.940  0.0000  0.0000  0.0000
15770SI     SI115770   8.372   5.884   1.216  0.0000  0.0000  0.0000
15771SI     SI115771   5.755   8.008   8.388  0.0000  0.0000  0.0000
15772SI     SI115772   4.029   6.385   0.765  0.0000  0.0000  0.0000
15773SI     SI115773   2.372   2.786   9.231  0.0000  0.0000  0.0000
15774SI     SI115774   7.595   9.461   0.728  0.0000  0.0000  0.0000
15775SI     SI115775   2.169   1.721   9.270  0.0000  0.0000  0.0000
15776SI     SI115776   1.119   2.778   8.474  0.0000  0.0000  0.0000
15777SI     SI115777   3.561   9.484   0.894  0.0000  0.0000  0.0000
15778SI     SI115778   6.964   4.710   0.604  0.0000  0.0000  0.0000
15779SI     SI115779   9.595   5.601   0.926  0.0000  0.0000  0.0000
15780SI     SI115780   6.765   3.248   0.187  0.0000  0.0000  0.0000
15781SI     SI115781   0.447   6.727   0.020  0.0000  0.0000  0.0000
15782SI     SI115782   0.609   8.180   0.133  0.0000  0.0000  0.0000
15783SI     SI115783   2.162   6.636   8.500  0.0000  0.0000  0.0000
15784SI     SI115784   5.314   2.755   0.157  0.0000  0.0000  0.0000
15785SI     SI115785   4.151   1.619   0.529  0.0000  0.0000  0.0000
15786SI     SI115786   9.339   5.194   9.322  0.0000  0.0000  0.0000
15787SI     SI115787   3.109   1.887   0.579  0.0000  0.0000  0.0000
15788SI     SI115788   0.269   4.151   0.270  0.0000  0.0000  0.0000
15789SI     SI115789   4.205   1.656   9.210  0.0000  0.0000  0.0000
15790SI     SI115790   2.917   6.501   8.758  0.0000  0.0000  0.0000
15791SI     SI115791   8.359   5.807   0.921  0.0000  0.0000  0.0000
15792SI     SI115792   2.962   3.935   0.065  0.0000  0.0000  0.0000
15793SI     SI115793   6.627   6.104   0.247  0.0000  0.0000  0.0000
15794SI     SI115794   1.425   7.133   8.613  0.0000  0.0000  0.0000
15795SI     SI115795   4.673   2.717   0.423  0.0000  0.0000  0.0000
15796SI     SI115796   7.717   1.095   8.807  0.0000  0.0000  0.0000
15797SI     SI115797   0.894   4.159   1.403  0.0000  0.0000  0.0000
15798SI     SI115798   3.464   2.408   0.457  0.0000  0.0000  0.0000
15799SI     SI115799   4.922   5.757   9.437  0.0000  0.0000  0.0000
15800SI     SI115800   4.366   1.830   1.150  0.0000  0.0000  0.0000
15801SI     SI115801   8.870   5.296   8.393  0.0000  0.0000  0.0000
15802SI     SI115802   8.920   5.296   0.363  0.0000  0.0000  0.0000
15803SI     SI115803   5.596   0.413   8.416  0.0000  0.0000  0.0000
15804SI     SI115804   3.932   7.550   0.946  0.0000  0.0000  0.0000
15805SI     SI115805   6.922   0.995   0.869  0.0000  0.0000  0.0000
15806SI     SI115806   3.936   5.691   0.902  0.0000  0.0000  0.0000
15807SI     SI115807   5.307   0.194   9.278  0.0000  0.0000  0.0000
15808SI     SI115808   6.113   8.271   9.422  0.0000  0.0000  0.0000
15809SI     SI115809   2.792   0.157   0.350  0.0000  0.0000  0.0000
15810SI     SI115810   8.682   8.008   9.424  0.0000  0.0000  0.0000
15811SI     SI115811   7.306   7.201   0.787  0.0000  0.0000  0.0000
15812SI     SI115812   1.495   4.765   0.429  0.0000  0.0000  0.0000
15813SI     SI115813   3.424   8.473   8.697  0.0000  0.0000  0.0000
15814SI     SI115814   5.299   4.942   8.650  0.0000  0.0000  0.0000
15815SI     SI115815   5.841   1.977   9.257  0.0000  0.0000  0.0000
15816SI     SI115816   7.728   4.481   1.221  0.0000  0.0000  0.0000
15817SI     SI115817   7.239   6.228   1.114  0.0000  0.0000  0.0000
15818SI     SI115818   7.067   0.979   8.949  0.0000  0.0000  0.0000
15819SI     SI115819   0.535   4.489   9.328  0.0000  0.0000  0.0000
15820SI     SI115820   3.879   3.388   0.344  0.0000  0.0000  0.0000
15821SI     SI115821   5.257   0.102   0.198  0.0000  0.0000  0.0000
15822SI     SI115822   8.095   2.107   9.342  0.0000  0.0000  0.0000
15823SI     SI115823   7.188   3.935   1.177  0.0000  0.0000  0.0000
15824SI     SI115824   8.955   2.110   0.334  0.0000  0.0000  0.0000
15825SI     SI115825   4.069   3.091   1.290  0.0000  0.0000  0.0000
15826SI     SI115826   7.122   2.011   0.830  0.0000  0.0000  0.0000
15827SI     SI115827   2.767   0.213   9.477  0.0000  0.0000  0.0000
15828SI     SI115828   3.568   1.261   0.175  0.0000  0.0000  0.0000
15829SI     SI115829   0.609   3.194   8.349  0.0000  0.0000  0.0000
15830SI     SI115830   2.042   0.962   0.352  0.0000  0.0000  0.0000
15831SI     SI115831   8.987   0.069   0.266  0.0000  0.0000  0.0000
15832SI     SI115832   5.805   2.547   9.255  0.0000  0.0000  0.0000
15833SI     SI115833   0.887   7.927   8.621  0.0000  0.0000  0.0000
15834SI     SI115834   3.715   0.286   0.108  0.0000  0.0000  0.0000
15835SI     SI115835   8.945   2.220   0.903  0.0000  0.0000  0.0000
15836SI     SI115836   6.700   4.757   0.460  0.0000  0.0000  0.0000
15837SI     SI115837   4.564   5.270   0.623  0.0000  0.0000  0.0000
15838SI     SI115838   9.099   2.673   0.905  0.0000  0.0000  0.0000
15839SI     SI115839   4.731   3.017   0.869  0.0000  0.0000  0.0000
15840SI     SI115840   3.635   3.964   9.477  0.0000  0.0000  0.0000
15841SI     SI115841   7.990   4.930   1.251  0.0000  0.0000  0.0000
15842SI     SI115842   9.371   2.762   9.142  0.0000  0.0000  0.0000
15843SI     SI115843   1.855   6.188   0.044  0.0000  0.0000  0.0000
15844SI     SI115844   7.672   3.687   8.607  0.0000  0.0000  0.0000
15845SI     SI115845   4.067   2.135   0.937  0.0000  0.0000  0.0000
15846SI     SI115846   6.849   0.690   8.318  0.0000  0.0000  0.0000
15847SI     SI115847   7.394   6.593   9.529  0.0000  0.0000  0.0000
15848SI     SI115848   0.820   5.162   1.351  0.0000  0.0000  0.0000
15849SI     SI115849   6.428   2.742   1.013  0.0000  0.0000  0.0000
15850SI     SI115850   6.392   7.780   0.911  0.0000  0.0000  0.0000
15851SI     SI115851   0.860   9.097   8.816  0.0000  0.0000  0.0000
15852SI     SI115852   6.670   0.933   9.186  0.0000  0.0000  0.0000
15853SI     SI115853   1.075   4.926   8.877  0.0000  0.0000  0.0000
15854SI     SI115854   7.567   0.385   9.450  0.0000  0.0000  0.0000
15855SI     SI115855   2.728   6.249   9.036  0.0000  0.0000  0.0000
15856SI     SI115856   8.446   8.994   9.543  0.0000  0.0000  0.0000
15857SI     SI115857   2.221   1.430   9.392  0.0000  0.0000  0.0000
15858SI     SI115858   1.820   6.928   9.024  0.0000  0.0000  0.0000
15859SI     SI115859   7.536   2.916   9.088  0.0000  0.0000  0.0000
15860SI     SI115860   0.766   2.549   0.658  0.0000  0.0000  0.0000
15861SI     SI115861   4.328   9.237   0.530  0.0000  0.0000  0.0000
15862SI     SI115862   3.063   3.010   0.585  0.0000  0.0000  0.0000
15863SI     SI115863   6.263   8.503   9.556  0.0000  0.0000  0.0000
15864SI     SI115864   3.098   4.896   8.803  0.0000  0.0000  0.0000
15865SI     SI115865   4.208   0.662   1.099  0.0000  0.0000  0.0000
15866SI     SI115866   6.454   5.063   9.074  0.0000  0.0000  0.0000
15867SI     SI115867   4.929   8.423   1.005  0.0000  0.0000  0.0000
15868SI     SI115868   8.132   5.160   8.847  0.0000  0.0000  0.0000
15869SI     SI115869   4.144   9.228   8.471  0.0000  0.0000  0.0000
15870SI     SI115870   4.681   1.702   8.707  0.0000  0.0000  0.0000
15871SI     SI115871   7.463   6.814   8.684  0.0000  0.0000  0.0000
15872SI     SI115872   5.989   0.896   9.082  0.0000  0.0000  0.0000
15873SI     SI115873   6.507   4.359   0.907  0.0000  0.0000  0.0000
15874SI     SI115874   1.678   2.972   9.317  0.0000  0.0000  0.0000
15875SI     SI115875   3.280   8.588   0.903  0.0000  0.0000  0.0000
15876SI     SI115876   6.716   2.844   1.088  0.0000  0.0000  0.0000
15877SI     SI115877   1.868   1.199   1.371  0.0000  0.0000  0.0000
15878SI     SI115878   7.374   0.173   8.535  0.0000  0.0000  0.0000
15879SI     SI115879   3.870   1.891   8.975  0.0000  0.0000  0.0000
15880SI     SI115880   8.660   1.911   0.580  0.0000  0.0000  0.0000
15881SI     SI115881   7.989   6.174   8.265  0.0000  0.0000  0.0000
15882SI     SI115882   9.100   9.030   1.196  0.0000  0.0000  0.0000
15883SI     SI115883   7.697   4.157   9.267  0.0000  0.0000  0.0000
15884SI     SI115884   6.105   4.230   0.369  0.0000  0.0000  0.0000
15885SI     SI115885   5.309   3.093   8.547  0.0000  0.0000  0.0000
15886SI     SI115886   7.390   0.756   1.018  0.0000  0.0000  0.0000
15887SI     SI115887   1.424   4.570   0.223  0.0000  0.0000  0.0000
15888SI     SI115888   0.520   7.730   9.443  0.0000  0.0000  0.0000
15889SI     SI115889   1.698   0.222   8.279  0.0000  0.0000  0.0000
15890SI     SI115890   4.643   4.399   9.135  0.0000  0.0000  0.0000
15891SI     SI115891   4.804   2.129   0.190  0.0000  0.0000  0.0000
15892SI     SI115892   2.149   8.375   8.917  0.0000  0.0000  0.0000
15893SI     SI115893   3.142   2.365   1.179  0.0000  0.0000  0.0000
15894SI     SI115894   2.601   3.820   9.154  0.0000  0.0000  0.0000
15895SI     SI115895   0.600   3.625   1.298  0.0000  0.0000  0.0000
15896SI     SI115896   3.961   6.661   8.428  0.0000  0.0000  0.0000
15897SI     SI115897   0.652   6.484   8.336  0.0000  0.0000  0.0000
15898SI     SI115898   9.520   3.929   9.205  0.0000  0.0000  0.0000
15899SI     SI115899   7.492   0.491   1.150  0.0000  0.0000  0.0000
15900SI     SI115900   3.931   9.411   8.828  0.0000  0.0000  0.0000
15901SI     SI115901   5.032   8.907   1.271  0.0000  0.0000  0.0000
15902SI     SI115902   9.280   2.398   8.842  0.0000  0.0000  0.0000
15903SI     SI115903   9.347   2.481   0.941  0.0000  0.0000  0.0000
15904SI     SI115904   5.714   6.984   9.340  0.0000  0.0000  0.0000
15905SI     SI115905   1.737   4.835   8.600  0.0000  0.0000  0.0000
15906SI     SI115906   0.272   4.457   0.284  0.0000  0.0000  0.0000
15907SI     SI115907   0.386   0.696   9.162  0.0000  0.0000  0.0000
15908SI     SI115908   0.618   7.761   1.060  0.0000  0.0000  0.0000
15909SI     SI115909   2.266   5.964   1.368  0.0000  0.0000  0.0000
15910SI     SI115910   3.152   9.249   0.539  0.0000  0.0000  0.0000
15911SI     SI115911   9.281   2.019   1.186  0.0000  0.0000  0.0000
15912SI     SI115912   0.041   0.582   0.730  0.0000  0.0000  0.0000
15913SI     SI115913   6.039   6.526   0.925  0.0000  0.0000  0.0000
15914SI     SI115914   6.084   4.159   8.525  0.0000  0.0000  0.0000
15915SI     SI115915   4.780   2.487   0.952  0.0000  0.0000  0.0000
15916SI     SI115916   1.873   8.941   8.967  0.0000  0.0000  0.0000
15917SI     SI115917   8.565   6.500   0.017  0.0000  0.0000  0.0000
15918SI     SI115918   3.374   8.895   1.356  0.0000  0.0000  0.0000
15919SI     SI115919   9.353   5.143   0.815  0.0000  0.0000  0.0000
15920SI     SI115920   2.203   6.814   0.242  0.0000  0.0000  0.0000
15921SI     SI115921   6.156   2.785   1.176  0.0000  0.0000  0.0000
15922SI     SI115922   6.465   1.440   1.381  0.0000  0.0000  0.0000
15923SI     SI115923   3.282   3.100   9.592  0.0000  0.0000  0.0000
15924SI     SI115924   7.255   0.728   9.294  0.0000  0.0000  0.0000
15925SI     SI115925   3.040   5.191   8.840  0.0000  0.0000  0.0000
15926SI     SI115926   7.723   5.034   1.134  0.0000  0.0000  0.0000
15927SI     SI115927   8.662   5.356   0.227  0.0000  0.0000  0.0000
15928SI     SI115928   2.661   4.731   8.527  0.0000  0.0000  0.0000
15929SI     SI115929   9.147   0.648   0.097  0.0000  0.0000  0.0000
15930SI     SI115930   0.524   7.101   1.279  0.0000  0.0000  0.0000
15931SI     SI115931   1.845   8.425   8.835  0.0000  0.0000  0.0000
15932SI     SI115932   8.223   1.132   0.292  0.0000  0.0000  0.0000
15933SI     SI115933   2.162   7.703   0.975  0.0000  0.0000  0.0000
15934SI     SI115934   3.002   3.176   8.545  0.0000  0.0000  0.0000
15935SI     SI115935   1.438   6.768   9.083  0.0000  0.0000  0.0000
15936SI     SI115936   9.050   5.947   0.748  0.0000  0.0000  0.0000
15937SI     SI115937   5.742   8.457   8.342  0.0000  0.0000  0.0000
15938SI     SI115938   7.413   7.731   8.786  0.0000  0.0000  0.0000
15939SI     SI115939   0.166   2.735   1.236  0.0000  0.0000  0.0000
15940SI     SI115940   6.761   6.314   1.400  0.0000  0.0000  0.0000
15941SI     SI115941   6.119   5.253   0.098  0.0000  0.0000  0.0000
15942SI     SI115942   5.486   2.569   8.659  0.0000  0.0000  0.0000
15943SI     SI115943   5.879   2.713   1.145  0.0000  0.0000  0.0000
15944SI     SI115944   1.205   9.048   9.277  0.0000  0.0000  0.0000
15945SI     SI115945   0.152   0.365   0.906  0.0000  0.0000  0.0000
15946SI     SI115946   7.417   4.182   0.087  0.0000  0.0000  0.0000
15947SI     SI115947   6.249   3.046   0.357  0.0000  0.0000  0.0000
15948SI     SI115948   6.737   0.650   9.048  0.0000  0.0000  0.0000
15949SI     SI115949   8.283   5.531   9.176  0.0000  0.0000  0.0000
15950SI     SI115950   2.649   2.230   9.582  0.0000  0.0000  0.0000
15951SI     SI115951   8.979   3.743   1.309  0.0000  0.0000  0.0000
15952SI     SI115952   4.734   8.974   9.115  0.0000  0.0000  0.0000
15953SI     SI115953   6.680   6.460   0.612  0.0000  0.0000  0.0000
15954SI     SI115954   9.356   8.440   9.169  0.0000  0.0000  0.0000
15955SI     SI115955   8.510   3.979   1.331  0.0000  0.0000  0.0000
15956SI     SI115956   4.310   6.254   9.168  0.0000  0.0000  0.0000
15957SI     SI115957   1.559   7.060   9.106  0.0000  0.0000  0.0000
15958SI     SI115958   4.034   5.540   0.178  0.0000  0.0000  0.0000
15959SI     SI115959   6.469   6.120   1.153  0.0000  0.0000  0.0000
15960SI     SI115960   6.805   3.249   8.981  0.0000  0.0000  0.0000
15961SI     SI115961   0.668   1.007   0.857  0.0000  0.0000  0.0000
15962SI     SI115962   1.401   1.717   0.810  0.0000  0.0000  0.0000
15963SI     SI115963   0.142   4.840   9.447  0.0000  0.0000  0.0000
15964SI     SI115964   8.042   2.852   1.103  0.0000  0.0000  0.0000
15965SI     SI115965   2.348   7.248   9.469  0.0000  0.0000  0.0000
15966SI     SI115966   3.683   0.348   1.017  0.0000  0.0000  0.0000
15967SI     SI115967   3.034   6.659   1.153  0.0000  0.0000  0.0000
15968SI     SI115968   8.045   7.591   0.200  0.0000  0.0000  0.0000
15969SI     SI115969   8.487   3.219   1.130  0.0000  0.0000  0.0000
15970SI     SI115970   0.416   0.815   0.869  0.0000  0.0000  0.0000
15971SI     SI115971   7.043   8.782   0.427  0.0000  0.0000  0.0000
15972SI     SI115972   7.068   4.440   8.835  0.0000  0.0000  0.0000
15973SI     SI115973   7.304   6.902   0.847  0.0000  0.0000  0.0000
15974SI     SI115974   5.997   4.859   0.441  0.0000  0.0000  0.0000
15975SI     SI115975   0.528   3.360   8.795  0.0000  0.0000  0.0000
15976SI     SI115976   5.442   7.745   9.562  0.0000  0.0000  0.0000
15977SI     SI115977   4.132   9.436   0.889  0.0000  0.0000  0.0000
15978SI     SI115978   2.809   3.681   0.770  0.0000  0.0000  0.0000
15979SI     SI115979   3.337   0.775   8.979  0.0000  0.0000  0.0000
15980SI     SI115980   8.906   9.174   1.003  0.0000  0.0000  0.0000
15981SI     SI115981   7.463   8.952   8.989  0.0000  0.0000  0.0000
15982SI     SI115982   6.747   3.290   9.270  0.0000  0.0000  0.0000
15983SI     SI115983   0.478   2.920   0.898  0.0000  0.0000  0.0000
15984SI     SI115984   2.051   2.691   8.513  0.0000  0.0000  0.0000
15985SI     SI115985   7.991   3.412   9.467  0.0000  0.0000  0.0000
15986SI     SI115986   3.987   1.683   8.523  0.0000  0.0000  0.0000
15987SI     SI115987   2.112   8.616   0.344  0.0000  0.0000  0.0000
15988SI     SI115988   8.206   1.660   8.517  0.0000  0.0000  0.0000
15989SI     SI115989   3.033   3.280   8.844  0.0000  0.0000  0.0000
15990SI     SI115990   4.868   5.071   8.731  0.0000  0.0000  0.0000
15991SI     SI115991   7.203   6.886   8.538  0.0000  0.0000  0.0000
15992SI     SI115992   5.915   1.455   0.102  0.0000  0.0000  0.0000
15993SI     SI115993   6.688   4.217   1.129  0.0000  0.0000  0.0000
15994SI     SI115994   4.799   3.462   8.695  0.0000  0.0000  0.0000
15995SI     SI115995   0.749   7.942   9.040  0.0000  0.0000  0.0000
15996SI     SI115996   6.281   6.593   1.099  0.0000  0.0000  0.0000
15997SI     SI115997   4.464   1.837   0.845  0.0000  0.0000  0.0000
15998SI     SI115998   4.645   2.675   9.120  0.0000  0.0000  0.0000
15999SI     SI115999   2.422   6.222   9.052  0.0000  0.0000  0.0000
16000SI     SI116000   4.632   6.623   9.445  0.0000  0.0000  0.0000
16001SI     SI116001   1.421   7.600   8.635  0.0000  0.0000  0.0000
16002SI     SI116002   0.239   3.117   0.870  0.0000  0.0000  0.0000
16003SI     SI116003   5.618   5.690   8.974  0.0000  0.0000  0.0000
16004SI     SI116004   6.880   7.576   9.563  0.0000  0.0000  0.0000
16005SI     SI116005   6.807   4.455   8.291  0.0000  0.0000  0.0000
16006SI     SI116006   4.771   5.723   0.483  0.0000  0.0000  0.0000
16007SI     SI116007   0.339   6.349   0.776  0.0000  0.0000  0.0000
16008SI     SI116008   8.704   5.177   1.074  0.0000  0.0000  0.0000
16009SI     SI116009   3.229   1.220   0.558  0.0000  0.0000  0.0000
16010SI     SI116010   3.741   1.674   0.184  0.0000  0.0000  0.0000
16011SI     SI116011   8.641   6.077   0.492  0.0000  0.0000  0.0000
16012SI     SI116012   0.819   8.282   0.558  0.0000  0.0000  0.0000
16013SI     SI116013   2.204   6.829   9.201  0.0000  0.0000  0.0000
16014SI     SI116014   7.127   0.048   9.343  0.0000  0.0000  0.0000
16015SI     SI116015   1.035   4.270   8.577  0.0000  0.0000  0.0000
16016SI     SI116016   3.421   6.224   8.753  0.0000  0.0000  0.0000
16017SI     SI116017   3.611   2.493   0.192  0.0000  0.0000  0.0000
16018SI     SI116018   1.204   6.544   8.650  0.0000  0.0000  0.0000
16019SI     SI116019   8.061   7.353   1.172  0.0000  0.0000  0.0000
16020SI     SI116020   5.049   5.685   0.367  0.0000  0.0000  0.0000
16021SI     SI116021   4.919   3.057   0.151  0.0000  0.0000  0.0000
16022SI     SI116022   5.298   6.762   8.945  0.0000  0.0000  0.0000
16023SI     SI116023   8.648   1.239   9.192  0.0000  0.0000  0.0000
16024SI     SI116024   1.833   4.309   0.337  0.0000  0.0000  0.0000
16025SI     SI116025   7.051   2.819   8.650  0.0000  0.0000  0.0000
16026SI     SI116026   7.872   1.392   0.887  0.0000  0.0000  0.0000
16027SI     SI116027   9.060   8.277   8.332  0.0000  0.0000  0.0000
16028SI     SI116028   5.288   6.808   1.262  0.0000  0.0000  0.0000
16029SI     SI116029   9.296   7.722   8.747  0.0000  0.0000  0.0000
16030SI     SI116030   4.672   7.873   0.895  0.0000  0.0000  0.0000
16031SI     SI116031   6.028   0.981   0.238  0.0000  0.0000  0.0000
16032SI     SI116032   6.616   7.198   9.003  0.0000  0.0000  0.0000
16033SI     SI116033   7.482   1.866   9.089  0.0000  0.0000  0.0000
16034SI     SI116034   5.028   0.102   0.408  0.0000  0.0000  0.0000
16035SI     SI116035   4.332   1.331   0.013  0.0000  0.0000  0.0000
16036SI     SI116036   9.312   7.975   9.145  0.0000  0.0000  0.0000
16037SI     SI116037   6.691   7.909   9.213  0.0000  0.0000  0.0000
16038SI     SI116038   5.948   7.899   8.843  0.0000  0.0000  0.0000
16039SI     SI116039   2.375   5.567   0.134  0.0000  0.0000  0.0000
16040SI     SI116040   4.977   3.309   9.305  0.0000  0.0000  0.0000
16041SI     SI116041   0.740   5.950   1.384  0.0000  0.0000  0.0000
16042SI     SI116042   5.164   9.576   8.860  0.0000  0.0000  0.0000
16043SI     SI116043   1.477   7.295   0.237  0.0000  0.0000  0.0000
16044SI     SI116044   1.802   6.230   9.350  0.0000  0.0000  0.0000
16045SI     SI116045   4.373   8.621   8.195  0.0000  0.0000  0.0000
16046SI     SI116046   8.430   5.034   0.065  0.0000  0.0000  0.0000
16047SI     SI116047   7.716   7.818   9.433  0.0000  0.0000  0.0000
16048SI     SI116048   7.963   4.308   0.230  0.0000  0.0000  0.0000
16049SI     SI116049   4.086   3.011   8.500  0.0000  0.0000  0.0000
16050SI     SI116050   3.866   2.471   0.711  0.0000  0.0000  0.0000
16051SI     SI116051   0.254   7.113   0.396  0.0000  0.0000  0.0000
16052SI     SI116052   5.772   8.529   9.103  0.0000  0.0000  0.0000
16053SI     SI116053   4.680   3.231   8.860  0.0000  0.0000  0.0000
16054SI     SI116054   2.256   8.656   1.213  0.0000  0.0000  0.0000
16055SI     SI116055   0.442   1.565   0.067  0.0000  0.0000  0.0000
16056SI     SI116056   4.507   8.340   0.299  0.0000  0.0000  0.0000
16057SI     SI116057   5.386   0.654   1.323  0.0000  0.0000  0.0000
16058SI     SI116058   1.679   3.062   0.168  0.0000  0.0000  0.0000
16059SI     SI116059   7.478   4.962   8.378  0.0000  0.0000  0.0000
16060SI     SI116060   6.074   2.151   0.049  0.0000  0.0000  0.0000
16061SI     SI116061   8.396   6.203   8.839  0.0000  0.0000  0.0000
16062SI     SI116062   0.536   6.889   0.741  0.0000  0.0000  0.0000
16063SI     SI116063   3.367   7.526   1.213  0.0000  0.0000  0.0000
16064SI     SI116064   0.281   1.483   1.091  0.0000  0.0000  0.0000
16065SI     SI116065   0.108   8.675   9.472  0.0000  0.0000  0.0000
16066SI     SI116066   9.447   4.192   9.366  0.0000  0.0000  0.0000
16067SI     SI116067   1.153   1.914   0.762  0.0000  0.0000  0.0000
16068SI     SI116068   9.168   2.857   0.113  0.0000  0.0000  0.0000
16069SI     SI116069   7.780   3.708   9.071  0.0000  0.0000  0.0000
16070SI     SI116070   8.589   3.672   9.380  0.0000  0.0000  0.0000
16071SI     SI116071   9.114   3.243   8.327  0.0000  0.0000  0.0000
16072SI     SI116072   3.506   1.260   8.869  0.0000  0.0000  0.0000
16073SI     SI116073   5.937   5.075   0.839  0.0000  0.0000  0.0000
16074SI     SI116074   1.163   7.037   0.530  0.0000  0.0000  0.0000
16075SI     SI116075   4.511   2.493   9.343  0.0000  0.0000  0.0000
16076SI     SI116076   7.535   7.033   0.423  0.0000  0.0000  0.0000
16077SI     SI116077   9.212   3.947   0.552  0.0000  0.0000  0.0000
16078SI     SI116078   1.004   4.738   0.546  0.0000  0.0000  0.0000
16079SI     SI116079   2.003   8.420   0.123  0.0000  0.0000  0.0000
16080SI     SI116080   4.998   0.478   0.017  0.0000  0.0000  0.0000
16081SI     SI116081   4.098   5.576   0.666  0.0000  0.0000  0.0000
16082SI     SI116082   1.288   3.887   9.275  0.0000  0.0000  0.0000
16083SI     SI116083   4.377   4.264   0.832  0.0000  0.0000  0.0000
16084SI     SI116084   8.675   6.980   8.546  0.0000  0.0000  0.0000
16085SI     SI116085   1.983   2.725   9.017  0.0000  0.0000  0.0000
16086SI     SI116086   6.896   3.934   9.050  0.0000  0.0000  0.0000
16087SI     SI116087   8.428   9.312   9.169  0.0000  0.0000  0.0000
16088SI     SI116088   6.337   8.880   0.624  0.0000  0.0000  0.0000
16089SI     SI116089   2.819   4.709   0.110  0.0000  0.0000  0.0000
16090SI     SI116090   4.740   3.212   0.623  0.0000  0.0000  0.0000
16091SI     SI116091   3.497   4.061   0.505  0.0000  0.0000  0.0000
16092SI     SI116092   3.559   2.110   1.011  0.0000  0.0000  0.0000
16093SI     SI116093   3.152   3.129   9.093  0.0000  0.0000  0.0000
16094SI     SI116094   1.088   5.684   0.914  0.0000  0.0000  0.0000
16095SI     SI116095   2.169   7.275   8.972  0.0000  0.0000  0.0000
16096SI     SI116096   8.031   9.475   0.887  0.0000  0.0000  0.0000
16097SI     SI116097   0.445   7.120   9.228  0.0000  0.0000  0.0000
16098SI     SI116098   4.824   0.713   8.292  0.0000  0.0000  0.0000
16099SI     SI116099   2.150   2.043   0.655  0.0000  0.0000  0.0000
16100SI     SI116100   2.473   8.501   0.069  0.0000  0.0000  0.0000
16101SI     SI116101   4.003   2.737   0.342  0.0000  0.0000  0.0000
16102SI     SI116102   7.736   3.976   0.930  0.0000  0.0000  0.0000
16103SI     SI116103   2.128   6.004   8.766  0.0000  0.0000  0.0000
16104SI     SI116104   3.213   6.432   8.858  0.0000  0.0000  0.0000
16105SI     SI116105   8.604   5.597   0.407  0.0000  0.0000  0.0000
16106SI     SI116106   6.438   3.459   1.136  0.0000  0.0000  0.0000
16107SI     SI116107   7.758   7.453   0.155  0.0000  0.0000  0.0000
16108SI     SI116108   7.173   7.053   1.231  0.0000  0.0000  0.0000
16109SI     SI116109   2.825   8.832   0.120  0.0000  0.0000  0.0000
16110SI     SI116110   5.461   3.090   0.026  0.0000  0.0000  0.0000
16111SI     SI116111   5.539   4.609   9.444  0.0000  0.0000  0.0000
16112SI     SI116112   9.205   5.979   8.928  0.0000  0.0000  0.0000
16113SI     SI116113   2.334   4.200   0.544  0.0000  0.0000  0.0000
16114SI     SI116114   8.705   8.210   0.381  0.0000  0.0000  0.0000
16115SI     SI116115   0.548   5.404   0.386  0.0000  0.0000  0.0000
16116SI     SI116116   0.364   0.751   1.152  0.0000  0.0000  0.0000
16117SI     SI116117   5.421   3.626   1.079  0.0000  0.0000  0.0000
16118SI     SI116118   9.602   0.985   9.036  0.0000  0.0000  0.0000
16119SI     SI116119   5.010   8.847   9.108  0.0000  0.0000  0.0000
16120SI     SI116120   2.013   2.051   8.700  0.0000  0.0000  0.0000
16121SI     SI116121   1.225   7.486   8.859  0.0000  0.0000  0.0000
16122SI     SI116122   6.764   6.422   0.910  0.0000  0.0000  0.0000
16123SI     SI116123   9.078   4.829   8.393  0.0000  0.0000  0.0000
16124SI     SI116124   2.930   8.868   8.578  0.0000  0.0000  0.0000
16125SI     SI116125   7.186   8.045   0.949  0.0000  0.0000  0.0000
16126SI     SI116126   4.125   1.547   0.977  0.0000  0.0000  0.0000
16127SI     SI116127   5.274   4.132   9.494  0.0000  0.0000  0.0000
16128SI     SI116128   5.182   4.126   1.286  0.0000  0.0000  0.0000
16129SI     SI116129   7.478   3.285   8.509  0.0000  0.0000  0.0000
16130SI     SI116130   2.679   5.709   1.383  0.0000  0.0000  0.0000
16131SI     SI116131   2.251   3.750   9.491  0.0000  0.0000  0.0000
16132SI     SI116132   5.014   6.077   0.752  0.0000  0.0000  0.0000
16133SI     SI116133   5.815   4.590   9.308  0.0000  0.0000  0.0000
16134SI     SI116134   8.189   2.026   8.837  0.0000  0.0000  0.0000
16135SI     SI116135   2.502   5.936   9.027  0.0000  0.0000  0.0000
16136SI     SI116136   4.065   5.752   0.407  0.0000  0.0000  0.0000
16137SI     SI116137   1.223   4.061   8.834  0.0000  0.0000  0.0000
16138SI     SI116138   2.236   0.198   1.240  0.0000  0.0000  0.0000
16139SI     SI116139   3.556   0.310   9.127  0.0000  0.0000  0.0000
16140SI     SI116140   4.613   0.612   8.873  0.0000  0.0000  0.0000
16141SI     SI116141   0.657   0.076   8.534  0.0000  0.0000  0.0000
16142SI     SI116142   3.212   0.342   0.251  0.0000  0.0000  0.0000
16143SI     SI116143   6.375   8.086   0.937  0.0000  0.0000  0.0000
16144SI     SI116144   3.515   0.368   0.331  0.0000  0.0000  0.0000
16145SI     SI116145   7.246   5.597   9.221  0.0000  0.0000  0.0000
16146SI     SI116146   5.181   5.451   8.804  0.0000  0.0000  0.0000
16147SI     SI116147   8.299   5.636   1.387  0.0000  0.0000  0.0000
16148SI     SI116148   7.210   1.434   0.314  0.0000  0.0000  0.0000
16149SI     SI116149   2.195   4.992   0.490  0.0000  0.0000  0.0000
16150SI     SI116150   9.594   7.417   0.718  0.0000  0.0000  0.0000
16151SI     SI116151   9.174   7.265   1.066  0.0000  0.0000  0.0000
16152SI     SI116152   2.797   1.608   0.436  0.0000  0.0000  0.0000
16153SI     SI116153   4.630   7.644   1.096  0.0000  0.0000  0.0000
16154SI     SI116154   6.850   5.636   0.750  0.0000  0.0000  0.0000
16155SI     SI116155   6.573   8.734   9.262  0.0000  0.0000  0.0000
16156SI     SI116156   6.373   6.210   9.093  0.0000  0.0000  0.0000
16157SI     SI116157   0.616   0.114   8.842  0.0000  0.0000  0.0000
16158SI     SI116158   5.766   4.819   8.431  0.0000  0.0000  0.0000
16159SI     SI116159   0.990   9.360   0.263  0.0000  0.0000  0.0000
16160SI     SI116160   5.087   8.025   8.725  0.0000  0.0000  0.0000
16161SI     SI116161   0.158   2.518   0.775  0.0000  0.0000  0.0000
16162SI     SI116162   0.020   3.989   8.361  0.0000  0.0000  0.0000
16163SI     SI116163   7.243   4.292   8.391  0.0000  0.0000  0.0000
16164SI     SI116164   1.789   9.378   0.786  0.0000  0.0000  0.0000
16165SI     SI116165   0.190   5.696   9.121  0.0000  0.0000  0.0000
16166SI     SI116166   0.000   0.542   0.418  0.0000  0.0000  0.0000
16167SI     SI116167   4.716   3.980   8.873  0.0000  0.0000  0.0000
16168SI     SI116168   8.667   6.789   1.064  0.0000  0.0000  0.0000
16169SI     SI116169   7.274   2.475   0.262  0.0000  0.0000  0.0000
16170SI     SI116170   8.019   1.043   8.748  0.0000  0.0000  0.0000
16171SI     SI116171   5.658   3.414   1.054  0.0000  0.0000  0.0000
16172SI     SI116172   3.355   1.093   8.326  0.0000  0.0000  0.0000
16173SI     SI116173   0.061   4.443   0.072  0.0000  0.0000  0.0000
16174SI     SI116174   0.123   5.891   9.356  0.0000  0.0000  0.0000
16175SI     SI116175   7.831   1.627   8.860  0.0000  0.0000  0.0000
16176SI     SI116176   2.267   5.759   8.629  0.0000  0.0000  0.0000
16177SI     SI116177   3.120   1.035   1.183  0.0000  0.0000  0.0000
16178SI     SI116178   5.710   5.999   8.499  0.0000  0.0000  0.0000
16179SI     SI116179   3.751   7.265   0.561  0.0000  0.0000  0.0000
16180SI     SI116180   4.681   1.717   0.447  0.0000  0.0000  0.0000
16181SI     SI116181   0.327   5.887   8.921  0.0000  0.0000  0.0000
16182SI     SI116182   9.519   0.626   1.320  0.0000  0.0000  0.0000
16183SI     SI116183   4.346   3.904   9.228  0.0000  0.0000  0.0000
16184SI     SI116184   5.463   5.925   0.655  0.0000  0.0000  0.0000
16185SI     SI116185   6.084   7.275   0.549  0.0000  0.0000  0.0000
16186SI     SI116186   1.417   6.968   1.377  0.0000  0.0000  0.0000
16187SI     SI116187   1.720   6.213   0.453  0.0000  0.0000  0.0000
16188SI     SI116188   3.650   1.739   1.373  0.0000  0.0000  0.0000
16189SI     SI116189   2.219   0.443   9.278  0.0000  0.0000  0.0000
16190SI     SI116190   8.050   6.346   8.512  0.0000  0.0000  0.0000
16191SI     SI116191   7.370   6.304   0.350  0.0000  0.0000  0.0000
16192SI     SI116192   0.397   1.168   8.630  0.0000  0.0000  0.0000
16193SI     SI116193   9.138   4.328   0.403  0.0000  0.0000  0.0000
16194SI     SI116194   0.375   2.669   8.627  0.0000  0.0000  0.0000
16195SI     SI116195   9.278   8.962   9.592  0.0000  0.0000  0.0000
16196SI     SI116196   2.723   5.509   8.273  0.0000  0.0000  0.0000
16197SI     SI116197   3.641   2.112   8.975  0.0000  0.0000  0.0000
16198SI     SI116198   3.935   3.590   9.414  0.0000  0.0000  0.0000
16199SI     SI116199   8.260   7.513   9.295  0.0000  0.0000  0.0000
16200SI     SI116200   4.039   9.119   9.586  0.0000  0.0000  0.0000
16201SI     SI116201   9.345   5.621   9.484  0.0000  0.0000  0.0000
16202SI     SI116202   4.655   7.724   8.584  0.0000  0.0000  0.0000
16203SI     SI116203   9.236   4.517   0.825  0.0000  0.0000  0.0000
16204SI     SI116204   1.123   6.743   9.102  0.0000  0.0000  0.0000
16205SI     SI116205   6.851   8.368   0.228  0.0000  0.0000  0.0000
16206SI     SI116206   7.082   5.611   8.709  0.0000  0.0000  0.0000
16207SI     SI116207   4.634   6.317   8.476  0.0000  0.0000  0.0000
16208SI     SI116208   7.543   0.544   8.882  0.0000  0.0000  0.0000
16209SI     SI116209   0.829   0.706   0.351  0.0000  0.0000  0.0000
16210SI     SI116210   7.572   4.119   8.791  0.0000  0.0000  0.0000
16211SI     SI116211   1.220   2.704   0.918  0.0000  0.0000  0.0000
16212SI     SI116212   6.714   9.188   8.856  0.0000  0.0000  0.0000
16213SI     SI116213   1.027   2.645   8.729  0.0000  0.0000  0.0000
16214SI     SI116214   9.211   8.548   8.710  0.0000  0.0000  0.0000
16215SI     SI116215   1.269   8.275   0.447  0.0000  0.0000  0.0000
16216SI     SI116216   1.056   5.454   8.564  0.0000  0.0000  0.0000
16217SI     SI116217   2.826   1.876   8.974  0.0000  0.0000  0.0000
16218SI     SI116218   6.053   7.901   8.356  0.0000  0.0000  0.0000
16219SI     SI116219   1.946   2.832   9.303  0.0000  0.0000  0.0000
16220SI     SI116220   5.882   5.695   8.823  0.0000  0.0000  0.0000
16221SI     SI116221   4.416   2.613   0.560  0.0000  0.0000  0.0000
16222SI     SI116222   8.327   0.461   8.519  0.0000  0.0000  0.0000
16223SI     SI116223   1.301   3.471   8.732  0.0000  0.0000  0.0000
16224SI     SI116224   0.129   4.402   0.839  0.0000  0.0000  0.0000
16225SI     SI116225   8.256   2.496   8.687  0.0000  0.0000  0.0000
16226SI     SI116226   1.015   0.389   0.660  0.0000  0.0000  0.0000
16227SI     SI116227   8.039   6.769   8.653  0.0000  0.0000  0.0000
16228SI     SI116228   3.363   7.292   0.435  0.0000  0.0000  0.0000
16229SI     SI116229   1.254   8.495   8.795  0.0000  0.0000  0.0000
16230SI     SI116230   3.107   8.024   0.485  0.0000  0.0000  0.0000
16231SI     SI116231   9.045   0.074   9.115  0.0000  0.0000  0.0000
16232SI     SI116232   0.974   4.168   8.993  0.0000  0.0000  0.0000
16233SI     SI116233   2.071   8.854   8.252  0.0000  0.0000  0.0000
16234SI     SI116234   6.536   3.840   0.849  0.0000  0.0000  0.0000
16235SI     SI116235   5.459   0.332   8.671  0.0000  0.0000  0.0000
16236SI     SI116236   4.772   1.058   0.795  0.0000  0.0000  0.0000
16237SI     SI116237   3.756   1.595   8.971  0.0000  0.0000  0.0000
16238SI     SI116238   4.396   2.208   9.316  0.0000  0.0000  0.0000
16239SI     SI116239   3.518   1.396   9.504  0.0000  0.0000  0.0000
16240SI     SI116240   4.886   3.674   8.286  0.0000  0.0000  0.0000
16241SI     SI116241   0.846   5.660   8.460  0.0000  0.0000  0.0000
16242SI     SI116242   3.008   5.608   8.247  0.0000  0.0000  0.0000
16243SI     SI116243   3.224   6.271   0.010  0.0000  0.0000  0.0000
16244SI     SI116244   9.160   7.118   0.633  0.0000  0.0000  0.0000
16245SI     SI116245   1.382   6.749   8.240  0.0000  0.0000  0.0000
16246SI     SI116246   6.112   4.334   8.788  0.0000  0.0000  0.0000
16247SI     SI116247   5.874   8.871   9.552  0.0000  0.0000  0.0000
16248SI     SI116248   7.269   9.310   0.437  0.0000  0.0000  0.0000
16249SI     SI116249   4.101   7.158   1.025  0.0000  0.0000  0.0000
16250SI     SI116250   1.386   1.678   8.652  0.0000  0.0000  0.0000
16251SI     SI116251   7.768   6.578   0.631  0.0000  0.0000  0.0000
16252SI     SI116252   8.094   2.922   0.009  0.0000  0.0000  0.0000
16253SI     SI116253   2.382   2.266   8.671  0.0000  0.0000  0.0000
16254SI     SI116254   6.799   8.539   0.708  0.0000  0.0000  0.0000
16255SI     SI116255   8.504   6.475   8.824  0.0000  0.0000  0.0000
16256SI     SI116256   5.864   3.515   0.837  0.0000  0.0000  0.0000
16257SI     SI116257   3.321   4.471   1.004  0.0000  0.0000  0.0000
16258SI     SI116258   7.932   4.453   0.992  0.0000  0.0000  0.0000
16259SI     SI116259   1.749   5.727   9.291  0.0000  0.0000  0.0000
16260SI     SI116260   3.711   5.822   8.864  0.0000  0.0000  0.0000
16261SI     SI116261   0.131   5.769   0.028  0.0000  0.0000  0.0000
16262SI     SI116262   5.937   3.269   8.590  0.0000  0.0000  0.0000
16263SI     SI116263   4.550   9.594   8.555  0.0000  0.0000  0.0000
16264SI     SI116264   3.880   5.447   8.981  0.0000  0.0000  0.0000
16265SI     SI116265   8.222   8.624   1.280  0.0000  0.0000  0.0000
16266SI     SI116266   4.640   2.230   0.614  0.0000  0.0000  0.0000
16267SI     SI116267   8.797   9.013   0.392  0.0000  0.0000  0.0000
16268SI     SI116268   4.474   8.463   8.437  0.0000  0.0000  0.0000
16269SI     SI116269   6.314   2.349   9.238  0.0000  0.0000  0.0000
16270SI     SI116270   5.178   1.499   0.360  0.0000  0.0000  0.0000
16271SI     SI116271   2.532   9.328   9.305  0.0000  0.0000  0.0000
16272SI     SI116272   0.227   7.272   0.836  0.0000  0.0000  0.0000
16273SI     SI116273   3.434   7.461   0.923  0.0000  0.0000  0.0000
16274SI     SI116274   1.217   5.422   0.919  0.0000  0.0000  0.0000
16275SI     SI116275   4.823   4.166   9.248  0.0000  0.0000  0.0000
16276SI     SI116276   4.912   9.563   0.858  0.0000  0.0000  0.0000
16277SI     SI116277   3.993   8.217   8.294  0.0000  0.0000  0.0000
16278SI     SI116278   2.004   3.816   0.570  0.0000  0.0000  0.0000
16279SI     SI116279   4.686   9.502   9.062  0.0000  0.0000  0.0000
16280SI     SI116280   0.662   3.479   8.292  0.0000  0.0000  0.0000
16281SI     SI116281   6.159   1.896   0.221  0.0000  0.0000  0.0000
16282SI     SI116282   3.155   5.283   0.213  0.0000  0.0000  0.0000
16283SI     SI116283   3.689   5.258   9.529  0.0000  0.0000  0.0000
16284SI     SI116284   1.646   6.913   8.590  0.0000  0.0000  0.0000
16285SI     SI116285   4.785   3.655   9.263  0.0000  0.0000  0.0000
16286SI     SI116286   5.264   1.746   0.880  0.0000  0.0000  0.0000
16287SI     SI116287   7.086   6.612   8.467  0.0000  0.0000  0.0000
16288SI     SI116288   5.503   2.225   8.320  0.0000  0.0000  0.0000
16289SI     SI116289   4.768   7.738   0.463  0.0000  0.0000  0.0000
16290SI     SI116290   3.829   6.318   9.120  0.0000  0.0000  0.0000
16291SI     SI116291   8.682   3.750   0.973  0.0000  0.0000  0.0000
16292SI     SI116292   1.083   9.010   0.771  0.0000  0.0000  0.0000
16293SI     SI116293   0.672   4.505   1.085  0.0000  0.0000  0.0000
16294SI     SI116294   4.284   0.362   8.347  0.0000  0.0000  0.0000
16295SI     SI116295   4.955   6.430   1.161  0.0000  0.0000  0.0000
16296SI     SI116296   9.447   1.179   0.402  0.0000  0.0000  0.0000
16297SI     SI116297   2.574   4.830   9.578  0.0000  0.0000  0.0000
16298SI     SI116298   0.855   1.437   1.006  0.0000  0.0000  0.0000
16299SI     SI116299   9.286   1.081   0.145  0.0000  0.0000  0.0000
16300SI     SI116300   5.570   3.502   8.729  0.0000  0.0000  0.0000
16301SI     SI116301   7.907   0.594   9.117  0.0000  0.0000  0.0000
16302SI     SI116302   0.786   9.218   8.372  0.0000  0.0000  0.0000
16303SI     SI116303   5.129   6.523   9.305  0.0000  0.0000  0.0000
16304SI     SI116304   3.607   2.882   0.625  0.0000  0.0000  0.0000
16305SI     SI116305   2.901   0.572   0.949  0.0000  0.0000  0.0000
16306SI     SI116306   8.302   9.374   0.819  0.0000  0.0000  0.0000
16307SI     SI116307   0.857   8.809   9.441  0.0000  0.0000  0.0000
16308SI     SI116308   0.523   6.350   1.276  0.0000  0.0000  0.0000
16309SI     SI116309   2.387   0.416   1.073  0.0000  0.0000  0.0000
16310SI     SI116310   4.853   1.649   9.592  0.0000  0.0000  0.0000
16311SI     SI116311   3.132   0.265   1.266  0.0000  0.0000  0.0000
16312SI     SI116312   7.885   8.419   8.685  0.0000  0.0000  0.0000
16313SI     SI116313   8.680   2.512   8.916  0.0000  0.0000  0.0000
16314SI     SI116314   1.099   7.368   8.245  0.0000  0.0000  0.0000
16315SI     SI116315   9.564   1.252   8.868  0.0000  0.0000  0.0000
16316SI     SI116316   6.279   0.850   9.101  0.0000  0.0000  0.0000
16317SI     SI116317   7.220   1.212   0.547  0.0000  0.0000  0.0000
16318SI     SI116318   6.640   8.165   1.045  0.0000  0.0000  0.0000
16319SI     SI116319   7.846   5.066   8.785  0.0000  0.0000  0.0000
16320SI     SI116320   8.665   5.914   1.291  0.0000  0.0000  0.0000
16321SI     SI116321   8.977   7.377   0.863  0.0000  0.0000  0.0000
16322SI     SI116322   9.328   7.254   8.659  0.0000  0.0000  0.0000
16323SI     SI116323   5.390   2.921   9.387  0.0000  0.0000  0.0000
16324SI     SI116324   5.046   4.089   0.865  0.0000  0.0000  0.0000
16325SI     SI116325   3.227   5.456   8.414  0.0000  0.0000  0.0000
16326SI     SI116326   7.295   2.342   8.828  0.0000  0.0000  0.0000
16327SI     SI116327   7.292   4.955   0.333  0.0000  0.0000  0.0000
16328SI     SI116328   0.528   2.182   0.017  0.0000  0.0000  0.0000
16329SI     SI116329   8.650   3.602   0.476  0.0000  0.0000  0.0000
16330SI     SI116330   5.539   8.982   0.358  0.0000  0.0000  0.0000
16331SI     SI116331   3.449   6.219   0.970  0.0000  0.0000  0.0000
16332SI     SI116332   8.089   5.700   0.506  0.0000  0.0000  0.0000
16333SI     SI116333   5.245   6.936   0.472  0.0000  0.0000  0.0000
16334SI     SI116334   3.561   1.411   8.598  0.0000  0.0000  0.0000
16335SI     SI116335   5.851   7.052   9.073  0.0000  0.0000  0.0000
16336SI     SI116336   3.172   2.663   0.264  0.0000  0.0000  0.0000
16337SI     SI116337   3.145   1.629   0.717  0.0000  0.0000  0.0000
16338SI     SI116338   1.318   7.529   1.203  0.0000  0.0000  0.0000
16339SI     SI116339   3.253   3.997   0.071  0.0000  0.0000  0.0000
16340SI     SI116340   8.002   5.694   0.208  0.0000  0.0000  0.0000
16341SI     SI116341   2.704   3.787   1.040  0.0000  0.0000  0.0000
16342SI     SI116342   9.277   7.015   9.133  0.0000  0.0000  0.0000
16343SI     SI116343   3.530   5.031   0.528  0.0000  0.0000  0.0000
16344SI     SI116344   5.874   1.843   1.403  0.0000  0.0000  0.0000
16345SI     SI116345   3.943   4.826   0.767  0.0000  0.0000  0.0000
16346SI     SI116346   9.256   6.561   8.308  0.0000  0.0000  0.0000
16347SI     SI116347   1.428   5.176   9.131  0.0000  0.0000  0.0000
16348SI     SI116348   2.409   4.760   0.520  0.0000  0.0000  0.0000
16349SI     SI116349   4.819   3.679   0.417  0.0000  0.0000  0.0000
16350SI     SI116350   3.171   9.288   8.788  0.0000  0.0000  0.0000
16351SI     SI116351   3.364   7.495   8.500  0.0000  0.0000  0.0000
16352SI     SI116352   6.859   0.682   9.501  0.0000  0.0000  0.0000
16353SI     SI116353   1.644   6.247   8.721  0.0000  0.0000  0.0000
16354SI     SI116354   1.036   3.204   9.498  0.0000  0.0000  0.0000
16355SI     SI116355   1.489   2.061   0.109  0.0000  0.0000  0.0000
16356SI     SI116356   4.128   9.476   1.205  0.0000  0.0000  0.0000
16357SI     SI116357   7.892   8.186   8.492  0.0000  0.0000  0.0000
16358SI     SI116358   0.750   8.710   9.162  0.0000  0.0000  0.0000
16359SI     SI116359   9.316   0.284   8.402  0.0000  0.0000  0.0000
16360SI     SI116360   3.977   6.069   9.186  0.0000  0.0000  0.0000
16361SI     SI116361   5.566   9.239   9.485  0.0000  0.0000  0.0000
16362SI     SI116362   7.211   9.511   9.089  0.0000  0.0000  0.0000
16363SI     SI116363   2.366   8.101   8.605  0.0000  0.0000  0.0000
16364SI     SI116364   6.854   3.128   1.403  0.0000  0.0000  0.0000
16365SI     SI116365   8.768   4.023   0.872  0.0000  0.0000  0.0000
16366SI     SI116366   6.230   6.048   8.865  0.0000  0.0000  0.0000
16367SI     SI116367   6.816   9.272   0.802  0.0000  0.0000  0.0000
16368SI     SI116368   7.008   3.773   8.549  0.0000  0.0000  0.0000
16369SI     SI116369   6.975   4.345   0.261  0.0000  0.0000  0.0000
16370SI     SI116370   4.684   0.526   1.218  0.0000  0.0000  0.0000
16371SI     SI116371   7.458   6.400   8.977  0.0000  0.0000  0.0000
16372SI     SI116372   8.252   6.161   1.272  0.0000  0.0000  0.0000
16373SI     SI116373   3.155   9.584   1.132  0.0000  0.0000  0.0000
16374SI     SI116374   6.970   6.509   0.553  0.0000  0.0000  0.0000
16375SI     SI116375   9.430   4.190   1.424  0.0000  0.0000  0.0000
16376SI     SI116376   2.748   7.353   0.844  0.0000  0.0000  0.0000
16377SI     SI116377   9.401   6.888   9.380  0.0000  0.0000  0.0000
16378SI     SI116378   4.850   7.268   9.414  0.0000  0.0000  0.0000
16379SI     SI116379   4.807   6.975   0.209  0.0000  0.0000  0.0000
16380SI     SI116380   9.053   1.415   8.740  0.0000  0.0000  0.0000
16381SI     SI116381   6.027   3.729   0.976  0.0000  0.0000  0.0000
16382SI     SI116382   1.276   1.097   0.221  0.0000  0.0000  0.0000
16383SI     SI116383   1.028   2.025   1.033  0.0000  0.0000  0.0000
16384SI     SI116384   9.309   5.566   8.624  0.0000  0.0000  0.0000
16385SI     SI116385   7.592   5.092   0.865  0.0000  0.0000  0.0000
16386SI     SI116386   3.404   2.855   8.275  0.0000  0.0000  0.0000
16387SI     SI116387   2.438   6.006   1.112  0.0000  0.0000  0.0000
16388SI     SI116388   2.200   0.151   9.314  0.0000  0.0000  0.0000
16389SI     SI116389   8.979   3.128   0.772  0.0000  0.0000  0.0000
16390SI     SI116390   8.932   9.394   0.156  0.0000  0.0000  0.0000
16391SI     SI116391   7.603   4.176   0.534  0.0000  0.0000  0.0000
16392SI     SI116392   1.774   6.872   9.541  0.0000  0.0000  0.0000
16393SI     SI116393   8.891   4.214   1.083  0.0000  0.0000  0.0000
16394SI     SI116394   9.506   7.511   8.673  0.0000  0.0000  0.0000
16395SI     SI116395   4.404   0.172   1.119  0.0000  0.0000  0.0000
16396SI     SI116396   5.282   8.458   9.225  0.0000  0.0000  0.0000
16397SI     SI116397   5.338   0.945   1.335  0.0000  0.0000  0.0000
16398SI     SI116398   9.099   7.195   0.341  0.0000  0.0000  0.0000
16399SI     SI116399   6.268   8.060   8.479  0.0000  0.0000  0.0000
16400SI     SI116400   8.887   3.277   9.244  0.0000  0.0000  0.0000
16401SI     SI116401   5.242   2.234   0.343  0.0000  0.0000  0.0000
16402SI     SI116402   7.269   3.120   8.384  0.0000  0.0000  0.0000
16403SI     SI116403   6.294   4.614   9.144  0.0000  0.0000  0.0000
16404SI     SI116404   4.541   3.510   0.190  0.0000  0.0000  0.0000
16405SI     SI116405   7.780   6.802   8.298  0.0000  0.0000  0.0000
16406SI     SI116406   1.426   1.761   1.126  0.0000  0.0000  0.0000
16407SI     SI116407   0.116   3.073   8.588  0.0000  0.0000  0.0000
16408SI     SI116408   0.171   8.877   0.104  0.0000  0.0000  0.0000
16409SI     SI116409   6.877   2.358   9.162  0.0000  0.0000  0.0000
16410SI     SI116410   3.677   6.637   8.320  0.0000  0.0000  0.0000
16411SI     SI116411   6.948   4.409   0.561  0.0000  0.0000  0.0000
16412SI     SI116412   5.222   5.101   8.387  0.0000  0.0000  0.0000
16413SI     SI116413   3.696   6.992   8.721  0.0000  0.0000  0.0000
16414SI     SI116414   2.420   8.796   9.299  0.0000  0.0000  0.0000
16415SI     SI116415   8.655   2.641   0.735  0.0000  0.0000  0.0000
16416SI     SI116416   2.886   5.817   0.435  0.0000  0.0000  0.0000
16417SI     SI116417   6.141   0.783   8.693  0.0000  0.0000  0.0000
16418SI     SI116418   8.420   1.310   0.990  0.0000  0.0000  0.0000
16419SI     SI116419   5.072   4.839   8.812  0.0000  0.0000  0.0000
16420SI     SI116420   1.295   2.450   9.233  0.0000  0.0000  0.0000
16421SI     SI116421   8.692   6.574   0.627  0.0000  0.0000  0.0000
16422SI     SI116422   4.816   6.156   0.386  0.0000  0.0000  0.0000
16423SI     SI116423   2.010   7.400   9.177  0.0000  0.0000  0.0000
16424SI     SI116424   3.806   5.896   8.577  0.0000  0.0000  0.0000
16425SI     SI116425   7.332   9.193   1.094  0.0000  0.0000  0.0000
16426SI     SI116426   2.349   2.493   0.778  0.0000  0.0000  0.0000
16427SI     SI116427   1.375   9.603   0.485  0.0000  0.0000  0.0000
16428SI     SI116428   4.551   5.226   0.307  0.0000  0.0000  0.0000
16429SI     SI116429   0.349   2.744   8.317  0.0000  0.0000  0.0000
16430SI     SI116430   4.371   4.301   8.555  0.0000  0.0000  0.0000
16431SI     SI116431   7.931   1.266   0.627  0.0000  0.0000  0.0000
16432SI     SI116432   4.282   4.313   0.054  0.0000  0.0000  0.0000
16433SI     SI116433   6.827   4.463   8.990  0.0000  0.0000  0.0000
16434SI     SI116434   3.871   6.473   1.006  0.0000  0.0000  0.0000
16435SI     SI116435   0.614   4.190   9.298  0.0000  0.0000  0.0000
16436SI     SI116436   5.391   6.520   9.465  0.0000  0.0000  0.0000
16437SI     SI116437   2.224   5.234   8.755  0.0000  0.0000  0.0000
16438SI     SI116438   8.472   0.020   0.831  0.0000  0.0000  0.0000
16439SI     SI116439   4.291   6.905   9.269  0.0000  0.0000  0.0000
16440SI     SI116440   7.045   5.103   0.204  0.0000  0.0000  0.0000
16441SI     SI116441   0.774   8.734   1.098  0.0000  0.0000  0.0000
16442SI     SI116442   1.298   0.205   0.989  0.0000  0.0000  0.0000
16443SI     SI116443   9.137   7.539   0.637  0.0000  0.0000  0.0000
16444SI     SI116444   2.432   1.042   9.106  0.0000  0.0000  0.0000
16445SI     SI116445   1.230   2.139   0.548  0.0000  0.0000  0.0000
16446SI     SI116446   1.822   4.198   0.625  0.0000  0.0000  0.0000
16447SI     SI116447   8.303   9.528   0.044  0.0000  0.0000  0.0000
16448SI     SI116448   6.333   1.444   0.616  0.0000  0.0000  0.0000
16449SI     SI116449   4.071   8.518   0.431  0.0000  0.0000  0.0000
16450SI     SI116450   0.916   4.216   0.117  0.0000  0.0000  0.0000
16451SI     SI116451   8.485   6.343   1.335  0.0000  0.0000  0.0000
16452SI     SI116452   4.247   6.407   1.298  0.0000  0.0000  0.0000
16453SI     SI116453   7.393   3.030   0.807  0.0000  0.0000  0.0000
16454SI     SI116454   8.923   8.998   8.763  0.0000  0.0000  0.0000
16455SI     SI116455   8.397   2.815   8.326  0.0000  0.0000  0.0000
16456SI     SI116456   2.187   6.374   8.354  0.0000  0.0000  0.0000
16457SI     SI116457   3.791   2.170   8.588  0.0000  0.0000  0.0000
16458SI     SI116458   3.018   5.695   9.041  0.0000  0.0000  0.0000
16459SI     SI116459   4.842   7.282   8.666  0.0000  0.0000  0.0000
16460SI     SI116460   0.388   8.016   0.278  0.0000  0.0000  0.0000
16461SI     SI116461   5.968   2.702   8.603  0.0000  0.0000  0.0000
16462SI     SI116462   3.166   6.753   8.528  0.0000  0.0000  0.0000
16463SI     SI116463   1.445   2.648   1.112  0.0000  0.0000  0.0000
16464SI     SI116464   1.515   8.092   0.796  0.0000  0.0000  0.0000
16465SI     SI116465   1.802   2.345   0.806  0.0000  0.0000  0.0000
16466SI     SI116466   5.751   2.283   8.488  0.0000  0.0000  0.0000
16467SI     SI116467   0.647   2.275   0.773  0.0000  0.0000  0.0000
16468SI     SI116468   5.595   5.289   1.158  0.0000  0.0000  0.0000
16469SI     SI116469   0.937   4.412   1.220  0.0000  0.0000  0.0000
16470SI     SI116470   2.675   5.107   0.025  0.0000  0.0000  0.0000
16471SI     SI116471   2.219   7.486   0.537  0.0000  0.0000  0.0000
16472SI     SI116472   0.889   8.424   9.160  0.0000  0.0000  0.0000
16473SI     SI116473   8.741   0.560   1.030  0.0000  0.0000  0.0000
16474SI     SI116474   5.872   1.204   8.695  0.0000  0.0000  0.0000
16475SI     SI116475   8.424   8.050   9.044  0.0000  0.0000  0.0000
16476SI     SI116476   5.572   7.485   9.486  0.0000  0.0000  0.0000
16477SI     SI116477   6.838   1.698   0.547  0.0000  0.0000  0.0000
16478SI     SI116478   8.509   7.471   8.476  0.0000  0.0000  0.0000
16479SI     SI116479   7.048   6.047   8.398  0.0000  0.0000  0.0000
16480SI     SI116480   7.772   3.885   0.122  0.0000  0.0000  0.0000
16481SI     SI116481   4.190   7.136   1.324  0.0000  0.0000  0.0000
16482SI     SI116482   5.369   0.567   8.837  0.0000  0.0000  0.0000
16483SI     SI116483   7.295   2.536   9.370  0.0000  0.0000  0.0000
16484SI     SI116484   2.454   7.594   8.390  0.0000  0.0000  0.0000
16485SI     SI116485   2.379   2.851   0.101  0.0000  0.0000  0.0000
16486SI     SI116486   0.425   4.873   9.574  0.0000  0.0000  0.0000
16487SI     SI116487   2.682   8.641   0.678  0.0000  0.0000  0.0000
16488SI     SI116488   4.531   2.185   0.324  0.0000  0.0000  0.0000
16489SI     SI116489   1.880   2.152   8.226  0.0000  0.0000  0.0000
16490SI     SI116490   3.784   7.435   8.610  0.0000  0.0000  0.0000
16491SI     SI116491   2.696   7.760   8.774  0.0000  0.0000  0.0000
16492SI     SI116492   0.239   1.910   0.847  0.0000  0.0000  0.0000
16493SI     SI116493   6.271   4.349   9.512  0.0000  0.0000  0.0000
16494SI     SI116494   9.021   0.992   9.023  0.0000  0.0000  0.0000
16495SI     SI116495   1.301   2.207   8.519  0.0000  0.0000  0.0000
16496SI     SI116496   3.183   4.002   0.466  0.0000  0.0000  0.0000
16497SI     SI116497   9.470   4.731   0.875  0.0000  0.0000  0.0000
16498SI     SI116498   6.589   3.545   0.878  0.0000  0.0000  0.0000
16499SI     SI116499   9.298   7.763   1.198  0.0000  0.0000  0.0000
16500SI     SI116500   5.784   5.972   1.085  0.0000  0.0000  0.0000
16501SI     SI116501   5.432   7.021   0.845  0.0000  0.0000  0.0000
16502SI     SI116502   8.831   8.120   0.886  0.0000  0.0000  0.0000
16503SI     SI116503   6.411   0.417   0.914  0.0000  0.0000  0.0000
16504SI     SI116504   0.786   3.439   0.489  0.0000  0.0000  0.0000
16505SI     SI116505   5.567   1.184   8.712  0.0000  0.0000  0.0000
16506SI     SI116506   1.631   3.098   8.225  0.0000  0.0000  0.0000
16507SI     SI116507   1.023   8.649   0.515  0.0000  0.0000  0.0000
16508SI     SI116508   2.134   4.731   0.147  0.0000  0.0000  0.0000
16509SI     SI116509   4.874   1.552   0.848  0.0000  0.0000  0.0000
16510SI     SI116510   3.775   5.882   0.422  0.0000  0.0000  0.0000
16511SI     SI116511   6.393   1.165   1.258  0.0000  0.0000  0.0000
16512SI     SI116512   4.590   0.716   8.438  0.0000  0.0000  0.0000
16513SI     SI116513   3.533   0.660   0.434  0.0000  0.0000  0.0000
16514SI     SI116514   1.834   6.647   0.138  0.0000  0.0000  0.0000
16515SI     SI116515   7.967   2.314   9.150  0.0000  0.0000  0.0000
16516SI     SI116516   8.193   6.967   0.861  0.0000  0.0000  0.0000
16517SI     SI116517   3.003   5.601   0.864  0.0000  0.0000  0.0000
16518SI     SI116518   3.189   0.257   8.233  0.0000  0.0000  0.0000
16519SI     SI116519   5.254   5.920   8.420  0.0000  0.0000  0.0000
16520SI     SI116520   3.864   8.789   8.665  0.0000  0.0000  0.0000
16521SI     SI116521   3.830   2.127   0.265  0.0000  0.0000  0.0000
16522SI     SI116522   8.432   6.926   0.302  0.0000  0.0000  0.0000
16523SI     SI116523   7.347   8.437   0.177  0.0000  0.0000  0.0000
16524SI     SI116524   2.866   1.657   8.538  0.0000  0.0000  0.0000
16525SI     SI116525   6.890   3.652   9.442  0.0000  0.0000  0.0000
16526SI     SI116526   8.697   6.068   1.013  0.0000  0.0000  0.0000
16527SI     SI116527   6.477   5.955   9.231  0.0000  0.0000  0.0000
16528SI     SI116528   8.611   5.355   1.307  0.0000  0.0000  0.0000
16529SI     SI116529   6.834   1.480   0.768  0.0000  0.0000  0.0000
16530SI     SI116530   0.240   6.230   1.317  0.0000  0.0000  0.0000
16531SI     SI116531   9.379   3.771   9.575  0.0000  0.0000  0.0000
16532SI     SI116532   7.077   8.400   8.551  0.0000  0.0000  0.0000
16533SI     SI116533   8.612   5.119   0.785  0.0000  0.0000  0.0000
16534SI     SI116534   6.060   0.397   8.282  0.0000  0.0000  0.0000
16535SI     SI116535   4.296   9.485   8.420  0.0000  0.0000  0.0000
16536SI     SI116536   4.582   5.111   9.389  0.0000  0.0000  0.0000
16537SI     SI116537   6.300   7.187   8.999  0.0000  0.0000  0.0000
16538SI     SI116538   2.901   5.441   1.118  0.0000  0.0000  0.0000
16539SI     SI116539   6.504   1.932   1.316  0.0000  0.0000  0.0000
16540SI     SI116540   3.059   1.480   0.325  0.0000  0.0000  0.0000
16541SI     SI116541   2.272   2.673   8.948  0.0000  0.0000  0.0000
16542SI     SI116542   5.069   8.767   0.567  0.0000  0.0000  0.0000
16543SI     SI116543   2.919   5.199   9.448  0.0000  0.0000  0.0000
16544SI     SI116544   2.460   3.023   0.783  0.0000  0.0000  0.0000
16545SI     SI116545   5.674   7.953   9.540  0.0000  0.0000  0.0000
16546SI     SI116546   0.165   0.304   0.315  0.0000  0.0000  0.0000
16547SI     SI116547   3.862   9.541   0.814  0.0000  0.0000  0.0000
16548SI     SI116548   4.178   0.366   0.742  0.0000  0.0000  0.0000
16549SI     SI116549   8.225   7.040   8.235  0.0000  0.0000  0.0000
16550SI     SI116550   6.248   6.289   1.042  0.0000  0.0000  0.0000
16551SI     SI116551   4.285   1.895   0.603  0.0000  0.0000  0.0000
16552SI     SI116552   2.854   7.492   0.507  0.0000  0.0000  0.0000
16553SI     SI116553   4.825   9.486   8.484  0.0000  0.0000  0.0000
16554SI     SI116554   2.411   1.862   0.640  0.0000  0.0000  0.0000
16555SI     SI116555   8.605   1.306   0.565  0.0000  0.0000  0.0000
16556SI     SI116556   6.608   9.114   0.369  0.0000  0.0000  0.0000
16557SI     SI116557   1.450   3.224   8.657  0.0000  0.0000  0.0000
16558SI     SI116558   5.674   6.136   0.873  0.0000  0.0000  0.0000
16559SI     SI116559   0.358   9.191   8.754  0.0000  0.0000  0.0000
16560SI     SI116560   4.172   6.318   8.604  0.0000  0.0000  0.0000
16561SI     SI116561   5.465   3.958   0.286  0.0000  0.0000  0.0000
16562SI     SI116562   7.079   4.682   8.673  0.0000  0.0000  0.0000
16563SI     SI116563   4.151   4.480   8.245  0.0000  0.0000  0.0000
16564SI     SI116564   4.728   5.109   8.448  0.0000  0.0000  0.0000
16565SI     SI116565   9.544   0.155   0.895  0.0000  0.0000  0.0000
16566SI     SI116566   1.881   4.768   0.604  0.0000  0.0000  0.0000
16567SI     SI116567   2.454   3.322   8.631  0.0000  0.0000  0.0000
16568SI     SI116568   2.811   3.735   0.256  0.0000  0.0000  0.0000
16569SI     SI116569   7.080   7.575   0.780  0.0000  0.0000  0.0000
16570SI     SI116570   1.075   8.597   8.567  0.0000  0.0000  0.0000
16571SI     SI116571   3.887   7.150   9.331  0.0000  0.0000  0.0000
16572SI     SI116572   1.840   6.801   0.408  0.0000  0.0000  0.0000
16573SI     SI116573   2.489   4.617   8.773  0.0000  0.0000  0.0000
16574SI     SI116574   0.633   7.258   9.431  0.0000  0.0000  0.0000
16575SI     SI116575   5.533   1.164   9.472  0.0000  0.0000  0.0000
16576SI     SI116576   6.933   6.968   0.157  0.0000  0.0000  0.0000
16577SI     SI116577   5.832   3.259   9.442  0.0000  0.0000  0.0000
16578SI     SI116578   7.317   1.144   8.511  0.0000  0.0000  0.0000
16579SI     SI116579   2.922   1.510   1.133  0.0000  0.0000  0.0000
16580SI     SI116580   7.485   2.027   0.237  0.0000  0.0000  0.0000
16581SI     SI116581   6.864   5.204   8.433  0.0000  0.0000  0.0000
16582SI     SI116582   2.252   8.096   9.298  0.0000  0.0000  0.0000
16583SI     SI116583   3.510   8.955   0.303  0.0000  0.0000  0.0000
16584SI     SI116584   6.781   0.525   0.597  0.0000  0.0000  0.0000
16585SI     SI116585   6.979   6.083   8.845  0.0000  0.0000  0.0000
16586SI     SI116586   8.676   6.842   9.086  0.0000  0.0000  0.0000
16587SI     SI116587   8.223   5.448   8.751  0.0000  0.0000  0.0000
16588SI     SI116588   3.615   6.714   8.613  0.0000  0.0000  0.0000
16589SI     SI116589   2.852   8.007   8.676  0.0000  0.0000  0.0000
16590SI     SI116590   7.220   7.346   8.699  0.0000  0.0000  0.0000
16591SI     SI116591   8.207   8.928   1.330  0.0000  0.0000  0.0000
16592SI     SI116592   8.416   5.361   0.802  0.0000  0.0000  0.0000
16593SI     SI116593   8.458   2.819   9.213  0.0000  0.0000  0.0000
16594SI     SI116594   5.218   8.974   8.335  0.0000  0.0000  0.0000
16595SI     SI116595   4.769   4.444   8.842  0.0000  0.0000  0.0000
16596SI     SI116596   8.381   8.041   9.343  0.0000  0.0000  0.0000
16597SI     SI116597   5.934   2.421   1.237  0.0000  0.0000  0.0000
16598SI     SI116598   5.136   4.405   1.148  0.0000  0.0000  0.0000
16599SI     SI116599   0.116   3.115   8.901  0.0000  0.0000  0.0000
16600SI     SI116600   6.905   3.567   0.876  0.0000  0.0000  0.0000
16601SI     SI116601   1.526   1.837   8.256  0.0000  0.0000  0.0000
16602SI     SI116602   4.190   4.741   8.425  0.0000  0.0000  0.0000
16603SI     SI116603   6.413   3.360   8.672  0.0000  0.0000  0.0000
16604SI     SI116604   3.354   8.802   0.688  0.0000  0.0000  0.0000
16605SI     SI116605   2.823   6.197   8.759  0.0000  0.0000  0.0000
16606SI     SI116606   4.057   7.659   9.200  0.0000  0.0000  0.0000
16607SI     SI116607   6.606   9.088   0.924  0.0000  0.0000  0.0000
16608SI     SI116608   5.031   5.087   0.116  0.0000  0.0000  0.0000
16609SI     SI116609   2.444   0.920   9.599  0.0000  0.0000  0.0000
16610SI     SI116610   1.727   1.469   9.066  0.0000  0.0000  0.0000
16611SI     SI116611   8.096   3.884   0.539  0.0000  0.0000  0.0000
16612SI     SI116612   7.138   4.271   0.729  0.0000  0.0000  0.0000
16613SI     SI116613   7.758   6.777   1.041  0.0000  0.0000  0.0000
16614SI     SI116614   0.176   2.235   8.997  0.0000  0.0000  0.0000
16615SI     SI116615   4.236   7.829   0.583  0.0000  0.0000  0.0000
16616SI     SI116616   2.359   8.507   9.386  0.0000  0.0000  0.0000
16617SI     SI116617   6.307   0.181   9.156  0.0000  0.0000  0.0000
16618SI     SI116618   2.566   5.318   0.187  0.0000  0.0000  0.0000
16619SI     SI116619   0.404   8.913   0.853  0.0000  0.0000  0.0000
16620SI     SI116620   2.474   0.725   8.451  0.0000  0.0000  0.0000
16621SI     SI116621   3.036   8.147   1.222  0.0000  0.0000  0.0000
16622SI     SI116622   2.748   4.925   9.135  0.0000  0.0000  0.0000
16623SI     SI116623   1.056   2.243   0.318  0.0000  0.0000  0.0000
16624SI     SI116624   4.930   8.125   9.213  0.0000  0.0000  0.0000
16625SI     SI116625   2.933   2.997   9.267  0.0000  0.0000  0.0000
16626SI     SI116626   4.224   8.639   0.908  0.0000  0.0000  0.0000
16627SI     SI116627   5.265   6.510   0.852  0.0000  0.0000  0.0000
16628SI     SI116628   8.958   1.123   8.750  0.0000  0.0000  0.0000
16629SI     SI116629   8.020   5.826   9.378  0.0000  0.0000  0.0000
16630SI     SI116630   8.094   0.735   0.808  0.0000  0.0000  0.0000
16631SI     SI116631   8.534   3.577   8.399  0.0000  0.0000  0.0000
16632SI     SI116632   9.464   0.083   9.588  0.0000  0.0000  0.0000
16633SI     SI116633   0.844   1.672   8.844  0.0000  0.0000  0.0000
16634SI     SI116634   7.764   8.150   0.111  0.0000  0.0000  0.0000
16635SI     SI116635   7.736   5.162   9.074  0.0000  0.0000  0.0000
16636SI     SI116636   5.608   2.720   0.225  0.0000  0.0000  0.0000
16637SI     SI116637   5.575   8.236   8.448  0.0000  0.0000  0.0000
16638SI     SI116638   6.132   1.870   9.248  0.0000  0.0000  0.0000
16639SI     SI116639   0.856   0.389   9.550  0.0000  0.0000  0.0000
16640SI     SI116640   4.390   8.829   0.562  0.0000  0.0000  0.0000
16641SI     SI116641   2.138   6.734   1.143  0.0000  0.0000  0.0000
16642SI     SI116642   2.793   9.605   0.085  0.0000  0.0000  0.0000
16643SI     SI116643   4.904   5.360   8.789  0.0000  0.0000  0.0000
16644SI     SI116644   6.839   2.211   0.031  0.0000  0.0000  0.0000
16645SI     SI116645   7.782   5.212   0.167  0.0000  0.0000  0.0000
16646SI     SI116646   1.385   4.950   8.926  0.0000  0.0000  0.0000
16647SI     SI116647   8.324   4.095   0.541  0.0000  0.0000  0.0000
16648SI     SI116648   8.963   8.283   0.202  0.0000  0.0000  0.0000
16649SI     SI116649   8.582   6.429   8.516  0.0000  0.0000  0.0000
16650SI     SI116650   0.716   4.476   0.785  0.0000  0.0000  0.0000
16651SI     SI116651   6.188   3.734   1.416  0.0000  0.0000  0.0000
16652SI     SI116652   7.846   4.199   8.202  0.0000  0.0000  0.0000
16653SI     SI116653   6.612   7.498   8.932  0.0000  0.0000  0.0000
16654SI     SI116654   7.118   7.060   9.527  0.0000  0.0000  0.0000
16655SI     SI116655   8.921   3.904   0.112  0.0000  0.0000  0.0000
16656SI     SI116656   8.367   7.669   0.857  0.0000  0.0000  0.0000
16657SI     SI116657   3.739   4.724   9.389  0.0000  0.0000  0.0000
16658SI     SI116658   5.363   6.873   0.180  0.0000  0.0000  0.0000
16659SI     SI116659   5.902   0.002   0.114  0.0000  0.0000  0.0000
16660SI     SI116660   3.272   4.886   0.450  0.0000  0.0000  0.0000
16661SI     SI116661   5.871   6.580   8.532  0.0000  0.0000  0.0000
16662SI     SI116662   2.789   1.755   1.022  0.0000  0.0000  0.0000
16663SI     SI116663   7.190   4.922   0.629  0.0000  0.0000  0.0000
16664SI     SI116664   9.023   1.329   1.075  0.0000  0.0000  0.0000
16665SI     SI116665   4.471   6.052   0.594  0.0000  0.0000  0.0000
16666SI     SI116666   7.833   7.516   1.065  0.0000  0.0000  0.0000
16667SI     SI116667   6.348   6.855   0.655  0.0000  0.0000  0.0000
16668SI     SI116668   8.665   2.146   8.623  0.0000  0.0000  0.0000
16669SI     SI116669   7.591   9.576   9.413  0.0000  0.0000  0.0000
16670SI     SI116670   5.514   6.995   1.140  0.0000  0.0000  0.0000
16671SI     SI116671   6.078   5.379   1.205  0.0000  0.0000  0.0000
16672SI     SI116672   0.332   8.318   8.592  0.0000  0.0000  0.0000
16673SI     SI116673   7.456   3.765   1.188  0.0000  0.0000  0.0000
16674SI     SI116674   2.047   5.427   0.685  0.0000  0.0000  0.0000
16675SI     SI116675   6.280   8.777   0.341  0.0000  0.0000  0.0000
16676SI     SI116676   7.421   5.340   1.236  0.0000  0.0000  0.0000
16677SI     SI116677   2.792   8.488   0.930  0.0000  0.0000  0.0000
16678SI     SI116678   5.881   3.929   1.157  0.0000  0.0000  0.0000
16679SI     SI116679   1.659   7.867   0.968  0.0000  0.0000  0.0000
16680SI     SI116680   7.543   0.863   8.871  0.0000  0.0000  0.0000
16681SI     SI116681   0.728   1.781   9.339  0.0000  0.0000  0.0000
16682SI     SI116682   6.644   7.835   0.389  0.0000  0.0000  0.0000
16683SI     SI116683   5.359   7.229   0.487  0.0000  0.0000  0.0000
16684SI     SI116684   3.956   3.754   0.455  0.0000  0.0000  0.0000
16685SI     SI116685   7.643   6.014   1.012  0.0000  0.0000  0.0000
16686SI     SI116686   0.281   3.602   0.118  0.0000  0.0000  0.0000
16687SI     SI116687   4.736   7.344   1.053  0.0000  0.0000  0.0000
16688SI     SI116688   6.103   4.565   9.386  0.0000  0.0000  0.0000
16689SI     SI116689   4.197   4.812   1.096  0.0000  0.0000  0.0000
16690SI     SI116690   5.104   2.545   0.575  0.0000  0.0000  0.0000
16691SI     SI116691   1.050   4.847   9.422  0.0000  0.0000  0.0000
16692SI     SI116692   7.611   7.175   0.154  0.0000  0.0000  0.0000
16693SI     SI116693   3.180   1.520   1.291  0.0000  0.0000  0.0000
16694SI     SI116694   6.640   5.425   1.141  0.0000  0.0000  0.0000
16695SI     SI116695   4.580   0.813   0.770  0.0000  0.0000  0.0000
16696SI     SI116696   3.687   7.158   1.285  0.0000  0.0000  0.0000
16697SI     SI116697   0.370   0.292   0.718  0.0000  0.0000  0.0000
16698SI     SI116698   0.853   1.394   8.438  0.0000  0.0000  0.0000
16699SI     SI116699   1.352   8.560   9.430  0.0000  0.0000  0.0000
16700SI     SI116700   1.738   6.403   0.979  0.0000  0.0000  0.0000
16701SI     SI116701   9.259   8.492   9.454  0.0000  0.0000  0.0000
16702SI     SI116702   6.001   7.353   0.260  0.0000  0.0000  0.0000
16703SI     SI116703   7.660   7.515   9.468  0.0000  0.0000  0.0000
16704SI     SI116704   2.841   4.381   1.125  0.0000  0.0000  0.0000
16705SI     SI116705   5.729   2.243   8.862  0.0000  0.0000  0.0000
16706SI     SI116706   7.350   6.134   0.084  0.0000  0.0000  0.0000
16707SI     SI116707   6.545   8.497   9.437  0.0000  0.0000  0.0000
16708SI     SI116708   9.257   3.123   8.963  0.0000  0.0000  0.0000
16709SI     SI116709   7.621   9.203   9.079  0.0000  0.0000  0.0000
16710SI     SI116710   9.385   4.447   8.481  0.0000  0.0000  0.0000
16711SI     SI116711   1.013   8.008   8.894  0.0000  0.0000  0.0000
16712SI     SI116712   5.654   2.666   8.161  0.0000  0.0000  0.0000
16713SI     SI116713   6.346   4.021   0.392  0.0000  0.0000  0.0000
16714SI     SI116714   4.471   3.578   0.914  0.0000  0.0000  0.0000
16715SI     SI116715   0.537   1.288   9.103  0.0000  0.0000  0.0000
16716SI     SI116716   0.666   7.505   8.926  0.0000  0.0000  0.0000
16717SI     SI116717   4.991   6.391   0.739  0.0000  0.0000  0.0000
16718SI     SI116718   3.069   2.886   9.518  0.0000  0.0000  0.0000
16719SI     SI116719   5.422   2.276   1.221  0.0000  0.0000  0.0000
16720SI     SI116720   5.269   5.553   0.860  0.0000  0.0000  0.0000
16721SI     SI116721   5.389   8.719   8.382  0.0000  0.0000  0.0000
16722SI     SI116722   8.476   4.453   0.767  0.0000  0.0000  0.0000
16723SI     SI116723   5.177   8.068   9.354  0.0000  0.0000  0.0000
16724SI     SI116724   0.370   2.866   0.455  0.0000  0.0000  0.0000
16725SI     SI116725   4.474   0.100   0.332  0.0000  0.0000  0.0000
16726SI     SI116726   0.738   0.969   8.377  0.0000  0.0000  0.0000
16727SI     SI116727   0.730   1.894   0.413  0.0000  0.0000  0.0000
16728SI     SI116728   7.792   9.577   0.052  0.0000  0.0000  0.0000
16729SI     SI116729   6.533   7.007   0.849  0.0000  0.0000  0.0000
16730SI     SI116730   3.199   7.807   8.779  0.0000  0.0000  0.0000
16731SI     SI116731   1.717   5.779   8.562  0.0000  0.0000  0.0000
16732SI     SI116732   1.662   1.852   0.688  0.0000  0.0000  0.0000
16733SI     SI116733   3.878   5.358   0.656  0.0000  0.0000  0.0000
16734SI     SI116734   6.361   2.657   0.081  0.0000  0.0000  0.0000
16735SI     SI116735   8.736   0.261   0.220  0.0000  0.0000  0.0000
16736SI     SI116736   7.821   5.450   0.884  0.0000  0.0000  0.0000
16737SI     SI116737   4.232   6.636   8.258  0.0000  0.0000  0.0000
16738SI     SI116738   5.911   6.224   9.458  0.0000  0.0000  0.0000
16739SI     SI116739   3.241   4.834   8.263  0.0000  0.0000  0.0000
16740SI     SI116740   9.017   8.804   0.312  0.0000  0.0000  0.0000
16741SI     SI116741   4.101   7.113   0.215  0.0000  0.0000  0.0000
16742SI     SI116742   4.226   9.327   0.098  0.0000  0.0000  0.0000
16743SI     SI116743   1.633   7.356   9.593  0.0000  0.0000  0.0000
16744SI     SI116744   9.071   2.595   0.618  0.0000  0.0000  0.0000
16745SI     SI116745   8.541   0.767   9.200  0.0000  0.0000  0.0000
16746SI     SI116746   8.484   1.768   0.791  0.0000  0.0000  0.0000
16747SI     SI116747   5.332   7.832   9.293  0.0000  0.0000  0.0000
16748SI     SI116748   9.216   0.606   9.228  0.0000  0.0000  0.0000
16749SI     SI116749   1.782   0.496   8.395  0.0000  0.0000  0.0000
16750SI     SI116750   6.457   1.116   0.950  0.0000  0.0000  0.0000
16751SI     SI116751   2.127   1.356   0.069  0.0000  0.0000  0.0000
16752SI     SI116752   1.436   3.346   0.069  0.0000  0.0000  0.0000
16753SI     SI116753   0.931   7.660   9.355  0.0000  0.0000  0.0000
16754SI     SI116754   8.495   1.304   8.928  0.0000  0.0000  0.0000
16755SI     SI116755   6.790   2.658   1.339  0.0000  0.0000  0.0000
16756SI     SI116756   1.921   0.638   1.081  0.0000  0.0000  0.0000
16757SI     SI116757   0.979   5.423   0.081  0.0000  0.0000  0.0000
16758SI     SI116758   4.804   5.043   0.312  0.0000  0.0000  0.0000
16759SI     SI116759   7.089   5.993   0.168  0.0000  0.0000  0.0000
16760SI     SI116760   5.767   2.502   8.715  0.0000  0.0000  0.0000
16761SI     SI116761   2.027   0.676   9.350  0.0000  0.0000  0.0000
16762SI     SI116762   0.837   8.342   8.662  0.0000  0.0000  0.0000
16763SI     SI116763   8.604   8.554   8.951  0.0000  0.0000  0.0000
16764SI     SI116764   3.843   0.392   8.353  0.0000  0.0000  0.0000
16765SI     SI116765   3.341   0.973   9.422  0.0000  0.0000  0.0000
16766SI     SI116766   8.545   3.546   9.091  0.0000  0.0000  0.0000
16767SI     SI116767   7.009   0.040   8.888  0.0000  0.0000  0.0000
16768SI     SI116768   9.597   4.820   0.596  0.0000  0.0000  0.0000
16769SI     SI116769   2.934   0.948   9.189  0.0000  0.0000  0.0000
16770SI     SI116770   2.433   4.708   0.230  0.0000  0.0000  0.0000
16771SI     SI116771   8.286   9.549   0.456  0.0000  0.0000  0.0000
16772SI     SI116772   6.191   8.427   1.381  0.0000  0.0000  0.0000
16773SI     SI116773   4.084   0.581   8.385  0.0000  0.0000  0.0000
16774SI     SI116774   8.869   3.921   8.856  0.0000  0.0000  0.0000
16775SI     SI116775   4.529   9.037   0.389  0.0000  0.0000  0.0000
16776SI     SI116776   7.236   3.779   0.729  0.0000  0.0000  0.0000
16777SI     SI116777   3.119   8.268   9.418  0.0000  0.0000  0.0000
16778SI     SI116778   5.705   2.216   1.255  0.0000  0.0000  0.0000
16779SI     SI116779   6.752   6.725   0.239  0.0000  0.0000  0.0000
16780SI     SI116780   5.638   4.087   0.649  0.0000  0.0000  0.0000
16781SI     SI116781   0.588   8.743   8.427  0.0000  0.0000  0.0000
16782SI     SI116782   6.838   9.235   0.507  0.0000  0.0000  0.0000
16783SI     SI116783   8.466   8.575   1.086  0.0000  0.0000  0.0000
16784SI     SI116784   7.098   5.342   8.862  0.0000  0.0000  0.0000
16785SI     SI116785   4.688   8.548   1.162  0.0000  0.0000  0.0000
16786SI     SI116786   6.687   6.071   9.418  0.0000  0.0000  0.0000
16787SI     SI116787   7.427   4.838   0.823  0.0000  0.0000  0.0000
16788SI     SI116788   5.481   6.331   9.253  0.0000  0.0000  0.0000
16789SI     SI116789   3.922   5.090   8.345  0.0000  0.0000  0.0000
16790SI     SI116790   1.689   1.026   9.210  0.0000  0.0000  0.0000
16791SI     SI116791   5.518   3.918   8.296  0.0000  0.0000  0.0000
16792SI     SI116792   1.153   5.436   0.327  0.0000  0.0000  0.0000
16793SI     SI116793   2.074   9.036   1.349  0.0000  0.0000  0.0000
16794SI     SI116794   2.804   4.915   0.766  0.0000  0.0000  0.0000
16795SI     SI116795   0.480   0.011   8.296  0.0000  0.0000  0.0000
16796SI     SI116796   0.658   0.489   8.336  0.0000  0.0000  0.0000
16797SI     SI116797   2.263   6.128   9.499  0.0000  0.0000  0.0000
16798SI     SI116798   5.543   4.146   0.943  0.0000  0.0000  0.0000
16799SI     SI116799   5.230   0.420   9.080  0.0000  0.0000  0.0000
16800SI     SI116800   7.173   0.480   9.167  0.0000  0.0000  0.0000
16801SI     SI116801   1.467   5.434   0.361  0.0000  0.0000  0.0000
16802SI     SI116802   2.658   4.295   8.217  0.0000  0.0000  0.0000
16803SI     SI116803   0.897   6.634   0.647  0.0000  0.0000  0.0000
16804SI     SI116804   6.956   0.504   0.112  0.0000  0.0000  0.0000
16805SI     SI116805   9.385   4.114   0.978  0.0000  0.0000  0.0000
16806SI     SI116806   5.491   1.476   0.390  0.0000  0.0000  0.0000
16807SI     SI116807   3.804   1.821   0.643  0.0000  0.0000  0.0000
16808SI     SI116808   2.421   3.672   8.942  0.0000  0.0000  0.0000
16809SI     SI116809   6.338   0.958   0.278  0.0000  0.0000  0.0000
16810SI     SI116810   1.728   1.977   9.104  0.0000  0.0000  0.0000
16811SI     SI116811   8.494   1.625   8.562  0.0000  0.0000  0.0000
16812SI     SI116812   4.588   1.259   0.184  0.0000  0.0000  0.0000
16813SI     SI116813   0.771   1.663   8.548  0.0000  0.0000  0.0000
16814SI     SI116814   7.240   1.472   9.237  0.0000  0.0000  0.0000
16815SI     SI116815   0.906   7.176   8.620  0.0000  0.0000  0.0000
16816SI     SI116816   5.752   5.342   0.387  0.0000  0.0000  0.0000
16817SI     SI116817   6.695   2.037   8.806  0.0000  0.0000  0.0000
16818SI     SI116818   2.928   3.259   0.456  0.0000  0.0000  0.0000
16819SI     SI116819   5.459   4.480   8.576  0.0000  0.0000  0.0000
16820SI     SI116820   8.637   4.948   9.246  0.0000  0.0000  0.0000
16821SI     SI116821   0.259   7.873   0.701  0.0000  0.0000  0.0000
16822SI     SI116822   1.840   3.544   1.189  0.0000  0.0000  0.0000
16823SI     SI116823   8.408   9.554   9.354  0.0000  0.0000  0.0000
16824SI     SI116824   1.494   0.259   0.029  0.0000  0.0000  0.0000
16825SI     SI116825   5.147   2.009   0.505  0.0000  0.0000  0.0000
16826SI     SI116826   7.356   5.861   0.608  0.0000  0.0000  0.0000
16827SI     SI116827   1.352   3.535   0.913  0.0000  0.0000  0.0000
16828SI     SI116828   2.354   9.178   8.486  0.0000  0.0000  0.0000
16829SI     SI116829   3.782   5.557   9.599  0.0000  0.0000  0.0000
16830SI     SI116830   9.033   8.836   9.009  0.0000  0.0000  0.0000
16831SI     SI116831   1.092   7.012   0.226  0.0000  0.0000  0.0000
16832SI     SI116832   7.598   2.017   1.010  0.0000  0.0000  0.0000
16833SI     SI116833   6.593   4.027   0.592  0.0000  0.0000  0.0000
16834SI     SI116834   7.643   0.037   1.291  0.0000  0.0000  0.0000
16835SI     SI116835   1.003   3.668   8.955  0.0000  0.0000  0.0000
16836SI     SI116836   3.814   1.001   1.183  0.0000  0.0000  0.0000
16837SI     SI116837   1.990   5.594   8.962  0.0000  0.0000  0.0000
16838SI     SI116838   0.365   1.655   8.255  0.0000  0.0000  0.0000
16839SI     SI116839   7.610   8.067   8.478  0.0000  0.0000  0.0000
16840SI     SI116840   5.672   6.151   0.051  0.0000  0.0000  0.0000
16841SI     SI116841   9.163   2.277   1.078  0.0000  0.0000  0.0000
16842SI     SI116842   3.840   6.519   9.537  0.0000  0.0000  0.0000
16843SI     SI116843   6.063   9.156   0.293  0.0000  0.0000  0.0000
16844SI     SI116844   3.347   5.397   0.664  0.0000  0.0000  0.0000
16845SI     SI116845   2.564   2.972   9.081  0.0000  0.0000  0.0000
16846SI     SI116846   0.820   0.249   8.368  0.0000  0.0000  0.0000
16847SI     SI116847   4.345   6.802   0.386  0.0000  0.0000  0.0000
16848SI     SI116848   2.161   6.106   0.569  0.0000  0.0000  0.0000
16849SI     SI116849   3.519   8.766   9.039  0.0000  0.0000  0.0000
16850SI     SI116850   0.823   4.623   8.459  0.0000  0.0000  0.0000
16851SI     SI116851   4.992   6.043   9.054  0.0000  0.0000  0.0000
16852SI     SI116852   1.387   7.233   1.206  0.0000  0.0000  0.0000
16853SI     SI116853   8.191   2.322   8.940  0.0000  0.0000  0.0000
16854SI     SI116854   0.328   6.077   8.383  0.0000  0.0000  0.0000
16855SI     SI116855   0.600   9.053   1.387  0.0000  0.0000  0.0000
16856SI     SI116856   7.176   4.583   9.498  0.0000  0.0000  0.0000
16857SI     SI116857   1.605   1.753   0.432  0.0000  0.0000  0.0000
16858SI     SI116858   3.970   3.664   1.195  0.0000  0.0000  0.0000
16859SI     SI116859   4.328   4.364   9.103  0.0000  0.0000  0.0000
16860SI     SI116860   1.127   9.399   8.617  0.0000  0.0000  0.0000
16861SI     SI116861   5.065   8.690   1.084  0.0000  0.0000  0.0000
16862SI     SI116862   7.286   8.806   9.194  0.0000  0.0000  0.0000
16863SI     SI116863   4.096   6.473   9.127  0.0000  0.0000  0.0000
16864SI     SI116864   5.751   3.129   0.095  0.0000  0.0000  0.0000
16865SI     SI116865   8.336   6.702   0.107  0.0000  0.0000  0.0000
16866SI     SI116866   4.330   3.592   9.149  0.0000  0.0000  0.0000
16867SI     SI116867   0.968   8.003   0.940  0.0000  0.0000  0.0000
16868SI     SI116868   0.518   7.948   0.833  0.0000  0.0000  0.0000
16869SI     SI116869   1.159   4.285   0.510  0.0000  0.0000  0.0000
16870SI     SI116870   2.535   6.215   0.325  0.0000  0.0000  0.0000
16871SI     SI116871   4.831   2.378   8.740  0.0000  0.0000  0.0000
16872SI     SI116872   6.805   2.939   0.464  0.0000  0.0000  0.0000
16873SI     SI116873   6.084   4.695   0.180  0.0000  0.0000  0.0000
16874SI     SI116874   4.876   5.202   9.471  0.0000  0.0000  0.0000
16875SI     SI116875   1.901   7.060   0.850  0.0000  0.0000  0.0000
16876SI     SI116876   1.530   9.091   9.585  0.0000  0.0000  0.0000
16877SI     SI116877   3.843   4.601   0.055  0.0000  0.0000  0.0000
16878SI     SI116878   5.425   9.134   8.509  0.0000  0.0000  0.0000
16879SI     SI116879   5.130   1.276   0.137  0.0000  0.0000  0.0000
16880SI     SI116880   9.369   6.515   1.206  0.0000  0.0000  0.0000
16881SI     SI116881   8.326   5.484   9.483  0.0000  0.0000  0.0000
16882SI     SI116882   1.040   8.020   1.352  0.0000  0.0000  0.0000
16883SI     SI116883   9.497   1.146   9.257  0.0000  0.0000  0.0000
16884SI     SI116884   5.418   8.743   9.270  0.0000  0.0000  0.0000
16885SI     SI116885   3.081   3.706   0.420  0.0000  0.0000  0.0000
16886SI     SI116886   8.251   5.165   8.167  0.0000  0.0000  0.0000
16887SI     SI116887   9.091   9.489   8.415  0.0000  0.0000  0.0000
16888SI     SI116888   3.032   2.396   9.297  0.0000  0.0000  0.0000
16889SI     SI116889   7.357   8.584   0.661  0.0000  0.0000  0.0000
16890SI     SI116890   7.833   0.143   0.455  0.0000  0.0000  0.0000
16891SI     SI116891   8.031   3.571   9.200  0.0000  0.0000  0.0000
16892SI     SI116892   7.887   6.944   0.806  0.0000  0.0000  0.0000
16893SI     SI116893   4.201   5.081   0.967  0.0000  0.0000  0.0000
16894SI     SI116894   0.124   5.227   1.238  0.0000  0.0000  0.0000
16895SI     SI116895   5.937   7.012   9.555  0.0000  0.0000  0.0000
16896SI     SI116896   0.670   6.087   0.369  0.0000  0.0000  0.0000
16897SI     SI116897   7.955   8.947   0.620  0.0000  0.0000  0.0000
16898SI     SI116898   6.152   3.867   9.293  0.0000  0.0000  0.0000
16899SI     SI116899   8.406   4.050   0.034  0.0000  0.0000  0.0000
16900SI     SI116900   3.562   7.740   0.533  0.0000  0.0000  0.0000
16901SI     SI116901   7.657   0.884   0.927  0.0000  0.0000  0.0000
16902SI     SI116902   5.521   4.953   0.642  0.0000  0.0000  0.0000
16903SI     SI116903   7.513   3.144   0.408  0.0000  0.0000  0.0000
16904SI     SI116904   8.389   8.581   9.178  0.0000  0.0000  0.0000
16905SI     SI116905   1.504   4.315   8.461  0.0000  0.0000  0.0000
16906SI     SI116906   5.659   3.293   8.914  0.0000  0.0000  0.0000
16907SI     SI116907   4.583   9.218   0.965  0.0000  0.0000  0.0000
16908SI     SI116908   9.540   4.828   8.652  0.0000  0.0000  0.0000
16909SI     SI116909   5.552   1.029   0.944  0.0000  0.0000  0.0000
16910SI     SI116910   7.098   3.295   8.888  0.0000  0.0000  0.0000
16911SI     SI116911   1.548   1.269   0.584  0.0000  0.0000  0.0000
16912SI     SI116912   4.956   4.512   0.694  0.0000  0.0000  0.0000
16913SI     SI116913   4.818   5.089   0.626  0.0000  0.0000  0.0000
16914SI     SI116914   8.383   8.871   8.528  0.0000  0.0000  0.0000
16915SI     SI116915   1.982   8.549   8.232  0.0000  0.0000  0.0000
16916SI     SI116916   0.533   1.796   1.280  0.0000  0.0000  0.0000
16917SI     SI116917   6.010   1.210   8.417  0.0000  0.0000  0.0000
16918SI     SI116918   4.024   2.052   0.633  0.0000  0.0000  0.0000
16919SI     SI116919   9.510   8.201   0.128  0.0000  0.0000  0.0000
16920SI     SI116920   7.225   3.031   8.803  0.0000  0.0000  0.0000
16921SI     SI116921   1.861   7.897   9.051  0.0000  0.0000  0.0000
16922SI     SI116922   3.218   2.615   9.440  0.0000  0.0000  0.0000
16923SI     SI116923   1.306   4.014   1.135  0.0000  0.0000  0.0000
16924SI     SI116924   3.190   3.711   1.307  0.0000  0.0000  0.0000
16925SI     SI116925   8.119   8.668   9.268  0.0000  0.0000  0.0000
16926SI     SI116926   8.110   4.267   1.153  0.0000  0.0000  0.0000
16927SI     SI116927   7.913   2.543   0.580  0.0000  0.0000  0.0000
16928SI     SI116928   9.104   8.753   9.453  0.0000  0.0000  0.0000
16929SI     SI116929   3.975   4.848   1.288  0.0000  0.0000  0.0000
16930SI     SI116930   5.372   2.855   8.715  0.0000  0.0000  0.0000
16931SI     SI116931   1.505   5.405   8.936  0.0000  0.0000  0.0000
16932SI     SI116932   2.613   9.423   0.673  0.0000  0.0000  0.0000
16933SI     SI116933   7.631   6.276   8.760  0.0000  0.0000  0.0000
16934SI     SI116934   9.009   0.069   0.763  0.0000  0.0000  0.0000
16935SI     SI116935   1.997   6.156   8.374  0.0000  0.0000  0.0000
16936SI     SI116936   6.260   2.105   9.410  0.0000  0.0000  0.0000
16937SI     SI116937   7.776   3.269   0.278  0.0000  0.0000  0.0000
16938SI     SI116938   8.815   6.982   1.274  0.0000  0.0000  0.0000
16939SI     SI116939   5.734   2.774   0.887  0.0000  0.0000  0.0000
16940SI     SI116940   4.098   8.129   0.200  0.0000  0.0000  0.0000
16941SI     SI116941   6.034   3.493   9.523  0.0000  0.0000  0.0000
16942SI     SI116942   1.781   3.191   9.523  0.0000  0.0000  0.0000
16943SI     SI116943   7.559   9.367   1.215  0.0000  0.0000  0.0000
16944SI     SI116944   2.520   1.472   9.391  0.0000  0.0000  0.0000
16945SI     SI116945   2.287   6.762   0.879  0.0000  0.0000  0.0000
16946SI     SI116946   0.991   6.118   0.027  0.0000  0.0000  0.0000
16947SI     SI116947   8.925   8.793   1.322  0.0000  0.0000  0.0000
16948SI     SI116948   9.490   5.088   8.776  0.0000  0.0000  0.0000
16949SI     SI116949   5.965   6.497   9.352  0.0000  0.0000  0.0000
16950SI     SI116950   7.939   1.587   1.262  0.0000  0.0000  0.0000
16951SI     SI116951   7.626   8.385   0.243  0.0000  0.0000  0.0000
16952SI     SI116952   8.588   3.076   8.831  0.0000  0.0000  0.0000
16953SI     SI116953   7.259   0.935   1.225  0.0000  0.0000  0.0000
16954SI     SI116954   5.081   7.532   0.239  0.0000  0.0000  0.0000
16955SI     SI116955   2.531   4.410   1.178  0.0000  0.0000  0.0000
16956SI     SI116956   2.189   5.671   1.327  0.0000  0.0000  0.0000
16957SI     SI116957   9.288   6.490   8.612  0.0000  0.0000  0.0000
16958SI     SI116958   4.040   7.131   0.534  0.0000  0.0000  0.0000
16959SI     SI116959   3.628   7.837   9.071  0.0000  0.0000  0.0000
16960SI     SI116960   7.736   8.683   9.354  0.0000  0.0000  0.0000
16961SI     SI116961   9.109   8.210   0.781  0.0000  0.0000  0.0000
16962SI     SI116962   3.301   3.550   9.292  0.0000  0.0000  0.0000
16963SI     SI116963   6.695   2.395   1.211  0.0000  0.0000  0.0000
16964SI     SI116964   3.866   6.238   0.056  0.0000  0.0000  0.0000
16965SI     SI116965   9.598   1.604   9.461  0.0000  0.0000  0.0000
16966SI     SI116966   3.705   4.834   1.138  0.0000  0.0000  0.0000
16967SI     SI116967   2.149   0.668   8.858  0.0000  0.0000  0.0000
16968SI     SI116968   4.617   8.079   8.863  0.0000  0.0000  0.0000
16969SI     SI116969   3.484   5.065   8.616  0.0000  0.0000  0.0000
16970SI     SI116970   8.780   2.653   0.307  0.0000  0.0000  0.0000
16971SI     SI116971   2.256   6.457   1.244  0.0000  0.0000  0.0000
16972SI     SI116972   5.303   5.029   0.423  0.0000  0.0000  0.0000
16973SI     SI116973   2.383   8.775   0.358  0.0000  0.0000  0.0000
16974SI     SI116974   0.082   6.844   9.382  0.0000  0.0000  0.0000
16975SI     SI116975   1.870   0.928   0.969  0.0000  0.0000  0.0000
16976SI     SI116976   5.636   6.718   0.546  0.0000  0.0000  0.0000
16977SI     SI116977   1.356   3.603   1.208  0.0000  0.0000  0.0000
16978SI     SI116978   7.887   4.569   8.939  0.0000  0.0000  0.0000
16979SI     SI116979   8.536   5.480   8.787  0.0000  0.0000  0.0000
16980SI     SI116980   4.367   7.563   1.242  0.0000  0.0000  0.0000
16981SI     SI116981   1.925   4.389   8.690  0.0000  0.0000  0.0000
16982SI     SI116982   3.108   1.957   9.516  0.0000  0.0000  0.0000
16983SI     SI116983   3.826   5.445   8.671  0.0000  0.0000  0.0000
16984SI     SI116984   9.555   1.860   0.739  0.0000  0.0000  0.0000
16985SI     SI116985   9.350   1.813   0.284  0.0000  0.0000  0.0000
16986SI     SI116986   6.400   7.636   0.038  0.0000  0.0000  0.0000
16987SI     SI116987   3.429   7.282   1.378  0.0000  0.0000  0.0000
16988SI     SI116988   7.750   2.496   0.312  0.0000  0.0000  0.0000
16989SI     SI116989   6.387   3.538   0.452  0.0000  0.0000  0.0000
16990SI     SI116990   0.579   0.186   1.121  0.0000  0.0000  0.0000
16991SI     SI116991   7.071   4.498   0.930  0.0000  0.0000  0.0000
16992SI     SI116992   4.834   7.753   9.526  0.0000  0.0000  0.0000
16993SI     SI116993   8.010   9.522   0.596  0.0000  0.0000  0.0000
16994SI     SI116994   6.801   5.693   9.067  0.0000  0.0000  0.0000
16995SI     SI116995   1.446   1.575   9.457  0.0000  0.0000  0.0000
16996SI     SI116996   7.835   4.680   8.428  0.0000  0.0000  0.0000
16997SI     SI116997   8.615   7.028   0.068  0.0000  0.0000  0.0000
16998SI     SI116998   3.017   5.965   8.661  0.0000  0.0000  0.0000
16999SI     SI116999   3.875   7.159   8.546  0.0000  0.0000  0.0000
17000SI     SI117000   4.526   8.438   9.460  0.0000  0.0000  0.0000
17001SI     SI117001   0.908   3.934   0.473  0.0000  0.0000  0.0000
17002SI     SI117002   8.461   7.264   0.861  0.0000  0.0000  0.0000
17003SI     SI117003   1.805   0.310   0.009  0.0000  0.0000  0.0000
17004SI     SI117004   4.867   6.476   8.338  0.0000  0.0000  0.0000
17005SI     SI117005   6.672   3.528   8.918  0.0000  0.0000  0.0000
17006SI     SI117006   5.514   1.290   9.009  0.0000  0.0000  0.0000
17007SI     SI117007   5.311   5.398   0.597  0.0000  0.0000  0.0000
17008SI     SI117008   5.017   6.822   0.791  0.0000  0.0000  0.0000
17009SI     SI117009   5.480   4.747   1.150  0.0000  0.0000  0.0000
17010SI     SI117010   5.232   7.792   0.180  0.0000  0.0000  0.0000
17011SI     SI117011   8.239   1.685   9.146  0.0000  0.0000  0.0000
17012SI     SI117012   2.955   1.234   0.660  0.0000  0.0000  0.0000
17013SI     SI117013   2.879   3.959   8.581  0.0000  0.0000  0.0000
17014SI     SI117014   5.957   0.663   0.991  0.0000  0.0000  0.0000
17015SI     SI117015   4.700   1.451   8.552  0.0000  0.0000  0.0000
17016SI     SI117016   8.688   4.956   1.280  0.0000  0.0000  0.0000
17017SI     SI117017   1.851   5.878   0.095  0.0000  0.0000  0.0000
17018SI     SI117018   3.900   5.149   9.322  0.0000  0.0000  0.0000
17019SI     SI117019   9.169   0.808   9.449  0.0000  0.0000  0.0000
17020SI     SI117020   1.300   7.534   0.331  0.0000  0.0000  0.0000
17021SI     SI117021   6.475   0.159   8.897  0.0000  0.0000  0.0000
17022SI     SI117022   7.243   0.511   8.863  0.0000  0.0000  0.0000
17023SI     SI117023   9.473   4.776   9.080  0.0000  0.0000  0.0000
17024SI     SI117024   1.685   6.373   0.194  0.0000  0.0000  0.0000
17025SI     SI117025   4.767   4.149   8.415  0.0000  0.0000  0.0000
17026SI     SI117026   7.029   7.862   8.506  0.0000  0.0000  0.0000
17027SI     SI117027   6.627   5.243   0.194  0.0000  0.0000  0.0000
17028SI     SI117028   8.369   6.006   9.073  0.0000  0.0000  0.0000
17029SI     SI117029   9.576   6.544   0.607  0.0000  0.0000  0.0000
17030SI     SI117030   6.161   3.636   8.560  0.0000  0.0000  0.0000
17031SI     SI117031   4.548   5.464   0.098  0.0000  0.0000  0.0000
17032SI     SI117032   8.166   8.335   0.878  0.0000  0.0000  0.0000
17033SI     SI117033   5.350   8.442   8.929  0.0000  0.0000  0.0000
17034SI     SI117034   3.591   8.258   9.354  0.0000  0.0000  0.0000
17035SI     SI117035   5.247   7.525   0.964  0.0000  0.0000  0.0000
17036SI     SI117036   2.699   7.858   0.976  0.0000  0.0000  0.0000
17037SI     SI117037   1.498   1.986   9.429  0.0000  0.0000  0.0000
17038SI     SI117038   2.197   8.960   9.461  0.0000  0.0000  0.0000
17039SI     SI117039   9.281   0.440   0.588  0.0000  0.0000  0.0000
17040SI     SI117040   2.526   9.463   9.596  0.0000  0.0000  0.0000
17041SI     SI117041   4.470   1.353   1.069  0.0000  0.0000  0.0000
17042SI     SI117042   2.643   1.713   9.535  0.0000  0.0000  0.0000
17043SI     SI117043   0.881   7.812   1.182  0.0000  0.0000  0.0000
17044SI     SI117044   7.500   8.696   8.458  0.0000  0.0000  0.0000
17045SI     SI117045   0.454   7.069   8.564  0.0000  0.0000  0.0000
17046SI     SI117046   7.760   9.342   0.977  0.0000  0.0000  0.0000
17047SI     SI117047   3.421   7.725   0.788  0.0000  0.0000  0.0000
17048SI     SI117048   6.542   1.380   0.837  0.0000  0.0000  0.0000
17049SI     SI117049   8.162   1.397   9.094  0.0000  0.0000  0.0000
17050SI     SI117050   7.531   6.274   9.256  0.0000  0.0000  0.0000
17051SI     SI117051   0.746   2.702   8.872  0.0000  0.0000  0.0000
17052SI     SI117052   3.850   8.299   9.176  0.0000  0.0000  0.0000
17053SI     SI117053   2.319   8.206   0.453  0.0000  0.0000  0.0000
17054SI     SI117054   7.751   7.329   9.237  0.0000  0.0000  0.0000
17055SI     SI117055   7.411   0.295   8.247  0.0000  0.0000  0.0000
17056SI     SI117056   0.651   5.766   8.668  0.0000  0.0000  0.0000
17057SI     SI117057   0.991   8.441   0.067  0.0000  0.0000  0.0000
17058SI     SI117058   8.193   8.203   8.608  0.0000  0.0000  0.0000
17059SI     SI117059   6.804   3.241   0.506  0.0000  0.0000  0.0000
17060SI     SI117060   5.689   5.795   0.472  0.0000  0.0000  0.0000
17061SI     SI117061   1.485   1.483   0.136  0.0000  0.0000  0.0000
17062SI     SI117062   5.579   7.204   8.397  0.0000  0.0000  0.0000
17063SI     SI117063   3.356   5.238   8.830  0.0000  0.0000  0.0000
17064SI     SI117064   8.770   2.194   0.672  0.0000  0.0000  0.0000
17065SI     SI117065   0.984   5.289   0.536  0.0000  0.0000  0.0000
17066SI     SI117066   0.680   7.031   8.765  0.0000  0.0000  0.0000
17067SI     SI117067   7.043   1.450   8.651  0.0000  0.0000  0.0000
17068SI     SI117068   0.602   5.931   9.058  0.0000  0.0000  0.0000
17069SI     SI117069   4.909   9.011   8.411  0.0000  0.0000  0.0000
17070SI     SI117070   6.580   3.452   0.062  0.0000  0.0000  0.0000
17071SI     SI117071   8.858   7.808   0.328  0.0000  0.0000  0.0000
17072SI     SI117072   1.374   6.869   0.907  0.0000  0.0000  0.0000
17073SI     SI117073   1.906   8.849   9.481  0.0000  0.0000  0.0000
17074SI     SI117074   4.016   2.683   9.219  0.0000  0.0000  0.0000
17075SI     SI117075   3.095   8.637   8.362  0.0000  0.0000  0.0000
17076SI     SI117076   6.211   3.758   8.845  0.0000  0.0000  0.0000
17077SI     SI117077   6.977   5.080   9.324  0.0000  0.0000  0.0000
17078SI     SI117078   4.563   7.896   9.565  0.0000  0.0000  0.0000
17079SI     SI117079   8.071   8.954   8.971  0.0000  0.0000  0.0000
17080SI     SI117080   2.437   1.872   0.323  0.0000  0.0000  0.0000
17081SI     SI117081   2.126   0.200   8.823  0.0000  0.0000  0.0000
17082SI     SI117082   5.343   4.797   0.232  0.0000  0.0000  0.0000
17083SI     SI117083   6.606   1.888   8.560  0.0000  0.0000  0.0000
17084SI     SI117084   0.901   6.828   0.079  0.0000  0.0000  0.0000
17085SI     SI117085   3.909   4.091   9.142  0.0000  0.0000  0.0000
17086SI     SI117086   8.534   6.829   0.583  0.0000  0.0000  0.0000
17087SI     SI117087   0.955   2.763   0.249  0.0000  0.0000  0.0000
17088SI     SI117088   9.142   5.783   0.992  0.0000  0.0000  0.0000
17089SI     SI117089   6.319   1.681   1.285  0.0000  0.0000  0.0000
17090SI     SI117090   4.466   3.005   8.849  0.0000  0.0000  0.0000
17091SI     SI117091   3.334   7.728   0.155  0.0000  0.0000  0.0000
17092SI     SI117092   2.899   2.644   8.841  0.0000  0.0000  0.0000
17093SI     SI117093   7.806   8.565   0.869  0.0000  0.0000  0.0000
17094SI     SI117094   2.428   3.700   1.177  0.0000  0.0000  0.0000
17095SI     SI117095   5.342   4.821   0.873  0.0000  0.0000  0.0000
17096SI     SI117096   7.428   2.011   0.738  0.0000  0.0000  0.0000
17097SI     SI117097   7.481   8.082   9.042  0.0000  0.0000  0.0000
17098SI     SI117098   8.220   1.766   0.609  0.0000  0.0000  0.0000
17099SI     SI117099   0.168   5.329   8.271  0.0000  0.0000  0.0000
17100SI     SI117100   0.035   9.060   0.682  0.0000  0.0000  0.0000
17101SI     SI117101   5.814   0.349   9.277  0.0000  0.0000  0.0000
17102SI     SI117102   2.317   7.492   0.831  0.0000  0.0000  0.0000
17103SI     SI117103   1.616   9.387   9.172  0.0000  0.0000  0.0000
17104SI     SI117104   7.131   8.825   8.719  0.0000  0.0000  0.0000
17105SI     SI117105   0.111   2.777   0.601  0.0000  0.0000  0.0000
17106SI     SI117106   6.141   5.293   8.759  0.0000  0.0000  0.0000
17107SI     SI117107   4.921   0.220   0.681  0.0000  0.0000  0.0000
17108SI     SI117108   2.124   0.998   0.809  0.0000  0.0000  0.0000
17109SI     SI117109   4.187   4.420   9.383  0.0000  0.0000  0.0000
17110SI     SI117110   7.549   8.140   0.697  0.0000  0.0000  0.0000
17111SI     SI117111   2.116   7.115   8.347  0.0000  0.0000  0.0000
17112SI     SI117112   9.087   5.586   0.060  0.0000  0.0000  0.0000
17113SI     SI117113   3.971   7.526   8.837  0.0000  0.0000  0.0000
17114SI     SI117114   0.576   2.372   0.274  0.0000  0.0000  0.0000
17115SI     SI117115   6.379   2.960   0.096  0.0000  0.0000  0.0000
17116SI     SI117116   1.653   5.067   9.320  0.0000  0.0000  0.0000
17117SI     SI117117   9.047   0.897   0.242  0.0000  0.0000  0.0000
17118SI     SI117118   8.295   2.773   8.834  0.0000  0.0000  0.0000
17119SI     SI117119   9.149   5.366   0.757  0.0000  0.0000  0.0000
17120SI     SI117120   9.508   8.501   0.019  0.0000  0.0000  0.0000
17121SI     SI117121   0.588   3.880   0.921  0.0000  0.0000  0.0000
17122SI     SI117122   8.168   6.672   9.129  0.0000  0.0000  0.0000
17123SI     SI117123   5.052   7.053   8.385  0.0000  0.0000  0.0000
17124SI     SI117124   2.566   8.286   1.028  0.0000  0.0000  0.0000
17125SI     SI117125   0.723   1.855   9.047  0.0000  0.0000  0.0000
17126SI     SI117126   0.302   7.576   9.605  0.0000  0.0000  0.0000
17127SI     SI117127   5.709   3.088   8.457  0.0000  0.0000  0.0000
17128SI     SI117128   5.006   3.086   8.488  0.0000  0.0000  0.0000
17129SI     SI117129   6.550   2.028   9.366  0.0000  0.0000  0.0000
17130SI     SI117130   6.954   5.479   1.162  0.0000  0.0000  0.0000
17131SI     SI117131   4.370   1.516   8.985  0.0000  0.0000  0.0000
17132SI     SI117132   8.709   5.620   1.193  0.0000  0.0000  0.0000
17133SI     SI117133   2.993   7.743   0.965  0.0000  0.0000  0.0000
17134SI     SI117134   2.385   4.132   1.144  0.0000  0.0000  0.0000
17135SI     SI117135   4.522   7.761   0.665  0.0000  0.0000  0.0000
17136SI     SI117136   1.115   2.392   1.275  0.0000  0.0000  0.0000
17137SI     SI117137   6.589   4.092   8.579  0.0000  0.0000  0.0000
17138SI     SI117138   8.148   2.624   9.546  0.0000  0.0000  0.0000
17139SI     SI117139   7.707   8.843   0.005  0.0000  0.0000  0.0000
17140SI     SI117140   2.696   2.191   0.477  0.0000  0.0000  0.0000
17141SI     SI117141   2.848   4.326   9.379  0.0000  0.0000  0.0000
17142SI     SI117142   1.477   6.906   9.525  0.0000  0.0000  0.0000
17143SI     SI117143   8.941   4.761   0.163  0.0000  0.0000  0.0000
17144SI     SI117144   1.154   1.872   9.044  0.0000  0.0000  0.0000
17145SI     SI117145   7.200   5.819   8.255  0.0000  0.0000  0.0000
17146SI     SI117146   3.330   0.057   0.909  0.0000  0.0000  0.0000
17147SI     SI117147   5.522   8.913   1.321  0.0000  0.0000  0.0000
17148SI     SI117148   0.850   2.948   0.479  0.0000  0.0000  0.0000
17149SI     SI117149   4.615   8.091   1.122  0.0000  0.0000  0.0000
17150SI     SI117150   1.181   7.812   9.278  0.0000  0.0000  0.0000
17151SI     SI117151   5.305   3.188   8.261  0.0000  0.0000  0.0000
17152SI     SI117152   4.114   0.165   9.456  0.0000  0.0000  0.0000
17153SI     SI117153   2.040   3.189   0.093  0.0000  0.0000  0.0000
17154SI     SI117154   0.350   9.331   1.031  0.0000  0.0000  0.0000
17155SI     SI117155   3.261   6.755   0.253  0.0000  0.0000  0.0000
17156SI     SI117156   7.919   5.400   1.177  0.0000  0.0000  0.0000
17157SI     SI117157   8.878   0.661   8.615  0.0000  0.0000  0.0000
17158SI     SI117158   0.184   1.864   9.428  0.0000  0.0000  0.0000
17159SI     SI117159   5.243   3.748   9.278  0.0000  0.0000  0.0000
17160SI     SI117160   2.926   6.058   1.008  0.0000  0.0000  0.0000
17161SI     SI117161   1.359   2.252   1.418  0.0000  0.0000  0.0000
17162SI     SI117162   3.706   5.755   9.368  0.0000  0.0000  0.0000
17163SI     SI117163   6.005   0.220   9.079  0.0000  0.0000  0.0000
17164SI     SI117164   4.636   9.344   1.240  0.0000  0.0000  0.0000
17165SI     SI117165   3.380   1.656   8.690  0.0000  0.0000  0.0000
17166SI     SI117166   8.949   3.530   0.564  0.0000  0.0000  0.0000
17167SI     SI117167   2.663   0.971   0.606  0.0000  0.0000  0.0000
17168SI     SI117168   2.989   8.646   9.559  0.0000  0.0000  0.0000
17169SI     SI117169   7.144   3.032   0.991  0.0000  0.0000  0.0000
17170SI     SI117170   3.517   7.435   8.773  0.0000  0.0000  0.0000
17171SI     SI117171   0.818   5.970   8.836  0.0000  0.0000  0.0000
17172SI     SI117172   6.213   4.326   1.333  0.0000  0.0000  0.0000
17173SI     SI117173   5.883   3.005   0.725  0.0000  0.0000  0.0000
17174SI     SI117174   5.984   4.368   0.778  0.0000  0.0000  0.0000
17175SI     SI117175   9.594   2.386   8.809  0.0000  0.0000  0.0000
17176SI     SI117176   8.503   5.043   8.586  0.0000  0.0000  0.0000
17177SI     SI117177   6.126   1.895   8.717  0.0000  0.0000  0.0000
17178SI     SI117178   8.546   4.123   0.312  0.0000  0.0000  0.0000
17179SI     SI117179   6.705   9.218   9.567  0.0000  0.0000  0.0000
17180SI     SI117180   8.042   1.541   0.519  0.0000  0.0000  0.0000
17181SI     SI117181   4.863   8.486   8.816  0.0000  0.0000  0.0000
17182SI     SI117182   3.251   6.596   1.383  0.0000  0.0000  0.0000
17183SI     SI117183   1.807   2.380   1.100  0.0000  0.0000  0.0000
17184SI     SI117184   0.082   5.056   0.200  0.0000  0.0000  0.0000
17185SI     SI117185   4.283   5.981   0.821  0.0000  0.0000  0.0000
17186SI     SI117186   7.410   6.622   1.336  0.0000  0.0000  0.0000
17187SI     SI117187   2.808   2.180   0.869  0.0000  0.0000  0.0000
17188SI     SI117188   3.494   0.320   8.656  0.0000  0.0000  0.0000
17189SI     SI117189   5.652   9.592   0.773  0.0000  0.0000  0.0000
17190SI     SI117190   9.531   6.079   0.674  0.0000  0.0000  0.0000
17191SI     SI117191   8.911   2.067   9.053  0.0000  0.0000  0.0000
17192SI     SI117192   4.270   1.229   8.911  0.0000  0.0000  0.0000
17193SI     SI117193   3.532   2.266   9.395  0.0000  0.0000  0.0000
17194SI     SI117194   0.525   2.387   8.603  0.0000  0.0000  0.0000
17195SI     SI117195   8.563   2.855   0.382  0.0000  0.0000  0.0000
17196SI     SI117196   2.239   3.105   8.729  0.0000  0.0000  0.0000
17197SI     SI117197   3.194   9.033   9.272  0.0000  0.0000  0.0000
17198SI     SI117198   8.874   8.128   8.782  0.0000  0.0000  0.0000
17199SI     SI117199   1.083   9.576   0.451  0.0000  0.0000  0.0000
17200SL     Si117200   3.718   6.537   1.343  0.0000  0.0000  0.0000
17200SL      O117201   3.718   6.537   1.507  0.0000  0.0000  0.0000
17200SL      H117202   3.718   6.537   1.605  0.0000  0.0000  0.0000
17201SL     Si117203   0.859   2.304   1.416  0.0000  0.0000  0.0000
17201SL      O117204   0.859   2.304   1.580  0.0000  0.0000  0.0000
17201SL      H117205   0.859   2.304   1.678  0.0000  0.0000  0.0000
17202SL     Si117206   0.512   6.963   8.305  0.0000  0.0000  0.0000
17202SL      O117207   0.512   6.963   8.141  0.0000  0.0000  0.0000
17202SL      H117208   0.512   6.963   8.043  0.0000  0.0000  0.0000
17203SL     Si117209   4.726   7.237   1.343  0.0000  0.0000  0.0000
17203SL      O117210   4.726   7.237   1.507  0.0000  0.0000  0.0000
17203SL      H117211   4.726   7.237   1.605  0.0000  0.0000  0.0000
17204SL     Si117212   8.499   9.063   8.343  0.0000  0.0000  0.0000
17204SL      O117213   8.499   9.063   8.179  0.0000  0.0000  0.0000
17204SL      H117214   8.499   9.063   8.081  0.0000  0.0000  0.0000
17205SL     Si117215   7.344   5.633   1.265  0.0000  0.0000  0.0000
17205SL      O117216   7.344   5.633   1.429  0.0000  0.0000  0.0000
17205SL      H117217   7.344   5.633   1.527  0.0000  0.0000  0.0000
17206SL     Si117218   3.552   1.314   8.304  0.0000  0.0000  0.0000
17206SL      O117219   3.552   1.314   8.140  0.0000  0.0000  0.0000
17206SL      H117220   3.552   1.314   8.042  0.0000  0.0000  0.0000
17207SL     Si117221   2.722   1.436   8.385  0.0000  0.0000  0.0000
17207SL      O117222   2.722   1.436   8.221  0.0000  0.0000  0.0000
17207SL      H117223   2.722   1.436   8.123  0.0000  0.0000  0.0000
17208SL     Si117224   8.447   1.779   1.289  0.0000  0.0000  0.0000
17208SL      O117225   8.447   1.779   1.453  0.0000  0.0000  0.0000
17208SL      H117226   8.447   1.779   1.551  0.0000  0.0000  0.0000
17209SL     Si117227   7.049   3.466   1.252  0.0000  0.0000  0.0000
17209SL      O117228   7.049   3.466   1.416  0.0000  0.0000  0.0000
17209SL      H117229   7.049   3.466   1.514  0.0000  0.0000  0.0000
17210SL     Si117230   9.430   6.976   8.282  0.0000  0.0000  0.0000
17210SL      O117231   9.430   6.976   8.118  0.0000  0.0000  0.0000
17210SL      H117232   9.430   6.976   8.020  0.0000  0.0000  0.0000
17211SL     Si117233   5.570   4.265   8.421  0.0000  0.0000  0.0000
17211SL      O117234   5.570   4.265   8.257  0.0000  0.0000  0.0000
17211SL      H117235   5.570   4.265   8.159  0.0000  0.0000  0.0000
17212SL     Si117236   7.538   2.498   1.289  0.0000  0.0000  0.0000
17212SL      O117237   7.538   2.498   1.453  0.0000  0.0000  0.0000
17212SL      H117238   7.538   2.498   1.551  0.0000  0.0000  0.0000
17213SL     Si117239   8.202   4.422   1.404  0.0000  0.0000  0.0000
17213SL      O117240   8.202   4.422   1.568  0.0000  0.0000  0.0000
17213SL      H117241   8.202   4.422   1.666  0.0000  0.0000  0.0000
17214SL     Si117242   1.135   5.049   1.234  0.0000  0.0000  0.0000
17214SL      O117243   1.135   5.049   1.398  0.0000  0.0000  0.0000
17214SL      H117244   1.135   5.049   1.496  0.0000  0.0000  0.0000
17215SL     Si117245   5.942   9.189   8.317  0.0000  0.0000  0.0000
17215SL      O117246   5.942   9.189   8.153  0.0000  0.0000  0.0000
17215SL      H117247   5.942   9.189   8.055  0.0000  0.0000  0.0000
17216SL     Si117248   6.754   1.489   1.271  0.0000  0.0000  0.0000
17216SL      O117249   6.754   1.489   1.435  0.0000  0.0000  0.0000
17216SL      H117250   6.754   1.489   1.533  0.0000  0.0000  0.0000
17217SL     Si117251   3.452   9.447   8.395  0.0000  0.0000  0.0000
17217SL      O117252   3.452   9.447   8.231  0.0000  0.0000  0.0000
17217SL      H117253   3.452   9.447   8.133  0.0000  0.0000  0.0000
17218SL     Si117254   9.383   4.752   8.420  0.0000  0.0000  0.0000
17218SL      O117255   9.383   4.752   8.256  0.0000  0.0000  0.0000
17218SL      H117256   9.383   4.752   8.158  0.0000  0.0000  0.0000
17219SL     Si117257   6.343   5.045   1.199  0.0000  0.0000  0.0000
17219SL      O117258   6.343   5.045   1.363  0.0000  0.0000  0.0000
17219SL      H117259   6.343   5.045   1.461  0.0000  0.0000  0.0000
17220SL     Si117260   3.235   5.766   1.359  0.0000  0.0000  0.0000
17220SL      O117261   3.235   5.766   1.523  0.0000  0.0000  0.0000
17220SL      H117262   3.235   5.766   1.621  0.0000  0.0000  0.0000
17221SL     Si117263   0.975   1.598   1.243  0.0000  0.0000  0.0000
17221SL      O117264   0.975   1.598   1.407  0.0000  0.0000  0.0000
17221SL      H117265   0.975   1.598   1.505  0.0000  0.0000  0.0000
17222SL     Si117266   0.256   4.722   1.286  0.0000  0.0000  0.0000
17222SL      O117267   0.256   4.722   1.450  0.0000  0.0000  0.0000
17222SL      H117268   0.256   4.722   1.548  0.0000  0.0000  0.0000
17223SL     Si117269   5.490   3.611   8.236  0.0000  0.0000  0.0000
17223SL      O117270   5.490   3.611   8.072  0.0000  0.0000  0.0000
17223SL      H117271   5.490   3.611   7.974  0.0000  0.0000  0.0000
17224SL     Si117272   2.791   3.090   1.255  0.0000  0.0000  0.0000
17224SL      O117273   2.791   3.090   1.419  0.0000  0.0000  0.0000
17224SL      H117274   2.791   3.090   1.517  0.0000  0.0000  0.0000
17225SL     Si117275   6.746   6.932   8.249  0.0000  0.0000  0.0000
17225SL      O117276   6.746   6.932   8.085  0.0000  0.0000  0.0000
17225SL      H117277   6.746   6.932   7.987  0.0000  0.0000  0.0000
17226SL     Si117278   1.422   0.720   8.381  0.0000  0.0000  0.0000
17226SL      O117279   1.422   0.720   8.217  0.0000  0.0000  0.0000
17226SL      H117280   1.422   0.720   8.119  0.0000  0.0000  0.0000
17227SL     Si117281   4.498   6.262   1.249  0.0000  0.0000  0.0000
17227SL      O117282   4.498   6.262   1.413  0.0000  0.0000  0.0000
17227SL      H117283   4.498   6.262   1.511  0.0000  0.0000  0.0000
17228SL     Si117284   0.532   9.042   8.347  0.0000  0.0000  0.0000
17228SL      O117285   0.532   9.042   8.183  0.0000  0.0000  0.0000
17228SL      H117286   0.532   9.042   8.085  0.0000  0.0000  0.0000
17229SL     Si117287   8.727   2.819   1.324  0.0000  0.0000  0.0000
17229SL      O117288   8.727   2.819   1.488  0.0000  0.0000  0.0000
17229SL      H117289   8.727   2.819   1.586  0.0000  0.0000  0.0000
17230SL     Si117290   8.283   8.135   8.334  0.0000  0.0000  0.0000
17230SL      O117291   8.283   8.135   8.170  0.0000  0.0000  0.0000
17230SL      H117292   8.283   8.135   8.072  0.0000  0.0000  0.0000
17231SL     Si117293   2.034   1.722   1.327  0.0000  0.0000  0.0000
17231SL      O117294   2.034   1.722   1.491  0.0000  0.0000  0.0000
17231SL      H117295   2.034   1.722   1.589  0.0000  0.0000  0.0000
17232SL     Si117296   8.423   1.478   1.261  0.0000  0.0000  0.0000
17232SL      O117297   8.423   1.478   1.425  0.0000  0.0000  0.0000
17232SL      H117298   8.423   1.478   1.523  0.0000  0.0000  0.0000
17233SL     Si117299   1.492   6.341   8.271  0.0000  0.0000  0.0000
17233SL      O117300   1.492   6.341   8.107  0.0000  0.0000  0.0000
17233SL      H117301   1.492   6.341   8.009  0.0000  0.0000  0.0000
17234SL     Si117302   6.692   7.483   1.434  0.0000  0.0000  0.0000
17234SL      O117303   6.692   7.483   1.598  0.0000  0.0000  0.0000
17234SL      H117304   6.692   7.483   1.696  0.0000  0.0000  0.0000
17235SL     Si117305   9.173   8.795   8.385  0.0000  0.0000  0.0000
17235SL      O117306   9.173   8.795   8.221  0.0000  0.0000  0.0000
17235SL      H117307   9.173   8.795   8.123  0.0000  0.0000  0.0000
17236SL     Si117308   0.763   8.666   1.401  0.0000  0.0000  0.0000
17236SL      O117309   0.763   8.666   1.565  0.0000  0.0000  0.0000
17236SL      H117310   0.763   8.666   1.663  0.0000  0.0000  0.0000
17237SL     Si117311   1.667   3.282   1.222  0.0000  0.0000  0.0000
17237SL      O117312   1.667   3.282   1.386  0.0000  0.0000  0.0000
17237SL      H117313   1.667   3.282   1.484  0.0000  0.0000  0.0000
17238SL     Si117314   6.526   8.647   1.170  0.0000  0.0000  0.0000
17238SL      O117315   6.526   8.647   1.334  0.0000  0.0000  0.0000
17238SL      H117316   6.526   8.647   1.432  0.0000  0.0000  0.0000
17239SL     Si117317   5.213   5.622   8.348  0.0000  0.0000  0.0000
17239SL      O117318   5.213   5.622   8.184  0.0000  0.0000  0.0000
17239SL      H117319   5.213   5.622   8.086  0.0000  0.0000  0.0000
17240SL     Si117320   6.166   6.551   8.195  0.0000  0.0000  0.0000
17240SL      O117321   6.166   6.551   8.031  0.0000  0.0000  0.0000
17240SL      H117322   6.166   6.551   7.933  0.0000  0.0000  0.0000
17241SL     Si117323   7.011   1.647   8.198  0.0000  0.0000  0.0000
17241SL      O117324   7.011   1.647   8.034  0.0000  0.0000  0.0000
17241SL      H117325   7.011   1.647   7.936  0.0000  0.0000  0.0000
17242SL     Si117326   1.070   5.356   1.179  0.0000  0.0000  0.0000
17242SL      O117327   1.070   5.356   1.343  0.0000  0.0000  0.0000
17242SL      H117328   1.070   5.356   1.441  0.0000  0.0000  0.0000
17243SL     Si117329   1.904   0.005   8.271  0.0000  0.0000  0.0000
17243SL      O117330   1.904   0.005   8.107  0.0000  0.0000  0.0000
17243SL      H117331   1.904   0.005   8.009  0.0000  0.0000  0.0000
17244SL     Si117332   0.090   3.757   8.161  0.0000  0.0000  0.0000
17244SL      O117333   0.090   3.757   7.997  0.0000  0.0000  0.0000
17244SL      H117334   0.090   3.757   7.899  0.0000  0.0000  0.0000
17245SL     Si117335   4.677   8.187   1.407  0.0000  0.0000  0.0000
17245SL      O117336   4.677   8.187   1.571  0.0000  0.0000  0.0000
17245SL      H117337   4.677   8.187   1.669  0.0000  0.0000  0.0000
17246SL     Si117338   2.971   5.594   1.391  0.0000  0.0000  0.0000
17246SL      O117339   2.971   5.594   1.555  0.0000  0.0000  0.0000
17246SL      H117340   2.971   5.594   1.653  0.0000  0.0000  0.0000
17247SL     Si117341   4.962   1.124   8.481  0.0000  0.0000  0.0000
17247SL      O117342   4.962   1.124   8.317  0.0000  0.0000  0.0000
17247SL      H117343   4.962   1.124   8.219  0.0000  0.0000  0.0000
17248SL     Si117344   0.223   6.976   8.200  0.0000  0.0000  0.0000
17248SL      O117345   0.223   6.976   8.036  0.0000  0.0000  0.0000
17248SL      H117346   0.223   6.976   7.938  0.0000  0.0000  0.0000
17249SL     Si117347   8.747   3.665   1.460  0.0000  0.0000  0.0000
17249SL      O117348   8.747   3.665   1.624  0.0000  0.0000  0.0000
17249SL      H117349   8.747   3.665   1.722  0.0000  0.0000  0.0000
17250SL     Si117350   0.239   1.404   8.284  0.0000  0.0000  0.0000
17250SL      O117351   0.239   1.404   8.120  0.0000  0.0000  0.0000
17250SL      H117352   0.239   1.404   8.022  0.0000  0.0000  0.0000
17251SL     Si117353   0.946   2.594   8.283  0.0000  0.0000  0.0000
17251SL      O117354   0.946   2.594   8.119  0.0000  0.0000  0.0000
17251SL      H117355   0.946   2.594   8.021  0.0000  0.0000  0.0000
17252SL     Si117356   4.668   2.544   1.244  0.0000  0.0000  0.0000
17252SL      O117357   4.668   2.544   1.408  0.0000  0.0000  0.0000
17252SL      H117358   4.668   2.544   1.506  0.0000  0.0000  0.0000
17253SL     Si117359   3.834   2.901   1.366  0.0000  0.0000  0.0000
17253SL      O117360   3.834   2.901   1.530  0.0000  0.0000  0.0000
17253SL      H117361   3.834   2.901   1.628  0.0000  0.0000  0.0000
17254SL     Si117362   7.569   9.121   1.413  0.0000  0.0000  0.0000
17254SL      O117363   7.569   9.121   1.577  0.0000  0.0000  0.0000
17254SL      H117364   7.569   9.121   1.675  0.0000  0.0000  0.0000
17255SL     Si117365   2.014   8.158   1.247  0.0000  0.0000  0.0000
17255SL      O117366   2.014   8.158   1.411  0.0000  0.0000  0.0000
17255SL      H117367   2.014   8.158   1.509  0.0000  0.0000  0.0000
17256SL     Si117368   7.617   4.768   1.235  0.0000  0.0000  0.0000
17256SL      O117369   7.617   4.768   1.399  0.0000  0.0000  0.0000
17256SL      H117370   7.617   4.768   1.497  0.0000  0.0000  0.0000
17257SL     Si117371   3.149   9.103   1.377  0.0000  0.0000  0.0000
17257SL      O117372   3.149   9.103   1.541  0.0000  0.0000  0.0000
17257SL      H117373   3.149   9.103   1.639  0.0000  0.0000  0.0000
17258SL     Si117374   1.403   9.220   8.243  0.0000  0.0000  0.0000
17258SL      O117375   1.403   9.220   8.079  0.0000  0.0000  0.0000
17258SL      H117376   1.403   9.220   7.981  0.0000  0.0000  0.0000
17259SL     Si117377   7.723   2.047   8.252  0.0000  0.0000  0.0000
17259SL      O117378   7.723   2.047   8.088  0.0000  0.0000  0.0000
17259SL      H117379   7.723   2.047   7.990  0.0000  0.0000  0.0000
17260SL     Si117380   2.022   4.667   8.191  0.0000  0.0000  0.0000
17260SL      O117381   2.022   4.667   8.027  0.0000  0.0000  0.0000
17260SL      H117382   2.022   4.667   7.929  0.0000  0.0000  0.0000
17261SL     Si117383   2.168   5.346   8.339  0.0000  0.0000  0.0000
17261SL      O117384   2.168   5.346   8.175  0.0000  0.0000  0.0000
17261SL      H117385   2.168   5.346   8.077  0.0000  0.0000  0.0000
17262SL     Si117386   0.865   6.690   1.363  0.0000  0.0000  0.0000
17262SL      O117387   0.865   6.690   1.527  0.0000  0.0000  0.0000
17262SL      H117388   0.865   6.690   1.625  0.0000  0.0000  0.0000
17263SL     Si117389   0.427   0.312   8.215  0.0000  0.0000  0.0000
17263SL      O117390   0.427   0.312   8.051  0.0000  0.0000  0.0000
17263SL      H117391   0.427   0.312   7.953  0.0000  0.0000  0.0000
17264SL     Si117392   2.388   7.067   1.407  0.0000  0.0000  0.0000
17264SL      O117393   2.388   7.067   1.571  0.0000  0.0000  0.0000
17264SL      H117394   2.388   7.067   1.669  0.0000  0.0000  0.0000
17265SL     Si117395   6.824   9.508   8.239  0.0000  0.0000  0.0000
17265SL      O117396   6.824   9.508   8.075  0.0000  0.0000  0.0000
17265SL      H117397   6.824   9.508   7.977  0.0000  0.0000  0.0000
17266SL     Si117398   3.491   8.232   1.344  0.0000  0.0000  0.0000
17266SL      O117399   3.491   8.232   1.508  0.0000  0.0000  0.0000
17266SL      H117400   3.491   8.232   1.606  0.0000  0.0000  0.0000
17267SL     Si117401   6.869   0.972   1.410  0.0000  0.0000  0.0000
17267SL      O117402   6.869   0.972   1.574  0.0000  0.0000  0.0000
17267SL      H117403   6.869   0.972   1.672  0.0000  0.0000  0.0000
17268SL     Si117404   8.285   4.718   1.422  0.0000  0.0000  0.0000
17268SL      O117405   8.285   4.718   1.586  0.0000  0.0000  0.0000
17268SL      H117406   8.285   4.718   1.684  0.0000  0.0000  0.0000
17269SL     Si117407   1.114   1.861   8.255  0.0000  0.0000  0.0000
17269SL      O117408   1.114   1.861   8.091  0.0000  0.0000  0.0000
17269SL      H117409   1.114   1.861   7.993  0.0000  0.0000  0.0000
17270SL     Si117410   0.433   3.651   8.366  0.0000  0.0000  0.0000
17270SL      O117411   0.433   3.651   8.202  0.0000  0.0000  0.0000
17270SL      H117412   0.433   3.651   8.104  0.0000  0.0000  0.0000
17271SL     Si117413   5.399   2.531   1.393  0.0000  0.0000  0.0000
17271SL      O117414   5.399   2.531   1.557  0.0000  0.0000  0.0000
17271SL      H117415   5.399   2.531   1.655  0.0000  0.0000  0.0000
17272SL     Si117416   5.644   1.498   8.251  0.0000  0.0000  0.0000
17272SL      O117417   5.644   1.498   8.087  0.0000  0.0000  0.0000
17272SL      H117418   5.644   1.498   7.989  0.0000  0.0000  0.0000
17273SL     Si117419   2.845   8.088   8.370  0.0000  0.0000  0.0000
17273SL      O117420   2.845   8.088   8.206  0.0000  0.0000  0.0000
17273SL      H117421   2.845   8.088   8.108  0.0000  0.0000  0.0000
17274SL     Si117422   6.792   3.073   8.320  0.0000  0.0000  0.0000
17274SL      O117423   6.792   3.073   8.156  0.0000  0.0000  0.0000
17274SL      H117424   6.792   3.073   8.058  0.0000  0.0000  0.0000
17275SL     Si117425   2.146   6.828   8.272  0.0000  0.0000  0.0000
17275SL      O117426   2.146   6.828   8.108  0.0000  0.0000  0.0000
17275SL      H117427   2.146   6.828   8.010  0.0000  0.0000  0.0000
17276SL     Si117428   7.502   0.449   1.458  0.0000  0.0000  0.0000
17276SL      O117429   7.502   0.449   1.622  0.0000  0.0000  0.0000
17276SL      H117430   7.502   0.449   1.720  0.0000  0.0000  0.0000
17277SL     Si117431   5.219   4.015   8.322  0.0000  0.0000  0.0000
17277SL      O117432   5.219   4.015   8.158  0.0000  0.0000  0.0000
17277SL      H117433   5.219   4.015   8.060  0.0000  0.0000  0.0000
17278SL     Si117434   3.220   4.463   1.292  0.0000  0.0000  0.0000
17278SL      O117435   3.220   4.463   1.456  0.0000  0.0000  0.0000
17278SL      H117436   3.220   4.463   1.554  0.0000  0.0000  0.0000
17279SL     Si117437   8.964   0.659   1.211  0.0000  0.0000  0.0000
17279SL      O117438   8.964   0.659   1.375  0.0000  0.0000  0.0000
17279SL      H117439   8.964   0.659   1.473  0.0000  0.0000  0.0000
17280SL     Si117440   3.854   6.256   8.303  0.0000  0.0000  0.0000
17280SL      O117441   3.854   6.256   8.139  0.0000  0.0000  0.0000
17280SL      H117442   3.854   6.256   8.041  0.0000  0.0000  0.0000
17281SL     Si117443   8.796   6.318   1.387  0.0000  0.0000  0.0000
17281SL      O117444   8.796   6.318   1.551  0.0000  0.0000  0.0000
17281SL      H117445   8.796   6.318   1.649  0.0000  0.0000  0.0000
17282SL     Si117446   6.155   0.980   1.314  0.0000  0.0000  0.0000
17282SL      O117447   6.155   0.980   1.478  0.0000  0.0000  0.0000
17282SL      H117448   6.155   0.980   1.576  0.0000  0.0000  0.0000
17283SL     Si117449   6.957   4.372   1.191  0.0000  0.0000  0.0000
17283SL      O117450   6.957   4.372   1.355  0.0000  0.0000  0.0000
17283SL      H117451   6.957   4.372   1.453  0.0000  0.0000  0.0000
17284SL     Si117452   9.308   9.267   8.361  0.0000  0.0000  0.0000
17284SL      O117453   9.308   9.267   8.197  0.0000  0.0000  0.0000
17284SL      H117454   9.308   9.267   8.099  0.0000  0.0000  0.0000
17285SL     Si117455   8.663   6.942   8.241  0.0000  0.0000  0.0000
17285SL      O117456   8.663   6.942   8.077  0.0000  0.0000  0.0000
17285SL      H117457   8.663   6.942   7.979  0.0000  0.0000  0.0000
17286SL     Si117458   1.586   0.363   1.322  0.0000  0.0000  0.0000
17286SL      O117459   1.586   0.363   1.486  0.0000  0.0000  0.0000
17286SL      H117460   1.586   0.363   1.584  0.0000  0.0000  0.0000
17287SL     Si117461   0.727   8.539   8.221  0.0000  0.0000  0.0000
17287SL      O117462   0.727   8.539   8.057  0.0000  0.0000  0.0000
17287SL      H117463   0.727   8.539   7.959  0.0000  0.0000  0.0000
17288SL     Si117464   0.251   5.746   1.312  0.0000  0.0000  0.0000
17288SL      O117465   0.251   5.746   1.476  0.0000  0.0000  0.0000
17288SL      H117466   0.251   5.746   1.574  0.0000  0.0000  0.0000
17289SL     Si117467   4.890   5.044   1.074  0.0000  0.0000  0.0000
17289SL      O117468   4.890   5.044   1.238  0.0000  0.0000  0.0000
17289SL      H117469   4.890   5.044   1.336  0.0000  0.0000  0.0000
17290SL     Si117470   2.490   3.464   1.381  0.0000  0.0000  0.0000
17290SL      O117471   2.490   3.464   1.545  0.0000  0.0000  0.0000
17290SL      H117472   2.490   3.464   1.643  0.0000  0.0000  0.0000
17291SL     Si117473   7.635   3.765   1.414  0.0000  0.0000  0.0000
17291SL      O117474   7.635   3.765   1.578  0.0000  0.0000  0.0000
17291SL      H117475   7.635   3.765   1.676  0.0000  0.0000  0.0000
17292SL     Si117476   6.530   7.740   1.360  0.0000  0.0000  0.0000
17292SL      O117477   6.530   7.740   1.524  0.0000  0.0000  0.0000
17292SL      H117478   6.530   7.740   1.622  0.0000  0.0000  0.0000
17293SL     Si117479   6.921   9.254   1.339  0.0000  0.0000  0.0000
17293SL      O117480   6.921   9.254   1.503  0.0000  0.0000  0.0000
17293SL      H117481   6.921   9.254   1.601  0.0000  0.0000  0.0000
17294SL     Si117482   0.326   3.056   8.357  0.0000  0.0000  0.0000
17294SL      O117483   0.326   3.056   8.193  0.0000  0.0000  0.0000
17294SL      H117484   0.326   3.056   8.095  0.0000  0.0000  0.0000
17295SL     Si117485   0.112   2.557   8.280  0.0000  0.0000  0.0000
17295SL      O117486   0.112   2.557   8.116  0.0000  0.0000  0.0000
17295SL      H117487   0.112   2.557   8.018  0.0000  0.0000  0.0000
17296SL     Si117488   7.095   4.155   1.358  0.0000  0.0000  0.0000
17296SL      O117489   7.095   4.155   1.522  0.0000  0.0000  0.0000
17296SL      H117490   7.095   4.155   1.620  0.0000  0.0000  0.0000
17297SL     Si117491   0.192   3.500   8.281  0.0000  0.0000  0.0000
17297SL      O117492   0.192   3.500   8.117  0.0000  0.0000  0.0000
17297SL      H117493   0.192   3.500   8.019  0.0000  0.0000  0.0000
17298SL     Si117494   7.594   8.553   8.206  0.0000  0.0000  0.0000
17298SL      O117495   7.594   8.553   8.042  0.0000  0.0000  0.0000
17298SL      H117496   7.594   8.553   7.944  0.0000  0.0000  0.0000
17299SL     Si117497   1.906   5.453   8.254  0.0000  0.0000  0.0000
17299SL      O117498   1.906   5.453   8.090  0.0000  0.0000  0.0000
17299SL      H117499   1.906   5.453   7.992  0.0000  0.0000  0.0000
17300SL     Si117500   4.330   5.386   8.242  0.0000  0.0000  0.0000
17300SL      O117501   4.330   5.386   8.078  0.0000  0.0000  0.0000
17300SL      H117502   4.330   5.386   7.980  0.0000  0.0000  0.0000
17301SL     Si117503   1.355   8.319   1.229  0.0000  0.0000  0.0000
17301SL      O117504   1.355   8.319   1.393  0.0000  0.0000  0.0000
17301SL      H117505   1.355   8.319   1.491  0.0000  0.0000  0.0000
17302SL     Si117506   6.208   0.329   1.144  0.0000  0.0000  0.0000
17302SL      O117507   6.208   0.329   1.308  0.0000  0.0000  0.0000
17302SL      H117508   6.208   0.329   1.406  0.0000  0.0000  0.0000
17303SL     Si117509   7.470   8.721   1.156  0.0000  0.0000  0.0000
17303SL      O117510   7.470   8.721   1.320  0.0000  0.0000  0.0000
17303SL      H117511   7.470   8.721   1.418  0.0000  0.0000  0.0000
17304SL     Si117512   0.954   6.739   8.181  0.0000  0.0000  0.0000
17304SL      O117513   0.954   6.739   8.017  0.0000  0.0000  0.0000
17304SL      H117514   0.954   6.739   7.919  0.0000  0.0000  0.0000
17305SL     Si117515   1.144   6.129   8.356  0.0000  0.0000  0.0000
17305SL      O117516   1.144   6.129   8.192  0.0000  0.0000  0.0000
17305SL      H117517   1.144   6.129   8.094  0.0000  0.0000  0.0000
17306SL     Si117518   6.057   0.057   1.124  0.0000  0.0000  0.0000
17306SL      O117519   6.057   0.057   1.288  0.0000  0.0000  0.0000
17306SL      H117520   6.057   0.057   1.386  0.0000  0.0000  0.0000
17307SL     Si117521   4.537   1.605   8.324  0.0000  0.0000  0.0000
17307SL      O117522   4.537   1.605   8.160  0.0000  0.0000  0.0000
17307SL      H117523   4.537   1.605   8.062  0.0000  0.0000  0.0000
17308SL     Si117524   7.742   5.745   8.365  0.0000  0.0000  0.0000
17308SL      O117525   7.742   5.745   8.201  0.0000  0.0000  0.0000
17308SL      H117526   7.742   5.745   8.103  0.0000  0.0000  0.0000
17309SL     Si117527   5.622   8.914   8.424  0.0000  0.0000  0.0000
17309SL      O117528   5.622   8.914   8.260  0.0000  0.0000  0.0000
17309SL      H117529   5.622   8.914   8.162  0.0000  0.0000  0.0000
17310SL     Si117530   0.393   1.148   8.335  0.0000  0.0000  0.0000
17310SL      O117531   0.393   1.148   8.171  0.0000  0.0000  0.0000
17310SL      H117532   0.393   1.148   8.073  0.0000  0.0000  0.0000
17311SL     Si117533   2.729   8.499   1.374  0.0000  0.0000  0.0000
17311SL      O117534   2.729   8.499   1.538  0.0000  0.0000  0.0000
17311SL      H117535   2.729   8.499   1.636  0.0000  0.0000  0.0000
17312SL     Si117536   3.629   5.181   8.372  0.0000  0.0000  0.0000
17312SL      O117537   3.629   5.181   8.208  0.0000  0.0000  0.0000
17312SL      H117538   3.629   5.181   8.110  0.0000  0.0000  0.0000
17313SL     Si117539   1.308   5.115   8.437  0.0000  0.0000  0.0000
17313SL      O117540   1.308   5.115   8.273  0.0000  0.0000  0.0000
17313SL      H117541   1.308   5.115   8.175  0.0000  0.0000  0.0000
17314SL     Si117542   5.588   8.273   1.324  0.0000  0.0000  0.0000
17314SL      O117543   5.588   8.273   1.488  0.0000  0.0000  0.0000
17314SL      H117544   5.588   8.273   1.586  0.0000  0.0000  0.0000
17315SL     Si117545   7.310   7.021   8.273  0.0000  0.0000  0.0000
17315SL      O117546   7.310   7.021   8.109  0.0000  0.0000  0.0000
17315SL      H117547   7.310   7.021   8.011  0.0000  0.0000  0.0000
17316SL     Si117548   9.512   4.570   1.305  0.0000  0.0000  0.0000
17316SL      O117549   9.512   4.570   1.469  0.0000  0.0000  0.0000
17316SL      H117550   9.512   4.570   1.567  0.0000  0.0000  0.0000
17317SL     Si117551   4.451   7.006   8.370  0.0000  0.0000  0.0000
17317SL      O117552   4.451   7.006   8.206  0.0000  0.0000  0.0000
17317SL      H117553   4.451   7.006   8.108  0.0000  0.0000  0.0000
17318SL     Si117554   1.089   0.289   1.222  0.0000  0.0000  0.0000
17318SL      O117555   1.089   0.289   1.386  0.0000  0.0000  0.0000
17318SL      H117556   1.089   0.289   1.484  0.0000  0.0000  0.0000
17319SL     Si117557   6.301   2.157   1.326  0.0000  0.0000  0.0000
17319SL      O117558   6.301   2.157   1.490  0.0000  0.0000  0.0000
17319SL      H117559   6.301   2.157   1.588  0.0000  0.0000  0.0000
17320SL     Si117560   8.968   5.872   8.390  0.0000  0.0000  0.0000
17320SL      O117561   8.968   5.872   8.226  0.0000  0.0000  0.0000
17320SL      H117562   8.968   5.872   8.128  0.0000  0.0000  0.0000
17321SL     Si117563   8.925   0.506   8.358  0.0000  0.0000  0.0000
17321SL      O117564   8.925   0.506   8.194  0.0000  0.0000  0.0000
17321SL      H117565   8.925   0.506   8.096  0.0000  0.0000  0.0000
17322SL     Si117566   2.126   7.929   1.408  0.0000  0.0000  0.0000
17322SL      O117567   2.126   7.929   1.572  0.0000  0.0000  0.0000
17322SL      H117568   2.126   7.929   1.670  0.0000  0.0000  0.0000
17323SL     Si117569   7.883   1.566   8.217  0.0000  0.0000  0.0000
17323SL      O117570   7.883   1.566   8.053  0.0000  0.0000  0.0000
17323SL      H117571   7.883   1.566   7.955  0.0000  0.0000  0.0000
17324SL     Si117572   4.816   3.177   8.262  0.0000  0.0000  0.0000
17324SL      O117573   4.816   3.177   8.098  0.0000  0.0000  0.0000
17324SL      H117574   4.816   3.177   8.000  0.0000  0.0000  0.0000
17325SL     Si117575   4.013   7.781   1.431  0.0000  0.0000  0.0000
17325SL      O117576   4.013   7.781   1.595  0.0000  0.0000  0.0000
17325SL      H117577   4.013   7.781   1.693  0.0000  0.0000  0.0000
17326SL     Si117578   6.695   8.246   8.288  0.0000  0.0000  0.0000
17326SL      O117579   6.695   8.246   8.124  0.0000  0.0000  0.0000
17326SL      H117580   6.695   8.246   8.026  0.0000  0.0000  0.0000
17327SL     Si117581   2.802   0.979   8.257  0.0000  0.0000  0.0000
17327SL      O117582   2.802   0.979   8.093  0.0000  0.0000  0.0000
17327SL      H117583   2.802   0.979   7.995  0.0000  0.0000  0.0000
17328SL     Si117584   6.461   8.680   8.285  0.0000  0.0000  0.0000
17328SL      O117585   6.461   8.680   8.121  0.0000  0.0000  0.0000
17328SL      H117586   6.461   8.680   8.023  0.0000  0.0000  0.0000
17329SL     Si117587   0.737   7.669   8.259  0.0000  0.0000  0.0000
17329SL      O117588   0.737   7.669   8.095  0.0000  0.0000  0.0000
17329SL      H117589   0.737   7.669   7.997  0.0000  0.0000  0.0000
17330SL     Si117590   1.726   7.734   8.338  0.0000  0.0000  0.0000
17330SL      O117591   1.726   7.734   8.174  0.0000  0.0000  0.0000
17330SL      H117592   1.726   7.734   8.076  0.0000  0.0000  0.0000
17331SL     Si117593   7.195   0.018   8.364  0.0000  0.0000  0.0000
17331SL      O117594   7.195   0.018   8.200  0.0000  0.0000  0.0000
17331SL      H117595   7.195   0.018   8.102  0.0000  0.0000  0.0000
17332SL     Si117596   8.483   9.068   1.383  0.0000  0.0000  0.0000
17332SL      O117597   8.483   9.068   1.547  0.0000  0.0000  0.0000
17332SL      H117598   8.483   9.068   1.645  0.0000  0.0000  0.0000
17333SL     Si117599   1.378   4.412   1.400  0.0000  0.0000  0.0000
17333SL      O117600   1.378   4.412   1.564  0.0000  0.0000  0.0000
17333SL      H117601   1.378   4.412   1.662  0.0000  0.0000  0.0000
17334SL     Si117602   3.256   7.023   1.322  0.0000  0.0000  0.0000
17334SL      O117603   3.256   7.023   1.486  0.0000  0.0000  0.0000
17334SL      H117604   3.256   7.023   1.584  0.0000  0.0000  0.0000
17335SL     Si117605   2.931   6.318   8.304  0.0000  0.0000  0.0000
17335SL      O117606   2.931   6.318   8.140  0.0000  0.0000  0.0000
17335SL      H117607   2.931   6.318   8.042  0.0000  0.0000  0.0000
17336SL     Si117608   7.647   6.414   1.297  0.0000  0.0000  0.0000
17336SL      O117609   7.647   6.414   1.461  0.0000  0.0000  0.0000
17336SL      H117610   7.647   6.414   1.559  0.0000  0.0000  0.0000
17337SL     Si117611   8.713   0.093   1.275  0.0000  0.0000  0.0000
17337SL      O117612   8.713   0.093   1.439  0.0000  0.0000  0.0000
17337SL      H117613   8.713   0.093   1.537  0.0000  0.0000  0.0000
17338SL     Si117614   5.948   4.677   1.318  0.0000  0.0000  0.0000
17338SL      O117615   5.948   4.677   1.482  0.0000  0.0000  0.0000
17338SL      H117616   5.948   4.677   1.580  0.0000  0.0000  0.0000
17339SL     Si117617   4.718   2.503   8.244  0.0000  0.0000  0.0000
17339SL      O117618   4.718   2.503   8.080  0.0000  0.0000  0.0000
17339SL      H117619   4.718   2.503   7.982  0.0000  0.0000  0.0000
17340SL     Si117620   8.774   3.302   1.237  0.0000  0.0000  0.0000
17340SL      O117621   8.774   3.302   1.401  0.0000  0.0000  0.0000
17340SL      H117622   8.774   3.302   1.499  0.0000  0.0000  0.0000
17341SL     Si117623   2.482   2.198   1.413  0.0000  0.0000  0.0000
17341SL      O117624   2.482   2.198   1.577  0.0000  0.0000  0.0000
17341SL      H117625   2.482   2.198   1.675  0.0000  0.0000  0.0000
17342SL     Si117626   4.705   9.407   8.202  0.0000  0.0000  0.0000
17342SL      O117627   4.705   9.407   8.038  0.0000  0.0000  0.0000
17342SL      H117628   4.705   9.407   7.940  0.0000  0.0000  0.0000
17343SL     Si117629   3.943   6.332   1.264  0.0000  0.0000  0.0000
17343SL      O117630   3.943   6.332   1.428  0.0000  0.0000  0.0000
17343SL      H117631   3.943   6.332   1.526  0.0000  0.0000  0.0000
17344SL     Si117632   6.185   6.090   8.329  0.0000  0.0000  0.0000
17344SL      O117633   6.185   6.090   8.165  0.0000  0.0000  0.0000
17344SL      H117634   6.185   6.090   8.067  0.0000  0.0000  0.0000
17345SL     Si117635   5.874   5.510   8.355  0.0000  0.0000  0.0000
17345SL      O117636   5.874   5.510   8.191  0.0000  0.0000  0.0000
17345SL      H117637   5.874   5.510   8.093  0.0000  0.0000  0.0000
17346SL     Si117638   8.373   9.337   1.377  0.0000  0.0000  0.0000
17346SL      O117639   8.373   9.337   1.541  0.0000  0.0000  0.0000
17346SL      H117640   8.373   9.337   1.639  0.0000  0.0000  0.0000
17347SL     Si117641   3.387   0.389   1.357  0.0000  0.0000  0.0000
17347SL      O117642   3.387   0.389   1.521  0.0000  0.0000  0.0000
17347SL      H117643   3.387   0.389   1.619  0.0000  0.0000  0.0000
17348SL     Si117644   3.632   7.553   8.382  0.0000  0.0000  0.0000
17348SL      O117645   3.632   7.553   8.218  0.0000  0.0000  0.0000
17348SL      H117646   3.632   7.553   8.120  0.0000  0.0000  0.0000
17349SL     Si117647   9.121   7.007   1.236  0.0000  0.0000  0.0000
17349SL      O117648   9.121   7.007   1.400  0.0000  0.0000  0.0000
17349SL      H117649   9.121   7.007   1.498  0.0000  0.0000  0.0000
17350SL     Si117650   7.738   0.888   8.304  0.0000  0.0000  0.0000
17350SL      O117651   7.738   0.888   8.140  0.0000  0.0000  0.0000
17350SL      H117652   7.738   0.888   8.042  0.0000  0.0000  0.0000
17351SL     Si117653   9.418   3.266   8.261  0.0000  0.0000  0.0000
17351SL      O117654   9.418   3.266   8.097  0.0000  0.0000  0.0000
17351SL      H117655   9.418   3.266   7.999  0.0000  0.0000  0.0000
17352SL     Si117656   5.883   7.872   1.398  0.0000  0.0000  0.0000
17352SL      O117657   5.883   7.872   1.562  0.0000  0.0000  0.0000
17352SL      H117658   5.883   7.872   1.660  0.0000  0.0000  0.0000
17353SL     Si117659   0.842   4.267   8.185  0.0000  0.0000  0.0000
17353SL      O117660   0.842   4.267   8.021  0.0000  0.0000  0.0000
17353SL      H117661   0.842   4.267   7.923  0.0000  0.0000  0.0000
17354SL     Si117662   6.321   5.272   8.234  0.0000  0.0000  0.0000
17354SL      O117663   6.321   5.272   8.070  0.0000  0.0000  0.0000
17354SL      H117664   6.321   5.272   7.972  0.0000  0.0000  0.0000
17355SL     Si117665   9.321   1.165   8.188  0.0000  0.0000  0.0000
17355SL      O117666   9.321   1.165   8.024  0.0000  0.0000  0.0000
17355SL      H117667   9.321   1.165   7.926  0.0000  0.0000  0.0000
17356SL     Si117668   2.277   3.125   8.249  0.0000  0.0000  0.0000
17356SL      O117669   2.277   3.125   8.085  0.0000  0.0000  0.0000
17356SL      H117670   2.277   3.125   7.987  0.0000  0.0000  0.0000
17357SL     Si117671   4.398   8.508   1.285  0.0000  0.0000  0.0000
17357SL      O117672   4.398   8.508   1.449  0.0000  0.0000  0.0000
17357SL      H117673   4.398   8.508   1.547  0.0000  0.0000  0.0000
17358SL     Si117674   1.714   8.061   1.205  0.0000  0.0000  0.0000
17358SL      O117675   1.714   8.061   1.369  0.0000  0.0000  0.0000
17358SL      H117676   1.714   8.061   1.467  0.0000  0.0000  0.0000
17359SL     Si117677   0.977   8.132   8.254  0.0000  0.0000  0.0000
17359SL      O117678   0.977   8.132   8.090  0.0000  0.0000  0.0000
17359SL      H117679   0.977   8.132   7.992  0.0000  0.0000  0.0000
17360SL     Si117680   7.806   7.784   1.218  0.0000  0.0000  0.0000
17360SL      O117681   7.806   7.784   1.382  0.0000  0.0000  0.0000
17360SL      H117682   7.806   7.784   1.480  0.0000  0.0000  0.0000
17361SL     Si117683   4.421   1.549   1.293  0.0000  0.0000  0.0000
17361SL      O117684   4.421   1.549   1.457  0.0000  0.0000  0.0000
17361SL      H117685   4.421   1.549   1.555  0.0000  0.0000  0.0000
17362SL     Si117686   4.134   0.844   8.236  0.0000  0.0000  0.0000
17362SL      O117687   4.134   0.844   8.072  0.0000  0.0000  0.0000
17362SL      H117688   4.134   0.844   7.974  0.0000  0.0000  0.0000
17363SL     Si117689   6.495   0.267   8.351  0.0000  0.0000  0.0000
17363SL      O117690   6.495   0.267   8.187  0.0000  0.0000  0.0000
17363SL      H117691   6.495   0.267   8.089  0.0000  0.0000  0.0000
17364SL     Si117692   3.668   2.535   8.377  0.0000  0.0000  0.0000
17364SL      O117693   3.668   2.535   8.213  0.0000  0.0000  0.0000
17364SL      H117694   3.668   2.535   8.115  0.0000  0.0000  0.0000
17365SL     Si117695   3.321   1.981   1.409  0.0000  0.0000  0.0000
17365SL      O117696   3.321   1.981   1.573  0.0000  0.0000  0.0000
17365SL      H117697   3.321   1.981   1.671  0.0000  0.0000  0.0000
17366SL     Si117698   4.720   1.531   1.391  0.0000  0.0000  0.0000
17366SL      O117699   4.720   1.531   1.555  0.0000  0.0000  0.0000
17366SL      H117700   4.720   1.531   1.653  0.0000  0.0000  0.0000
17367SL     Si117701   1.880   5.750   8.289  0.0000  0.0000  0.0000
17367SL      O117702   1.880   5.750   8.125  0.0000  0.0000  0.0000
17367SL      H117703   1.880   5.750   8.027  0.0000  0.0000  0.0000
17368SL     Si117704   1.848   6.745   8.193  0.0000  0.0000  0.0000
17368SL      O117705   1.848   6.745   8.029  0.0000  0.0000  0.0000
17368SL      H117706   1.848   6.745   7.931  0.0000  0.0000  0.0000
17369SL     Si117707   1.796   0.779   8.281  0.0000  0.0000  0.0000
17369SL      O117708   1.796   0.779   8.117  0.0000  0.0000  0.0000
17369SL      H117709   1.796   0.779   8.019  0.0000  0.0000  0.0000
17370SL     Si117710   7.615   5.781   1.222  0.0000  0.0000  0.0000
17370SL      O117711   7.615   5.781   1.386  0.0000  0.0000  0.0000
17370SL      H117712   7.615   5.781   1.484  0.0000  0.0000  0.0000
17371SL     Si117713   3.067   4.715   1.361  0.0000  0.0000  0.0000
17371SL      O117714   3.067   4.715   1.525  0.0000  0.0000  0.0000
17371SL      H117715   3.067   4.715   1.623  0.0000  0.0000  0.0000
17372SL     Si117716   3.829   3.827   8.249  0.0000  0.0000  0.0000
17372SL      O117717   3.829   3.827   8.085  0.0000  0.0000  0.0000
17372SL      H117718   3.829   3.827   7.987  0.0000  0.0000  0.0000
17373SL     Si117719   7.957   0.262   8.257  0.0000  0.0000  0.0000
17373SL      O117720   7.957   0.262   8.093  0.0000  0.0000  0.0000
17373SL      H117721   7.957   0.262   7.995  0.0000  0.0000  0.0000
17374SL     Si117722   5.467   0.086   1.202  0.0000  0.0000  0.0000
17374SL      O117723   5.467   0.086   1.366  0.0000  0.0000  0.0000
17374SL      H117724   5.467   0.086   1.464  0.0000  0.0000  0.0000
17375SL     Si117725   0.707   9.521   1.169  0.0000  0.0000  0.0000
17375SL      O117726   0.707   9.521   1.333  0.0000  0.0000  0.0000
17375SL      H117727   0.707   9.521   1.431  0.0000  0.0000  0.0000
17376SL     Si117728   9.510   6.687   8.226  0.0000  0.0000  0.0000
17376SL      O117729   9.510   6.687   8.062  0.0000  0.0000  0.0000
17376SL      H117730   9.510   6.687   7.964  0.0000  0.0000  0.0000
17377SL     Si117731   0.321   7.455   1.278  0.0000  0.0000  0.0000
17377SL      O117732   0.321   7.455   1.442  0.0000  0.0000  0.0000
17377SL      H117733   0.321   7.455   1.540  0.0000  0.0000  0.0000
17378SL     Si117734   7.813   0.454   1.441  0.0000  0.0000  0.0000
17378SL      O117735   7.813   0.454   1.605  0.0000  0.0000  0.0000
17378SL      H117736   7.813   0.454   1.703  0.0000  0.0000  0.0000
17379SL     Si117737   3.755   9.460   8.320  0.0000  0.0000  0.0000
17379SL      O117738   3.755   9.460   8.156  0.0000  0.0000  0.0000
17379SL      H117739   3.755   9.460   8.058  0.0000  0.0000  0.0000
17380SL     Si117740   7.526   2.185   1.258  0.0000  0.0000  0.0000
17380SL      O117741   7.526   2.185   1.422  0.0000  0.0000  0.0000
17380SL      H117742   7.526   2.185   1.520  0.0000  0.0000  0.0000
17381SL     Si117743   7.632   1.083   1.173  0.0000  0.0000  0.0000
17381SL      O117744   7.632   1.083   1.337  0.0000  0.0000  0.0000
17381SL      H117745   7.632   1.083   1.435  0.0000  0.0000  0.0000
17382SL     Si117746   2.887   3.672   1.264  0.0000  0.0000  0.0000
17382SL      O117747   2.887   3.672   1.428  0.0000  0.0000  0.0000
17382SL      H117748   2.887   3.672   1.526  0.0000  0.0000  0.0000
17383SL     Si117749   2.735   0.148   1.324  0.0000  0.0000  0.0000
17383SL      O117750   2.735   0.148   1.488  0.0000  0.0000  0.0000
17383SL      H117751   2.735   0.148   1.586  0.0000  0.0000  0.0000
17384SL     Si117752   8.669   1.468   8.371  0.0000  0.0000  0.0000
17384SL      O117753   8.669   1.468   8.207  0.0000  0.0000  0.0000
17384SL      H117754   8.669   1.468   8.109  0.0000  0.0000  0.0000
17385SL     Si117755   7.149   8.425   1.311  0.0000  0.0000  0.0000
17385SL      O117756   7.149   8.425   1.475  0.0000  0.0000  0.0000
17385SL      H117757   7.149   8.425   1.573  0.0000  0.0000  0.0000
17386SL     Si117758   1.653   6.334   1.427  0.0000  0.0000  0.0000
17386SL      O117759   1.653   6.334   1.591  0.0000  0.0000  0.0000
17386SL      H117760   1.653   6.334   1.689  0.0000  0.0000  0.0000
17387SL     Si117761   3.890   4.785   8.413  0.0000  0.0000  0.0000
17387SL      O117762   3.890   4.785   8.249  0.0000  0.0000  0.0000
17387SL      H117763   3.890   4.785   8.151  0.0000  0.0000  0.0000
17388SL     Si117764   2.934   3.114   0.853  0.0000  0.0000  0.0000
17388SL      O117765   2.934   3.114   1.017  0.0000  0.0000  0.0000
17388SL      H117766   2.934   3.114   1.115  0.0000  0.0000  0.0000
17389SL     Si117767   7.575   3.219   1.287  0.0000  0.0000  0.0000
17389SL      O117768   7.575   3.219   1.451  0.0000  0.0000  0.0000
17389SL      H117769   7.575   3.219   1.549  0.0000  0.0000  0.0000
17390SL     Si117770   8.222   3.293   1.237  0.0000  0.0000  0.0000
17390SL      O117771   8.222   3.293   1.401  0.0000  0.0000  0.0000
17390SL      H117772   8.222   3.293   1.499  0.0000  0.0000  0.0000
17391SL     Si117773   7.918   4.475   8.209  0.0000  0.0000  0.0000
17391SL      O117774   7.918   4.475   8.045  0.0000  0.0000  0.0000
17391SL      H117775   7.918   4.475   7.947  0.0000  0.0000  0.0000
17392SL     Si117776   4.709   0.440   8.201  0.0000  0.0000  0.0000
17392SL      O117777   4.709   0.440   8.037  0.0000  0.0000  0.0000
17392SL      H117778   4.709   0.440   7.939  0.0000  0.0000  0.0000
17393SL     Si117779   7.234   5.086   1.203  0.0000  0.0000  0.0000
17393SL      O117780   7.234   5.086   1.367  0.0000  0.0000  0.0000
17393SL      H117781   7.234   5.086   1.465  0.0000  0.0000  0.0000
17394SL     Si117782   5.476   7.195   1.368  0.0000  0.0000  0.0000
17394SL      O117783   5.476   7.195   1.532  0.0000  0.0000  0.0000
17394SL      H117784   5.476   7.195   1.630  0.0000  0.0000  0.0000
17395SL     Si117785   0.039   4.305   8.373  0.0000  0.0000  0.0000
17395SL      O117786   0.039   4.305   8.209  0.0000  0.0000  0.0000
17395SL      H117787   0.039   4.305   8.111  0.0000  0.0000  0.0000
17396SL     Si117788   1.530   8.986   1.331  0.0000  0.0000  0.0000
17396SL      O117789   1.530   8.986   1.495  0.0000  0.0000  0.0000
17396SL      H117790   1.530   8.986   1.593  0.0000  0.0000  0.0000
17397SL     Si117791   8.343   0.805   1.293  0.0000  0.0000  0.0000
17397SL      O117792   8.343   0.805   1.457  0.0000  0.0000  0.0000
17397SL      H117793   8.343   0.805   1.555  0.0000  0.0000  0.0000
17398SL     Si117794   5.063   1.971   1.408  0.0000  0.0000  0.0000
17398SL      O117795   5.063   1.971   1.572  0.0000  0.0000  0.0000
17398SL      H117796   5.063   1.971   1.670  0.0000  0.0000  0.0000
17399SL     Si117797   9.506   2.090   1.387  0.0000  0.0000  0.0000
17399SL      O117798   9.506   2.090   1.551  0.0000  0.0000  0.0000
17399SL      H117799   9.506   2.090   1.649  0.0000  0.0000  0.0000
17400SL     Si117800   4.209   3.564   1.371  0.0000  0.0000  0.0000
17400SL      O117801   4.209   3.564   1.535  0.0000  0.0000  0.0000
17400SL      H117802   4.209   3.564   1.633  0.0000  0.0000  0.0000
17401SL     Si117803   5.174   9.281   1.321  0.0000  0.0000  0.0000
17401SL      O117804   5.174   9.281   1.485  0.0000  0.0000  0.0000
17401SL      H117805   5.174   9.281   1.583  0.0000  0.0000  0.0000
17402SL     Si117806   4.814   6.932   1.339  0.0000  0.0000  0.0000
17402SL      O117807   4.814   6.932   1.503  0.0000  0.0000  0.0000
17402SL      H117808   4.814   6.932   1.601  0.0000  0.0000  0.0000
17403SL     Si117809   7.231   1.376   8.151  0.0000  0.0000  0.0000
17403SL      O117810   7.231   1.376   7.987  0.0000  0.0000  0.0000
17403SL      H117811   7.231   1.376   7.889  0.0000  0.0000  0.0000
17404SL     Si117812   4.888   9.175   8.161  0.0000  0.0000  0.0000
17404SL      O117813   4.888   9.175   7.997  0.0000  0.0000  0.0000
17404SL      H117814   4.888   9.175   7.899  0.0000  0.0000  0.0000
17405SL     Si117815   8.301   6.487   8.378  0.0000  0.0000  0.0000
17405SL      O117816   8.301   6.487   8.214  0.0000  0.0000  0.0000
17405SL      H117817   8.301   6.487   8.116  0.0000  0.0000  0.0000
17406SL     Si117818   6.451   3.895   1.344  0.0000  0.0000  0.0000
17406SL      O117819   6.451   3.895   1.508  0.0000  0.0000  0.0000
17406SL      H117820   6.451   3.895   1.606  0.0000  0.0000  0.0000
17407SL     Si117821   5.355   1.982   1.298  0.0000  0.0000  0.0000
17407SL      O117822   5.355   1.982   1.462  0.0000  0.0000  0.0000
17407SL      H117823   5.355   1.982   1.560  0.0000  0.0000  0.0000
17408SL     Si117824   7.931   3.870   1.436  0.0000  0.0000  0.0000
17408SL      O117825   7.931   3.870   1.600  0.0000  0.0000  0.0000
17408SL      H117826   7.931   3.870   1.698  0.0000  0.0000  0.0000
17409SL     Si117827   8.069   3.216   8.288  0.0000  0.0000  0.0000
17409SL      O117828   8.069   3.216   8.124  0.0000  0.0000  0.0000
17409SL      H117829   8.069   3.216   8.026  0.0000  0.0000  0.0000
17410SL     Si117830   8.133   0.017   8.276  0.0000  0.0000  0.0000
17410SL      O117831   8.133   0.017   8.112  0.0000  0.0000  0.0000
17410SL      H117832   8.133   0.017   8.014  0.0000  0.0000  0.0000
17411SL     Si117833   3.078   2.992   1.160  0.0000  0.0000  0.0000
17411SL      O117834   3.078   2.992   1.324  0.0000  0.0000  0.0000
17411SL      H117835   3.078   2.992   1.422  0.0000  0.0000  0.0000
17412SL     Si117836   4.279   1.251   8.470  0.0000  0.0000  0.0000
17412SL      O117837   4.279   1.251   8.306  0.0000  0.0000  0.0000
17412SL      H117838   4.279   1.251   8.208  0.0000  0.0000  0.0000
17413SL     Si117839   0.384   8.855   1.349  0.0000  0.0000  0.0000
17413SL      O117840   0.384   8.855   1.513  0.0000  0.0000  0.0000
17413SL      H117841   0.384   8.855   1.611  0.0000  0.0000  0.0000
17414SL     Si117842   7.038   5.560   8.221  0.0000  0.0000  0.0000
17414SL      O117843   7.038   5.560   8.057  0.0000  0.0000  0.0000
17414SL      H117844   7.038   5.560   7.959  0.0000  0.0000  0.0000
17415SL     Si117845   9.192   6.095   8.365  0.0000  0.0000  0.0000
17415SL      O117846   9.192   6.095   8.201  0.0000  0.0000  0.0000
17415SL      H117847   9.192   6.095   8.103  0.0000  0.0000  0.0000
17416SL     Si117848   0.343   2.386   1.362  0.0000  0.0000  0.0000
17416SL      O117849   0.343   2.386   1.526  0.0000  0.0000  0.0000
17416SL      H117850   0.343   2.386   1.624  0.0000  0.0000  0.0000
17417SL     Si117851   1.397   0.167   8.295  0.0000  0.0000  0.0000
17417SL      O117852   1.397   0.167   8.131  0.0000  0.0000  0.0000
17417SL      H117853   1.397   0.167   8.033  0.0000  0.0000  0.0000
17418SL     Si117854   5.352   6.189   8.301  0.0000  0.0000  0.0000
17418SL      O117855   5.352   6.189   8.137  0.0000  0.0000  0.0000
17418SL      H117856   5.352   6.189   8.039  0.0000  0.0000  0.0000
17419SL     Si117857   0.200   3.898   1.330  0.0000  0.0000  0.0000
17419SL      O117858   0.200   3.898   1.494  0.0000  0.0000  0.0000
17419SL      H117859   0.200   3.898   1.592  0.0000  0.0000  0.0000
17420SL     Si117860   9.015   5.539   1.152  0.0000  0.0000  0.0000
17420SL      O117861   9.015   5.539   1.316  0.0000  0.0000  0.0000
17420SL      H117862   9.015   5.539   1.414  0.0000  0.0000  0.0000
17421SL     Si117863   2.732   8.198   1.267  0.0000  0.0000  0.0000
17421SL      O117864   2.732   8.198   1.431  0.0000  0.0000  0.0000
17421SL      H117865   2.732   8.198   1.529  0.0000  0.0000  0.0000
17422SL     Si117866   9.498   1.821   8.229  0.0000  0.0000  0.0000
17422SL      O117867   9.498   1.821   8.065  0.0000  0.0000  0.0000
17422SL      H117868   9.498   1.821   7.967  0.0000  0.0000  0.0000
17423SL     Si117869   3.597   9.325   1.158  0.0000  0.0000  0.0000
17423SL      O117870   3.597   9.325   1.322  0.0000  0.0000  0.0000
17423SL      H117871   3.597   9.325   1.420  0.0000  0.0000  0.0000
17424SL     Si117872   0.214   9.562   1.169  0.0000  0.0000  0.0000
17424SL      O117873   0.214   9.562   1.333  0.0000  0.0000  0.0000
17424SL      H117874   0.214   9.562   1.431  0.0000  0.0000  0.0000
17425SL     Si117875   0.924   4.061   8.389  0.0000  0.0000  0.0000
17425SL      O117876   0.924   4.061   8.225  0.0000  0.0000  0.0000
17425SL      H117877   0.924   4.061   8.127  0.0000  0.0000  0.0000
17426SL     Si117878   2.335   1.208   8.284  0.0000  0.0000  0.0000
17426SL      O117879   2.335   1.208   8.120  0.0000  0.0000  0.0000
17426SL      H117880   2.335   1.208   8.022  0.0000  0.0000  0.0000
17427SL     Si117881   9.048   8.220   1.342  0.0000  0.0000  0.0000
17427SL      O117882   9.048   8.220   1.506  0.0000  0.0000  0.0000
17427SL      H117883   9.048   8.220   1.604  0.0000  0.0000  0.0000
17428SL     Si117884   7.327   7.678   1.397  0.0000  0.0000  0.0000
17428SL      O117885   7.327   7.678   1.561  0.0000  0.0000  0.0000
17428SL      H117886   7.327   7.678   1.659  0.0000  0.0000  0.0000
17429SL     Si117887   1.335   0.778   1.383  0.0000  0.0000  0.0000
17429SL      O117888   1.335   0.778   1.547  0.0000  0.0000  0.0000
17429SL      H117889   1.335   0.778   1.645  0.0000  0.0000  0.0000
17430SL     Si117890   8.161   9.566   1.398  0.0000  0.0000  0.0000
17430SL      O117891   8.161   9.566   1.562  0.0000  0.0000  0.0000
17430SL      H117892   8.161   9.566   1.660  0.0000  0.0000  0.0000
17431SL     Si117893   9.293   9.230   1.342  0.0000  0.0000  0.0000
17431SL      O117894   9.293   9.230   1.506  0.0000  0.0000  0.0000
17431SL      H117895   9.293   9.230   1.604  0.0000  0.0000  0.0000
17432SL     Si117896   3.135   3.370   0.865  0.0000  0.0000  0.0000
17432SL      O117897   3.135   3.370   1.029  0.0000  0.0000  0.0000
17432SL      H117898   3.135   3.370   1.127  0.0000  0.0000  0.0000
17433SL     Si117899   4.367   9.393   1.397  0.0000  0.0000  0.0000
17433SL      O117900   4.367   9.393   1.561  0.0000  0.0000  0.0000
17433SL      H117901   4.367   9.393   1.659  0.0000  0.0000  0.0000
17434SL     Si117902   5.336   7.733   8.366  0.0000  0.0000  0.0000
17434SL      O117903   5.336   7.733   8.202  0.0000  0.0000  0.0000
17434SL      H117904   5.336   7.733   8.104  0.0000  0.0000  0.0000
17435SL     Si117905   2.543   9.564   8.257  0.0000  0.0000  0.0000
17435SL      O117906   2.543   9.564   8.093  0.0000  0.0000  0.0000
17435SL      H117907   2.543   9.564   7.995  0.0000  0.0000  0.0000
17436SL     Si117908   4.275   1.969   8.361  0.0000  0.0000  0.0000
17436SL      O117909   4.275   1.969   8.197  0.0000  0.0000  0.0000
17436SL      H117910   4.275   1.969   8.099  0.0000  0.0000  0.0000
17437SL     Si117911   3.124   3.879   8.408  0.0000  0.0000  0.0000
17437SL      O117912   3.124   3.879   8.244  0.0000  0.0000  0.0000
17437SL      H117913   3.124   3.879   8.146  0.0000  0.0000  0.0000
17438SL     Si117914   0.777   0.934   1.303  0.0000  0.0000  0.0000
17438SL      O117915   0.777   0.934   1.467  0.0000  0.0000  0.0000
17438SL      H117916   0.777   0.934   1.565  0.0000  0.0000  0.0000
17439SL     Si117917   4.511   7.317   8.313  0.0000  0.0000  0.0000
17439SL      O117918   4.511   7.317   8.149  0.0000  0.0000  0.0000
17439SL      H117919   4.511   7.317   8.051  0.0000  0.0000  0.0000
17440SL     Si117920   0.104   8.040   8.318  0.0000  0.0000  0.0000
17440SL      O117921   0.104   8.040   8.154  0.0000  0.0000  0.0000
17440SL      H117922   0.104   8.040   8.056  0.0000  0.0000  0.0000
17441SL     Si117923   3.282   2.586   1.335  0.0000  0.0000  0.0000
17441SL      O117924   3.282   2.586   1.499  0.0000  0.0000  0.0000
17441SL      H117925   3.282   2.586   1.597  0.0000  0.0000  0.0000
17442SL     Si117926   9.553   7.754   1.354  0.0000  0.0000  0.0000
17442SL      O117927   9.553   7.754   1.518  0.0000  0.0000  0.0000
17442SL      H117928   9.553   7.754   1.616  0.0000  0.0000  0.0000
17443SL     Si117929   1.842   1.853   8.287  0.0000  0.0000  0.0000
17443SL      O117930   1.842   1.853   8.123  0.0000  0.0000  0.0000
17443SL      H117931   1.842   1.853   8.025  0.0000  0.0000  0.0000
17444SL     Si117932   5.499   6.624   1.389  0.0000  0.0000  0.0000
17444SL      O117933   5.499   6.624   1.553  0.0000  0.0000  0.0000
17444SL      H117934   5.499   6.624   1.651  0.0000  0.0000  0.0000
17445SL     Si117935   8.257   7.162   1.071  0.0000  0.0000  0.0000
17445SL      O117936   8.257   7.162   1.235  0.0000  0.0000  0.0000
17445SL      H117937   8.257   7.162   1.333  0.0000  0.0000  0.0000
17446SL     Si117938   3.810   5.368   1.344  0.0000  0.0000  0.0000
17446SL      O117939   3.810   5.368   1.508  0.0000  0.0000  0.0000
17446SL      H117940   3.810   5.368   1.606  0.0000  0.0000  0.0000
17447SL     Si117941   5.597   1.106   1.400  0.0000  0.0000  0.0000
17447SL      O117942   5.597   1.106   1.564  0.0000  0.0000  0.0000
17447SL      H117943   5.597   1.106   1.662  0.0000  0.0000  0.0000
17448SL     Si117944   0.070   0.579   8.274  0.0000  0.0000  0.0000
17448SL      O117945   0.070   0.579   8.110  0.0000  0.0000  0.0000
17448SL      H117946   0.070   0.579   8.012  0.0000  0.0000  0.0000
17449SL     Si117947   7.156   3.846   8.273  0.0000  0.0000  0.0000
17449SL      O117948   7.156   3.846   8.109  0.0000  0.0000  0.0000
17449SL      H117949   7.156   3.846   8.011  0.0000  0.0000  0.0000
17450SL     Si117950   1.059   6.907   1.284  0.0000  0.0000  0.0000
17450SL      O117951   1.059   6.907   1.448  0.0000  0.0000  0.0000
17450SL      H117952   1.059   6.907   1.546  0.0000  0.0000  0.0000
17451SL     Si117953   1.424   4.728   1.380  0.0000  0.0000  0.0000
17451SL      O117954   1.424   4.728   1.544  0.0000  0.0000  0.0000
17451SL      H117955   1.424   4.728   1.642  0.0000  0.0000  0.0000
17452SL     Si117956   0.033   0.912   1.403  0.0000  0.0000  0.0000
17452SL      O117957   0.033   0.912   1.567  0.0000  0.0000  0.0000
17452SL      H117958   0.033   0.912   1.665  0.0000  0.0000  0.0000
17453SL     Si117959   7.635   7.001   1.228  0.0000  0.0000  0.0000
17453SL      O117960   7.635   7.001   1.392  0.0000  0.0000  0.0000
17453SL      H117961   7.635   7.001   1.490  0.0000  0.0000  0.0000
17454SL     Si117962   3.439   5.709   8.182  0.0000  0.0000  0.0000
17454SL      O117963   3.439   5.709   8.018  0.0000  0.0000  0.0000
17454SL      H117964   3.439   5.709   7.920  0.0000  0.0000  0.0000
17455SL     Si117965   6.640   9.385   1.262  0.0000  0.0000  0.0000
17455SL      O117966   6.640   9.385   1.426  0.0000  0.0000  0.0000
17455SL      H117967   6.640   9.385   1.524  0.0000  0.0000  0.0000
17456SL     Si117968   6.855   7.057   1.235  0.0000  0.0000  0.0000
17456SL      O117969   6.855   7.057   1.399  0.0000  0.0000  0.0000
17456SL      H117970   6.855   7.057   1.497  0.0000  0.0000  0.0000
17457SL     Si117971   9.531   3.515   1.224  0.0000  0.0000  0.0000
17457SL      O117972   9.531   3.515   1.388  0.0000  0.0000  0.0000
17457SL      H117973   9.531   3.515   1.486  0.0000  0.0000  0.0000
17458SL     Si117974   2.797   2.960   8.441  0.0000  0.0000  0.0000
17458SL      O117975   2.797   2.960   8.277  0.0000  0.0000  0.0000
17458SL      H117976   2.797   2.960   8.179  0.0000  0.0000  0.0000
17459SL     Si117977   5.205   0.948   8.399  0.0000  0.0000  0.0000
17459SL      O117978   5.205   0.948   8.235  0.0000  0.0000  0.0000
17459SL      H117979   5.205   0.948   8.137  0.0000  0.0000  0.0000
17460SL     Si117980   3.941   5.632   1.427  0.0000  0.0000  0.0000
17460SL      O117981   3.941   5.632   1.591  0.0000  0.0000  0.0000
17460SL      H117982   3.941   5.632   1.689  0.0000  0.0000  0.0000
17461SL     Si117983   1.056   3.683   1.205  0.0000  0.0000  0.0000
17461SL      O117984   1.056   3.683   1.369  0.0000  0.0000  0.0000
17461SL      H117985   1.056   3.683   1.467  0.0000  0.0000  0.0000
17462SL     Si117986   3.316   9.169   8.401  0.0000  0.0000  0.0000
17462SL      O117987   3.316   9.169   8.237  0.0000  0.0000  0.0000
17462SL      H117988   3.316   9.169   8.139  0.0000  0.0000  0.0000
17463SL     Si117989   9.322   5.991   1.126  0.0000  0.0000  0.0000
17463SL      O117990   9.322   5.991   1.290  0.0000  0.0000  0.0000
17463SL      H117991   9.322   5.991   1.388  0.0000  0.0000  0.0000
17464SL     Si117992   7.468   6.350   8.237  0.0000  0.0000  0.0000
17464SL      O117993   7.468   6.350   8.073  0.0000  0.0000  0.0000
17464SL      H117994   7.468   6.350   7.975  0.0000  0.0000  0.0000
17465SL     Si117995   1.314   2.878   1.286  0.0000  0.0000  0.0000
17465SL      O117996   1.314   2.878   1.450  0.0000  0.0000  0.0000
17465SL      H117997   1.314   2.878   1.548  0.0000  0.0000  0.0000
17466SL     Si117998   3.031   7.005   8.251  0.0000  0.0000  0.0000
17466SL      O117999   3.031   7.005   8.087  0.0000  0.0000  0.0000
17466SL      H118000   3.031   7.005   7.989  0.0000  0.0000  0.0000
17467SL     Si118001   5.689   3.394   1.366  0.0000  0.0000  0.0000
17467SL      O118002   5.689   3.394   1.530  0.0000  0.0000  0.0000
17467SL      H118003   5.689   3.394   1.628  0.0000  0.0000  0.0000
17468SLG    Si118004   1.892   7.029   1.439  0.0000  0.0000  0.0000
17468SLG     O118005   1.892   7.029   1.603  0.0000  0.0000  0.0000
17468SLG     H118006   1.892   7.029   1.701  0.0000  0.0000  0.0000
17468SLG     O218007   2.008   7.029   1.555  0.0000  0.0000  0.0000
17468SLG     H218008   2.008   7.029   1.653  0.0000  0.0000  0.0000
17469SLG    Si118009   9.403   7.585   8.296  0.0000  0.0000  0.0000
17469SLG     O118010   9.403   7.585   8.132  0.0000  0.0000  0.0000
17469SLG     H118011   9.403   7.585   8.034  0.0000  0.0000  0.0000
17469SLG     O218012   9.519   7.585   8.180  0.0000  0.0000  0.0000
17469SLG     H218013   9.519   7.585   8.082  0.0000  0.0000  0.0000
17470SLG    Si118014   3.083   7.658   1.256  0.0000  0.0000  0.0000
17470SLG     O118015   3.083   7.658   1.420  0.0000  0.0000  0.0000
17470SLG     H118016   3.083   7.658   1.518  0.0000  0.0000  0.0000
17470SLG     O218017   3.199   7.658   1.372  0.0000  0.0000  0.0000
17470SLG     H218018   3.199   7.658   1.470  0.0000  0.0000  0.0000
17471SLG    Si118019   6.013   0.551   1.272  0.0000  0.0000  0.0000
17471SLG     O118020   6.013   0.551   1.436  0.0000  0.0000  0.0000
17471SLG     H118021   6.013   0.551   1.534  0.0000  0.0000  0.0000
17471SLG     O218022   6.129   0.551   1.388  0.0000  0.0000  0.0000
17471SLG     H218023   6.129   0.551   1.486  0.0000  0.0000  0.0000
17472SLG    Si118024   5.897   8.518   1.372  0.0000  0.0000  0.0000
17472SLG     O118025   5.897   8.518   1.536  0.0000  0.0000  0.0000
17472SLG     H118026   5.897   8.518   1.634  0.0000  0.0000  0.0000
17472SLG     O218027   6.013   8.518   1.488  0.0000  0.0000  0.0000
17472SLG     H218028   6.013   8.518   1.586  0.0000  0.0000  0.0000
17473SLG    Si118029   4.427   0.742   8.169  0.0000  0.0000  0.0000
17473SLG     O118030   4.427   0.742   8.005  0.0000  0.0000  0.0000
17473SLG     H118031   4.427   0.742   7.907  0.0000  0.0000  0.0000
17473SLG     O218032   4.543   0.742   8.053  0.0000  0.0000  0.0000
17473SLG     H218033   4.543   0.742   7.955  0.0000  0.0000  0.0000
17474SLG    Si118034   4.714   5.602   8.208  0.0000  0.0000  0.0000
17474SLG     O118035   4.714   5.602   8.044  0.0000  0.0000  0.0000
17474SLG     H118036   4.714   5.602   7.946  0.0000  0.0000  0.0000
17474SLG     O218037   4.830   5.602   8.092  0.0000  0.0000  0.0000
17474SLG     H218038   4.830   5.602   7.994  0.0000  0.0000  0.0000
17475SLG    Si118039   8.586   1.970   8.173  0.0000  0.0000  0.0000
17475SLG     O118040   8.586   1.970   8.009  0.0000  0.0000  0.0000
17475SLG     H118041   8.586   1.970   7.911  0.0000  0.0000  0.0000
17475SLG     O218042   8.702   1.970   8.057  0.0000  0.0000  0.0000
17475SLG     H218043   8.702   1.970   7.959  0.0000  0.0000  0.0000
17476SLG    Si118044   3.290   6.280   1.382  0.0000  0.0000  0.0000
17476SLG     O118045   3.290   6.280   1.546  0.0000  0.0000  0.0000
17476SLG     H118046   3.290   6.280   1.644  0.0000  0.0000  0.0000
17476SLG     O218047   3.406   6.280   1.498  0.0000  0.0000  0.0000
17476SLG     H218048   3.406   6.280   1.596  0.0000  0.0000  0.0000
17477SLG    Si118049   4.478   0.999   1.358  0.0000  0.0000  0.0000
17477SLG     O118050   4.478   0.999   1.522  0.0000  0.0000  0.0000
17477SLG     H118051   4.478   0.999   1.620  0.0000  0.0000  0.0000
17477SLG     O218052   4.594   0.999   1.474  0.0000  0.0000  0.0000
17477SLG     H218053   4.594   0.999   1.572  0.0000  0.0000  0.0000
17478SLG    Si118054   7.263   7.527   8.241  0.0000  0.0000  0.0000
17478SLG     O118055   7.263   7.527   8.077  0.0000  0.0000  0.0000
17478SLG     H118056   7.263   7.527   7.979  0.0000  0.0000  0.0000
17478SLG     O218057   7.379   7.527   8.125  0.0000  0.0000  0.0000
17478SLG     H218058   7.379   7.527   8.027  0.0000  0.0000  0.0000
17479SLG    Si118059   7.289   3.584   1.373  0.0000  0.0000  0.0000
17479SLG     O118060   7.289   3.584   1.537  0.0000  0.0000  0.0000
17479SLG     H118061   7.289   3.584   1.635  0.0000  0.0000  0.0000
17479SLG     O218062   7.405   3.584   1.489  0.0000  0.0000  0.0000
17479SLG     H218063   7.405   3.584   1.587  0.0000  0.0000  0.0000
17480SLG    Si118064   9.117   7.262   8.171  0.0000  0.0000  0.0000
17480SLG     O118065   9.117   7.262   8.007  0.0000  0.0000  0.0000
17480SLG     H118066   9.117   7.262   7.909  0.0000  0.0000  0.0000
17480SLG     O218067   9.233   7.262   8.055  0.0000  0.0000  0.0000
17480SLG     H218068   9.233   7.262   7.957  0.0000  0.0000  0.0000
17481SLG    Si118069   6.027   3.847   8.229  0.0000  0.0000  0.0000
17481SLG     O118070   6.027   3.847   8.065  0.0000  0.0000  0.0000
17481SLG     H118071   6.027   3.847   7.967  0.0000  0.0000  0.0000
17481SLG     O218072   6.143   3.847   8.113  0.0000  0.0000  0.0000
17481SLG     H218073   6.143   3.847   8.015  0.0000  0.0000  0.0000
17482SLG    Si118074   5.731   6.832   1.454  0.0000  0.0000  0.0000
17482SLG     O118075   5.731   6.832   1.618  0.0000  0.0000  0.0000
17482SLG     H118076   5.731   6.832   1.716  0.0000  0.0000  0.0000
17482SLG     O218077   5.847   6.832   1.570  0.0000  0.0000  0.0000
17482SLG     H218078   5.847   6.832   1.668  0.0000  0.0000  0.0000
17483SLG    Si118079   0.864   3.091   8.217  0.0000  0.0000  0.0000
17483SLG     O118080   0.864   3.091   8.053  0.0000  0.0000  0.0000
17483SLG     H118081   0.864   3.091   7.955  0.0000  0.0000  0.0000
17483SLG     O218082   0.980   3.091   8.101  0.0000  0.0000  0.0000
17483SLG     H218083   0.980   3.091   8.003  0.0000  0.0000  0.0000
17484SLG    Si118084   1.451   8.488   8.271  0.0000  0.0000  0.0000
17484SLG     O118085   1.451   8.488   8.107  0.0000  0.0000  0.0000
17484SLG     H118086   1.451   8.488   8.009  0.0000  0.0000  0.0000
17484SLG     O218087   1.567   8.488   8.155  0.0000  0.0000  0.0000
17484SLG     H218088   1.567   8.488   8.057  0.0000  0.0000  0.0000
17485SLG    Si118089   5.100   1.921   8.153  0.0000  0.0000  0.0000
17485SLG     O118090   5.100   1.921   7.989  0.0000  0.0000  0.0000
17485SLG     H118091   5.100   1.921   7.891  0.0000  0.0000  0.0000
17485SLG     O218092   5.216   1.921   8.037  0.0000  0.0000  0.0000
17485SLG     H218093   5.216   1.921   7.939  0.0000  0.0000  0.0000
17486SLG    Si118094   9.589   9.227   1.417  0.0000  0.0000  0.0000
17486SLG     O118095   9.589   9.227   1.581  0.0000  0.0000  0.0000
17486SLG     H118096   9.589   9.227   1.679  0.0000  0.0000  0.0000
17486SLG     O218097   9.705   9.227   1.533  0.0000  0.0000  0.0000
17486SLG     H218098   9.705   9.227   1.631  0.0000  0.0000  0.0000
17487SLG    Si118099   1.949   1.377   8.189  0.0000  0.0000  0.0000
17487SLG     O118100   1.949   1.377   8.025  0.0000  0.0000  0.0000
17487SLG     H118101   1.949   1.377   7.927  0.0000  0.0000  0.0000
17487SLG     O218102   2.065   1.377   8.073  0.0000  0.0000  0.0000
17487SLG     H218103   2.065   1.377   7.975  0.0000  0.0000  0.0000
17488SLG    Si118104   4.857   6.045   8.236  0.0000  0.0000  0.0000
17488SLG     O118105   4.857   6.045   8.072  0.0000  0.0000  0.0000
17488SLG     H118106   4.857   6.045   7.974  0.0000  0.0000  0.0000
17488SLG     O218107   4.973   6.045   8.120  0.0000  0.0000  0.0000
17488SLG     H218108   4.973   6.045   8.022  0.0000  0.0000  0.0000
17489SLG    Si118109   3.975   9.105   1.410  0.0000  0.0000  0.0000
17489SLG     O118110   3.975   9.105   1.574  0.0000  0.0000  0.0000
17489SLG     H118111   3.975   9.105   1.672  0.0000  0.0000  0.0000
17489SLG     O218112   4.091   9.105   1.526  0.0000  0.0000  0.0000
17489SLG     H218113   4.091   9.105   1.624  0.0000  0.0000  0.0000
17490SLG    Si118114   5.875   6.496   8.241  0.0000  0.0000  0.0000
17490SLG     O118115   5.875   6.496   8.077  0.0000  0.0000  0.0000
17490SLG     H118116   5.875   6.496   7.979  0.0000  0.0000  0.0000
17490SLG     O218117   5.991   6.496   8.125  0.0000  0.0000  0.0000
17490SLG     H218118   5.991   6.496   8.027  0.0000  0.0000  0.0000
17491SLG    Si118119   8.291   0.594   8.241  0.0000  0.0000  0.0000
17491SLG     O118120   8.291   0.594   8.077  0.0000  0.0000  0.0000
17491SLG     H118121   8.291   0.594   7.979  0.0000  0.0000  0.0000
17491SLG     O218122   8.407   0.594   8.125  0.0000  0.0000  0.0000
17491SLG     H218123   8.407   0.594   8.027  0.0000  0.0000  0.0000
17492SLG    Si118124   6.878   6.486   8.274  0.0000  0.0000  0.0000
17492SLG     O118125   6.878   6.486   8.110  0.0000  0.0000  0.0000
17492SLG     H118126   6.878   6.486   8.012  0.0000  0.0000  0.0000
17492SLG     O218127   6.994   6.486   8.158  0.0000  0.0000  0.0000
17492SLG     H218128   6.994   6.486   8.060  0.0000  0.0000  0.0000
17493SLG    Si118129   0.785   2.157   8.254  0.0000  0.0000  0.0000
17493SLG     O118130   0.785   2.157   8.090  0.0000  0.0000  0.0000
17493SLG     H118131   0.785   2.157   7.992  0.0000  0.0000  0.0000
17493SLG     O218132   0.901   2.157   8.138  0.0000  0.0000  0.0000
17493SLG     H218133   0.901   2.157   8.040  0.0000  0.0000  0.0000
17494SLG    Si118134   4.284   6.867   1.424  0.0000  0.0000  0.0000
17494SLG     O118135   4.284   6.867   1.588  0.0000  0.0000  0.0000
17494SLG     H118136   4.284   6.867   1.686  0.0000  0.0000  0.0000
17494SLG     O218137   4.400   6.867   1.540  0.0000  0.0000  0.0000
17494SLG     H218138   4.400   6.867   1.638  0.0000  0.0000  0.0000
17495THY      O18139   1.549   6.496   3.794  0.6597  0.3859  1.0141
17495THY     HO18140   1.579   6.576   3.748  0.1564 -0.9287  0.4617
17495THY    CA118141   1.649   6.469   3.878  0.0866 -0.2000 -0.6444
17495THY    CA218142   1.637   6.359   3.968  0.6186 -0.7121 -0.1021
17495THY    CP118143   1.494   6.287   3.985  0.4801  0.5163  0.2763
17495THY    HP118144   1.434   6.293   3.893  0.1352  0.6382 -1.0346
17495THY    CP218145   1.413   6.372   4.082  0.0448  0.2458  0.3779
17495THY    HP218146   1.311   6.331   4.078  0.6230 -1.8102 -0.9910
17495THY    HP318147   1.407   6.475   4.044  1.2176 -2.2666 -0.3993
17495THY    HP418148   1.454   6.381   4.184 -1.6093  0.8299  2.1952
17495THY    CP318149   1.508   6.141   4.029 -0.4696  0.0818  0.3688
17495THY    HP518150   1.575   6.088   3.960  0.2414  0.3659  0.8804
17495THY    HP618151   1.412   6.088   4.031  0.4032  0.7001 -1.2341
17495THY    HP718152   1.556   6.135   4.127 -2.6300  1.2348  0.6895
17495THY    CA318153   1.750   6.319   4.047 -0.0206  0.1599  0.1232
17495THY    HA318154   1.738   6.234   4.115  0.0535 -0.9997 -0.8455
17495THY    CA418155   1.869   6.393   4.030 -0.0196 -0.4570 -0.7890
17495THY    HA418156   1.955   6.370   4.093 -0.4001  0.2167 -0.3887
17495THY    CA518157   1.872   6.511   3.949  0.7868 -0.8282 -0.1746
17495THY    CM118158   1.993   6.601   3.962  0.0187  0.2960  0.2710
17495THY    HM118159   1.984   6.644   4.062 -0.4502  0.5307 -0.3630
17495THY    HM218160   1.998   6.690   3.897 -0.5676 -0.5068 -0.2677
17495THY    HM318161   2.086   6.545   3.946 -1.3197 -1.7559 -1.5583
17495THY    CA618162   1.763   6.544   3.867  0.2980 -0.4014 -0.0199
17495THY    HA618163   1.761   6.639   3.814  1.1767  1.0694  0.8603
17496THY      O18164   6.151   6.093   2.355 -0.0038  0.4765 -0.1556
17496THY     HO18165   6.210   6.149   2.301  0.0945 -1.1872 -1.7520
17496THY    CA118166   6.049   6.055   2.273  0.7828 -0.0783 -0.1921
17496THY    CA218167   5.937   5.981   2.318  0.1207 -0.0511 -0.0872
17496THY    CP118168   5.922   5.934   2.462  0.2804  0.2984  0.5170
17496THY    HP118169   6.024   5.911   2.494  0.3135 -0.7478 -0.8892
17496THY    CP218170   5.846   5.804   2.487 -0.4069 -0.1635  0.3352
17496THY    HP218171   5.888   5.725   2.424 -1.7679 -0.7458  0.0468
17496THY    HP318172   5.741   5.818   2.457 -0.6796  1.3484  1.8968
17496THY    HP418173   5.848   5.789   2.595 -1.5548 -0.0324  0.9448
17496THY    CP318174   5.861   6.052   2.537 -0.5543 -0.2672 -0.0678
17496THY    HP518175   5.760   6.060   2.496  0.7245 -3.4412  1.4695
17496THY    HP618176   5.914   6.148   2.528  0.3738 -2.4600 -0.7319
17496THY    HP718177   5.862   6.032   2.645 -0.6698 -0.6026 -2.0791
17496THY    CA318178   5.825   5.964   2.234  0.2570  0.5258  0.4698
17496THY    HA318179   5.739   5.915   2.279  0.2036  2.6062  2.2985
17496THY    CA418180   5.821   6.017   2.105 -0.0001 -0.7946 -0.0449
17496THY    HA418181   5.735   5.998   2.042  1.1998 -2.1780 -1.1242
17496THY    CA518182   5.935   6.091   2.056 -0.2885  0.2679  0.2354
17496THY    CM118183   5.927   6.160   1.919 -0.2208 -0.0360 -0.2379
17496THY    HM118184   5.874   6.256   1.923 -0.5318 -0.5347 -0.3847
17496THY    HM218185   5.871   6.092   1.854  0.4497  0.0680 -0.9083
17496THY    HM318186   6.026   6.181   1.877 -0.9468 -0.4653  2.8220
17496THY    CA618187   6.041   6.105   2.141  0.2414 -0.7141 -0.0853
17496THY    HA618188   6.123   6.166   2.106  0.3332 -1.6495 -0.7335
17497THY      O18189   3.433   5.247   5.698  0.2706  0.2612  0.1543
17497THY     HO18190   3.383   5.292   5.768 -2.1299 -1.7501  0.8161
17497THY    CA118191   3.389   5.118   5.720 -0.5454  0.3850 -0.3805
17497THY    CA218192   3.416   5.020   5.622  0.2500 -0.1660  0.3976
17497THY    CP118193   3.510   5.052   5.501  0.2278  1.0378 -0.2407
17497THY    HP118194   3.532   5.160   5.504 -0.0136  1.3679 -0.1993
17497THY    CP218195   3.439   5.015   5.360 -0.3709 -0.3079 -0.0291
17497THY    HP218196   3.343   5.067   5.354  0.8797 -2.1828  2.2626
17497THY    HP318197   3.425   4.907   5.348  1.5961  1.0324 -0.4868
17497THY    HP418198   3.502   5.053   5.279  0.2667  0.5748  0.8352
17497THY    CP318199   3.643   4.980   5.515  0.2738  0.2578  0.4447
17497THY    HP518200   3.625   4.875   5.490 -1.6620  2.0368  0.2952
17497THY    HP618201   3.679   4.994   5.617 -0.7623  1.0396 -2.0603
17497THY    HP718202   3.712   5.009   5.435  0.2798 -0.5470 -1.5831
17497THY    CA318203   3.372   4.892   5.651 -0.9043  0.0633  0.6477
17497THY    HA318204   3.390   4.810   5.582  1.4208  1.6027 -0.2671
17497THY    CA418205   3.303   4.868   5.769 -0.5061 -0.0490  0.3118
17497THY    HA418206   3.265   4.768   5.788 -0.9957 -4.1470 -0.4760
17497THY    CA518207   3.259   4.975   5.852 -0.2629  0.6812 -0.5242
17497THY    CM118208   3.180   4.943   5.969 -0.1962  0.1913  0.1921
17497THY    HM118209   3.094   4.878   5.948  0.3198 -1.2971 -0.0462
17497THY    HM218210   3.136   5.035   6.009 -0.2530  1.4459 -0.3713
17497THY    HM318211   3.240   4.897   6.047 -2.9769  2.1074 -0.4519
17497THY    CA618212   3.307   5.103   5.826 -0.4074  0.1753  0.2070
17497THY    HA618213   3.285   5.183   5.895 -0.3911 -0.5275  0.8263
17498THY      O18214   8.426   7.018   5.505  0.0557 -0.8259  0.1161
17498THY     HO18215   8.391   7.108   5.512 -0.6187  1.3522 -0.2572
17498THY    CA118216   8.560   7.036   5.480  0.8921 -0.7560 -0.9845
17498THY    CA218217   8.652   6.930   5.477 -0.6502  0.1134 -0.8702
17498THY    CP118218   8.610   6.792   5.516  0.0812  0.5459 -0.0336
17498THY    HP118219   8.503   6.781   5.539  0.2213  0.1859 -2.7075
17498THY    CP218220   8.677   6.769   5.646  0.0031  0.0254 -0.0015
17498THY    HP218221   8.657   6.667   5.681  0.9462  0.4553 -0.0494
17498THY    HP318222   8.633   6.827   5.728  3.3313  2.4924 -0.6553
17498THY    HP418223   8.784   6.791   5.643 -0.5051  1.0308  3.2102
17498THY    CP318224   8.636   6.685   5.401 -0.1481 -0.5138  0.5604
17498THY    HP518225   8.743   6.676   5.379 -0.0912  0.5261 -2.3243
17498THY    HP618226   8.579   6.716   5.313  0.4765 -1.0630  0.1769
17498THY    HP718227   8.588   6.592   5.435 -2.0365  0.5950  1.8683
17498THY    CA318228   8.786   6.959   5.440  0.1877  0.0136 -0.1505
17498THY    HA318229   8.860   6.882   5.463  0.9883 -0.0924  0.5720
17498THY    CA418230   8.820   7.091   5.407 -0.1014 -0.2902 -0.0922
17498THY    HA418231   8.921   7.113   5.374  1.3725  3.1050 -1.1831
17498THY    CA518232   8.721   7.190   5.397  0.0179  0.3271  0.0419
17498THY    CM118233   8.745   7.323   5.336 -0.2029 -0.0273  0.0196
17498THY    HM118234   8.853   7.333   5.320 -0.4611 -1.0745  1.4667
17498THY    HM218235   8.705   7.408   5.393 -1.1624 -1.8492  0.8498
17498THY    HM318236   8.700   7.327   5.236 -0.3859  0.0517 -0.0364
17498THY    CA618237   8.589   7.158   5.429 -0.8540  0.3059  0.0656
17498THY    HA618238   8.512   7.234   5.425 -0.3696  0.7236  0.5844
17499THY      O18239   9.173   3.598   3.159  0.0510  0.1019 -0.5629
17499THY     HO18240   9.194   3.636   3.072 -1.6715 -1.0669 -2.1256
17499THY    CA118241   9.217   3.678   3.254  0.1163 -0.2474 -0.1960
17499THY    CA218242   9.156   3.691   3.383  0.2691  0.3385  0.1883
17499THY    CP118243   9.021   3.624   3.422  0.9616  0.3230 -0.0158
17499THY    HP118244   8.963   3.640   3.331 -1.8854  2.3917  3.1328
17499THY    CP218245   8.933   3.700   3.518  0.3462 -0.1399 -0.2833
17499THY    HP218246   8.917   3.804   3.486 -2.0991  0.6973 -0.3492
17499THY    HP318247   8.985   3.714   3.614 -0.6120  0.1332  1.9045
17499THY    HP418248   8.834   3.653   3.524  0.5016  0.4184 -0.5517
17499THY    CP318249   9.028   3.478   3.466  0.0987  0.9309  0.4675
17499THY    HP518250   9.078   3.470   3.563 -0.1430  1.0953  0.9131
17499THY    HP618251   9.084   3.428   3.386  0.1447  1.6944 -0.7343
17499THY    HP718252   8.929   3.433   3.457  0.6604 -0.8080 -0.5362
17499THY    CA318253   9.230   3.759   3.481  0.0331  0.1375  0.0699
17499THY    HA318254   9.204   3.745   3.586  3.4506  0.9728 -1.2129
17499THY    CA418255   9.347   3.829   3.450 -0.2884 -0.7652 -0.2545
17499THY    HA418256   9.400   3.885   3.527 -0.6625 -0.0156 -0.9077
17499THY    CA518257   9.397   3.821   3.324 -0.0965 -0.5522  0.4707
17499THY    CM118258   9.530   3.886   3.288  0.5395 -0.0991  0.1814
17499THY    HM118259   9.502   3.992   3.289  2.8287  0.4826  0.8299
17499THY    HM218260   9.554   3.866   3.183  0.9299  0.1767 -0.8333
17499THY    HM318261   9.604   3.865   3.365 -1.6866  1.3142 -3.3572
17499THY    CA618262   9.327   3.750   3.225  0.2221 -0.1967 -0.1316
17499THY    HA618263   9.372   3.731   3.128  2.5986  1.2076 -2.3770
17500THY      O18264   6.218   9.090   6.720 -0.3790  0.3099 -0.1933
17500THY     HO18265   6.308   9.058   6.708 -0.5306 -1.5490 -0.0336
17500THY    CA118266   6.140   9.036   6.620 -0.0194 -0.0491  0.2917
17500THY    CA218267   5.999   9.045   6.620 -0.0845 -0.4784  0.3656
17500THY    CP118268   5.914   9.115   6.727 -0.1359 -0.5762 -0.7643
17500THY    HP118269   5.975   9.164   6.804  0.4313 -0.2545 -1.9525
17500THY    CP218270   5.818   9.016   6.801  0.1863 -0.9316  0.8108
17500THY    HP218271   5.872   8.973   6.886 -2.8902  0.4517 -0.6394
17500THY    HP318272   5.781   8.929   6.747  1.9398 -1.2469  0.2186
17500THY    HP418273   5.737   9.075   6.848 -0.1611  0.5463 -0.7637
17500THY    CP318274   5.842   9.234   6.667 -0.0279  0.5429 -0.0877
17500THY    HP518275   5.781   9.209   6.579  0.8253 -0.2634  0.6262
17500THY    HP618276   5.912   9.302   6.619 -0.7904  0.3806  0.6001
17500THY    HP718277   5.795   9.296   6.744  1.3855  1.7314 -0.4564
17500THY    CA318278   5.928   8.982   6.517  0.3199  0.6048  0.2575
17500THY    HA318279   5.822   8.990   6.499  0.4674 -0.0160  0.9271
17500THY    CA418280   5.998   8.916   6.421  0.0732  0.5147  0.0604
17500THY    HA418281   5.953   8.874   6.332  0.2238  0.0734  0.8153
17500THY    CA518282   6.139   8.912   6.420  1.2338 -0.3003 -0.2605
17500THY    CM118283   6.210   8.839   6.313 -0.3277  0.3250 -0.0329
17500THY    HM118284   6.232   8.734   6.336  1.2174  1.9721  0.5870
17500THY    HM218285   6.313   8.873   6.293 -1.2984 -4.4111  0.8516
17500THY    HM318286   6.159   8.851   6.217 -1.4512  0.7058 -1.5038
17500THY    CA618287   6.209   8.974   6.527 -0.1700  0.0900  0.1817
17500THY    HA618288   6.316   8.957   6.523 -0.4905 -1.3430 -2.0418
17501THY      O18289   4.843   7.800   5.942 -0.2793  0.2758 -0.2179
17501THY     HO18290   4.843   7.863   6.017  0.6087 -0.6131  0.8736
17501THY    CA118291   4.720   7.746   5.929 -0.0542  0.0494 -0.0659
17501THY    CA218292   4.706   7.614   5.877 -0.3520  0.1405  0.2599
17501THY    CP118293   4.838   7.534   5.850 -0.0713  0.7579 -1.0902
17501THY    HP118294   4.930   7.586   5.878 -0.1235  1.8428 -1.5594
17501THY    CP218295   4.841   7.494   5.696  0.1386 -0.0421 -0.3559
17501THY    HP218296   4.846   7.590   5.644  1.3881  0.7419  0.0227
17501THY    HP318297   4.754   7.429   5.675  0.4558  0.6979 -1.0448
17501THY    HP418298   4.933   7.440   5.672  0.3279 -2.7377  1.0086
17501THY    CP318299   4.843   7.404   5.929  0.4157  0.2819 -0.0304
17501THY    HP518300   4.744   7.357   5.930  1.5440  2.7422 -2.6393
17501THY    HP618301   4.871   7.433   6.031  2.4447 -0.6563  1.5738
17501THY    HP718302   4.921   7.336   5.894 -1.2282  0.1887 -1.9760
17501THY    CA318303   4.580   7.557   5.860 -0.3369  0.3848  0.4911
17501THY    HA318304   4.569   7.456   5.822  0.7540  0.1951  0.4314
17501THY    CA418305   4.468   7.641   5.888 -0.2846 -0.2278  0.3172
17501THY    HA418306   4.368   7.601   5.873  0.1193  0.9133 -1.2477
17501THY    CA518307   4.483   7.768   5.942 -0.2318 -0.4308 -0.2341
17501THY    CM118308   4.361   7.856   5.961  0.1923  0.3815  0.5078
17501THY    HM118309   4.396   7.949   6.006  1.5681 -0.0069  0.2008
17501THY    HM218310   4.297   7.791   6.022  0.4099  1.2896  1.1296
17501THY    HM318311   4.316   7.879   5.863  0.1715  0.1869 -0.3051
17501THY    CA618312   4.613   7.825   5.950  1.3368 -0.2027  0.2531
17501THY    HA618313   4.618   7.929   5.983 -1.1668 -1.6189  0.9125
17502THY      O18314   5.006   8.152   5.889 -0.2661 -0.0207 -0.6311
17502THY     HO18315   5.024   8.245   5.867 -1.2552 -0.4390 -0.5191
17502THY    CA118316   5.130   8.090   5.898  0.7504 -0.0781  0.6020
17502THY    CA218317   5.161   7.979   5.816  0.2588  0.3298 -0.2772
17502THY    CP118318   5.058   7.929   5.703  0.0727 -0.2710 -1.0577
17502THY    HP118319   4.955   7.944   5.737 -1.2216 -4.0817 -0.2511
17502THY    CP218320   5.073   7.783   5.656 -0.0267  0.3650 -0.4650
17502THY    HP218321   4.995   7.776   5.580  1.3740 -1.4729  2.2313
17502THY    HP318322   5.064   7.706   5.734  1.7490 -0.2039 -1.3196
17502THY    HP418323   5.169   7.764   5.606 -1.4258 -1.9177 -2.1236
17502THY    CP318324   5.096   8.025   5.587 -0.8107  0.3246  0.8589
17502THY    HP518325   5.204   8.032   5.572 -0.6015 -0.4092 -2.3314
17502THY    HP618326   5.059   8.125   5.613  0.6391 -1.6655  1.9579
17502THY    HP718327   5.049   8.007   5.490 -0.2261 -0.0120  1.1359
17502THY    CA318328   5.285   7.917   5.841  0.1121  0.1746  0.4471
17502THY    HA318329   5.313   7.830   5.783  1.2975  0.4482  0.6315
17502THY    CA418330   5.373   7.968   5.944 -0.0669  0.0673  0.0970
17502THY    HA418331   5.470   7.923   5.968  0.3410 -2.1367 -0.3066
17502THY    CA518332   5.337   8.075   6.021 -0.5585 -0.4405 -0.0616
17502THY    CM118333   5.425   8.123   6.140 -0.2081  0.5735  0.1368
17502THY    HM118334   5.529   8.090   6.133 -0.6514  0.2285 -1.2699
17502THY    HM218335   5.385   8.097   6.239 -0.0300  1.3324  2.5049
17502THY    HM318336   5.423   8.233   6.140  0.3240  1.0182  0.1494
17502THY    CA618337   5.218   8.138   5.997  0.3026 -0.4547 -0.1370
17502THY    HA618338   5.203   8.233   6.047  2.1776 -0.2428  0.0758
17503THY      O18339   9.161   6.316   5.680  0.4035 -0.1740  0.1123
17503THY     HO18340   9.153   6.321   5.777 -0.8506 -0.2490 -0.2532
17503THY    CA118341   9.041   6.291   5.621 -1.1108  0.4015 -0.3686
17503THY    CA218342   9.037   6.252   5.489  0.1152  0.1057  0.5890
17503THY    CP118343   9.163   6.219   5.403  0.1672  0.5730 -0.0325
17503THY    HP118344   9.258   6.224   5.457  0.7776 -0.5489  0.8995
17503THY    CP218345   9.179   6.320   5.289  0.4612 -0.1602 -0.5854
17503THY    HP218346   9.163   6.424   5.319 -0.5544  0.4106 -0.8839
17503THY    HP318347   9.104   6.304   5.210 -0.1182  0.1665  0.4077
17503THY    HP418348   9.277   6.308   5.241  0.1498 -0.5818 -1.5397
17503THY    CP318349   9.159   6.080   5.346  0.5782 -0.2514  0.2027
17503THY    HP518350   9.058   6.054   5.312 -0.0468 -1.6008  3.7592
17503THY    HP618351   9.194   6.016   5.427 -0.6948  1.1154  1.1725
17503THY    HP718352   9.232   6.074   5.264 -0.2529 -1.2542  2.4607
17503THY    CA318353   8.910   6.254   5.430 -0.2506  0.7685 -0.0100
17503THY    HA318354   8.899   6.224   5.326  1.0592 -0.0305  2.0661
17503THY    CA418355   8.793   6.273   5.501  0.3323 -0.5968  0.1141
17503THY    HA418356   8.696   6.263   5.454 -0.0176  0.0114  0.6053
17503THY    CA518357   8.792   6.311   5.634  0.4416  0.3300  0.0722
17503THY    CM118358   8.666   6.345   5.701  0.5332 -0.0994 -0.5383
17503THY    HM118359   8.586   6.270   5.691  0.2210  2.1008 -0.5616
17503THY    HM218360   8.632   6.441   5.661  0.7155 -3.5626 -1.7884
17503THY    HM318361   8.680   6.367   5.808 -0.7721 -0.0132 -0.0765
17503THY    CA618362   8.924   6.326   5.693  0.6001 -0.6157 -0.1655
17503THY    HA618363   8.923   6.357   5.797  1.3309 -0.4934 -0.5245
17504THY      O18364   6.215   7.347   6.549 -0.0418  0.0304 -0.2249
17504THY     HO18365   6.280   7.300   6.494 -0.4280  0.6399 -1.5200
17504THY    CA118366   6.148   7.249   6.605 -0.1383  0.1586 -0.2222
17504THY    CA218367   6.034   7.269   6.681  0.7939  0.4961 -0.2995
17504THY    CP118368   5.979   7.410   6.709  0.1944  0.0442 -0.7954
17504THY    HP118369   6.049   7.489   6.680 -0.4080  0.6350 -0.0397
17504THY    CP218370   5.949   7.431   6.864 -0.0594  0.8411  0.3092
17504THY    HP218371   6.037   7.395   6.919  0.9388 -0.8357  0.1032
17504THY    HP318372   5.859   7.378   6.897 -1.4261 -1.9139  0.7312
17504THY    HP418373   5.921   7.532   6.897 -0.9158  0.6585  0.1384
17504THY    CP318374   5.853   7.422   6.620  0.3620  0.8282 -0.4245
17504THY    HP518375   5.882   7.412   6.514  0.1548  0.7085  0.1490
17504THY    HP618376   5.795   7.514   6.635  0.7472  2.0055 -0.3657
17504THY    HP718377   5.782   7.342   6.642 -1.8942  0.1066  1.2482
17504THY    CA318378   5.973   7.158   6.748  0.2148 -0.3754 -0.3023
17504THY    HA318379   5.889   7.168   6.816  0.6055 -0.2319  3.6440
17504THY    CA418380   6.026   7.027   6.724 -0.0204  0.6041  0.2901
17504THY    HA418381   5.982   6.939   6.770 -1.1757 -1.1641 -0.1059
17504THY    CA518382   6.143   7.006   6.644  0.0253 -0.4835  0.5585
17504THY    CM118383   6.182   6.858   6.622  0.0270 -0.1276  0.4232
17504THY    HM118384   6.246   6.830   6.706 -0.8203  0.9091  1.4836
17504THY    HM218385   6.225   6.848   6.522 -1.8821 -1.0618  1.0406
17504THY    HM318386   6.090   6.798   6.616  1.1526 -1.0034 -1.2836
17504THY    CA618387   6.203   7.119   6.583 -0.1684  0.9933 -0.2682
17504THY    HA618388   6.283   7.107   6.509  0.5977  1.1204  3.1259
17505THY      O18389   6.391   4.458   3.302  0.6875  0.1020  0.1400
17505THY     HO18390   6.351   4.393   3.241 -0.2530  0.4670  0.3580
17505THY    CA118391   6.334   4.581   3.287 -0.0165 -0.0157 -0.1382
17505THY    CA218392   6.384   4.685   3.371  0.5874 -0.1588 -0.5883
17505THY    CP118393   6.486   4.650   3.487  0.6866  0.0877 -0.0372
17505THY    HP118394   6.465   4.546   3.512 -0.5619 -1.6286 -0.2548
17505THY    CP218395   6.453   4.738   3.616 -0.7236  0.2531  0.8635
17505THY    HP218396   6.350   4.729   3.652 -0.6903  0.3554  0.8973
17505THY    HP318397   6.472   4.842   3.589 -1.5209 -1.2347  0.6578
17505THY    HP418398   6.527   4.704   3.690 -1.1807 -0.0034 -0.7901
17505THY    CP318399   6.628   4.685   3.449 -0.7737 -0.5339 -0.6418
17505THY    HP518400   6.674   4.597   3.401  2.8632 -0.4770  1.0147
17505THY    HP618401   6.694   4.699   3.535 -2.2969  0.8171 -1.5879
17505THY    HP718402   6.635   4.776   3.387 -1.3564  1.5371  0.8972
17505THY    CA318403   6.338   4.815   3.351 -0.1445  0.5569  0.4280
17505THY    HA318404   6.378   4.887   3.422  2.2671  1.0623 -1.2842
17505THY    CA418405   6.248   4.836   3.242 -0.0643  0.5709 -0.5660
17505THY    HA418406   6.217   4.939   3.231  1.0416  2.3318 -0.0075
17505THY    CA518407   6.193   4.728   3.166 -0.5507 -0.1287 -0.1285
17505THY    CM118408   6.094   4.763   3.057 -0.3350 -0.0126  0.0739
17505THY    HM118409   6.007   4.696   3.056  0.9135  0.1861 -1.6154
17505THY    HM218410   6.143   4.762   2.959  0.7752  0.4964 -2.3716
17505THY    HM318411   6.053   4.864   3.071 -4.3695 -2.1229 -1.0787
17505THY    CA618412   6.241   4.601   3.191 -0.3847  0.8457 -0.4643
17505THY    HA618413   6.202   4.527   3.122  0.2030  1.0035 -0.9255
17506THY      O18414   2.758   0.773   1.852 -0.3616 -0.1295  0.2973
17506THY     HO18415   2.693   0.836   1.817 -0.7692  0.1831  0.0479
17506THY    CA118416   2.883   0.819   1.820  0.0916  0.3592  0.5500
17506THY    CA218417   3.004   0.743   1.830  0.0243 -0.2407  0.0156
17506THY    CP118418   3.010   0.604   1.884  0.2161 -0.0517 -0.5531
17506THY    HP118419   2.910   0.579   1.923  0.9427  1.8313 -0.7206
17506THY    CP218420   3.111   0.596   1.999  0.2651 -0.3741 -0.6748
17506THY    HP218421   3.217   0.594   1.969 -0.3272 -2.6092 -1.1519
17506THY    HP318422   3.087   0.508   2.060  2.2259  1.9682  0.2929
17506THY    HP418423   3.082   0.681   2.062 -2.3012 -1.3909 -0.7164
17506THY    CP318424   3.037   0.497   1.781 -0.6995  0.3194 -0.1024
17506THY    HP518425   3.039   0.402   1.836 -1.5555  1.5435  0.5687
17506THY    HP618426   3.137   0.519   1.743 -0.6475  0.1622 -0.5916
17506THY    HP718427   2.961   0.486   1.702 -0.3696 -0.0595  0.2871
17506THY    CA318428   3.125   0.805   1.796  0.0558  0.4052  0.4287
17506THY    HA318429   3.217   0.748   1.795  1.0212 -1.2166  1.9314
17506THY    CA418430   3.120   0.941   1.769 -0.4873 -0.4065 -0.7266
17506THY    HA418431   3.208   0.994   1.735 -0.7835  1.6726  1.2194
17506THY    CA518432   3.000   1.016   1.767  0.0541  0.0422 -1.3088
17506THY    CM118433   3.003   1.163   1.746 -0.8033 -0.2802  0.0030
17506THY    HM118434   3.104   1.191   1.714  0.1051 -0.2207 -2.9032
17506THY    HM218435   2.982   1.209   1.844  0.6044 -0.5338  1.2697
17506THY    HM318436   2.923   1.184   1.675 -0.0314 -1.2164 -0.1377
17506THY    CA618437   2.882   0.955   1.805  0.3879 -0.0095 -0.3206
17506THY    HA618438   2.787   1.007   1.805 -0.6050  1.5983 -2.0204
17507THY      O18439   8.112   6.278   7.569  0.0112 -0.2056  0.0035
17507THY     HO18440   8.060   6.360   7.564  0.6791  1.0982  0.5433
17507THY    CA118441   8.178   6.278   7.693  0.1868  0.0918  0.0064
17507THY    CA218442   8.277   6.183   7.719 -0.3517 -0.7739 -0.9746
17507THY    CP118443   8.321   6.091   7.605  0.4027  0.2309  0.4216
17507THY    HP118444   8.290   6.127   7.506  0.8620 -0.0652  0.0180
17507THY    CP218445   8.255   5.951   7.629 -0.2132 -1.0257 -0.5058
17507THY    HP218446   8.284   5.879   7.551  1.4371 -0.6491 -0.2809
17507THY    HP318447   8.147   5.967   7.618 -0.1159 -2.5577 -0.7263
17507THY    HP418448   8.285   5.908   7.724  1.4714  0.1578  2.9294
17507THY    CP318449   8.472   6.069   7.605 -0.5217 -0.3012  0.5729
17507THY    HP518450   8.520   6.154   7.556 -3.1289 -2.4935  0.9234
17507THY    HP618451   8.491   5.982   7.540 -1.9750  0.4685 -0.3792
17507THY    HP718452   8.514   6.046   7.704  1.2268 -0.6019  2.2875
17507THY    CA318453   8.325   6.174   7.856  0.2283  1.0577  0.6883
17507THY    HA318454   8.407   6.109   7.884 -0.1137  0.3134 -0.0822
17507THY    CA418455   8.270   6.257   7.956  0.1498 -0.0248 -0.4231
17507THY    HA418456   8.314   6.268   8.055  1.2087 -0.4732 -0.5000
17507THY    CA518457   8.167   6.345   7.925  0.0074  0.8357  1.0439
17507THY    CM118458   8.110   6.435   8.032 -0.3068 -0.2131  0.0205
17507THY    HM118459   8.033   6.372   8.078 -2.2582 -1.9531  1.0075
17507THY    HM218460   8.066   6.522   7.980  1.9482 -0.6540  0.9767
17507THY    HM318461   8.177   6.465   8.113 -1.1911  0.5727 -0.1022
17507THY    CA618462   8.121   6.354   7.792 -0.2028  0.2883 -0.1907
17507THY    HA618463   8.053   6.432   7.762 -1.0589 -0.7534 -1.3181
17508THY      O18464   4.194   8.355   1.680  0.0558  0.1205  0.4356
17508THY     HO18465   4.246   8.273   1.677 -0.0769 -1.9980  0.3837
17508THY    CA118466   4.280   8.457   1.697  0.1584  0.1318 -0.5622
17508THY    CA218467   4.238   8.590   1.695 -0.5655 -0.6346 -0.1917
17508THY    CP118468   4.091   8.619   1.684 -1.0241  0.5701 -0.1320
17508THY    HP118469   4.025   8.532   1.689 -1.8996 -0.9726  0.4105
17508THY    CP218470   4.058   8.689   1.552 -0.2975  0.4128 -0.1955
17508THY    HP218471   4.110   8.785   1.536 -0.6026  2.2143  0.3074
17508THY    HP318472   3.956   8.728   1.544 -1.2993  1.4323 -2.4533
17508THY    HP418473   4.090   8.619   1.473  1.7222  0.3480  0.7394
17508THY    CP318474   4.051   8.724   1.800 -0.8161  0.0980 -0.6367
17508THY    HP518475   4.091   8.695   1.898 -0.1724 -0.2050 -0.8049
17508THY    HP618476   3.942   8.735   1.796 -1.3131  1.3256 -4.0707
17508THY    HP718477   4.089   8.825   1.783 -0.4590 -0.0634 -0.7967
17508THY    CA318478   4.335   8.692   1.732 -0.2012 -0.3340  0.1004
17508THY    HA318479   4.317   8.798   1.741  1.6089  1.4329  0.3120
17508THY    CA418480   4.468   8.660   1.758  0.8806  0.4270  0.2735
17508THY    HA418481   4.535   8.744   1.774 -0.3807  2.3695  0.9924
17508THY    CA518482   4.503   8.526   1.760  0.0999 -0.2551 -0.2263
17508THY    CM118483   4.642   8.492   1.791 -0.6308 -0.1223 -0.0669
17508THY    HM118484   4.669   8.386   1.796  0.5096 -0.9986  0.1484
17508THY    HM218485   4.666   8.536   1.889 -1.3193 -0.4785  1.1526
17508THY    HM318486   4.706   8.524   1.708 -0.1336 -1.1733 -3.4136
17508THY    CA618487   4.409   8.426   1.733 -0.2051 -0.4774  0.4054
17508THY    HA618488   4.438   8.323   1.715 -2.3311  3.5005 -1.1422
17509THY      O18489   5.659   7.509   5.290 -0.0257 -0.1538 -0.0788
17509THY     HO18490   5.742   7.463   5.310  1.0703  0.7424  2.1338
17509THY    CA118491   5.619   7.568   5.400 -0.2099 -0.5665 -0.4053
17509THY    CA218492   5.536   7.675   5.400 -0.2506  0.5450 -0.5403
17509THY    CP118493   5.493   7.744   5.277 -0.1920 -0.3688 -0.0246
17509THY    HP118494   5.517   7.692   5.184  2.1311 -0.6961  1.5077
17509THY    CP218495   5.552   7.885   5.253  0.4179  0.1625  0.6347
17509THY    HP218496   5.512   7.930   5.161 -0.0073  0.5621  1.0924
17509THY    HP318497   5.660   7.875   5.244  0.3493  1.2447 -1.6634
17509THY    HP418498   5.532   7.950   5.339 -1.8319 -0.6668  1.1580
17509THY    CP318499   5.336   7.764   5.270 -0.1815 -0.7963 -0.1929
17509THY    HP518500   5.294   7.784   5.171 -1.5052  0.0280  1.2362
17509THY    HP618501   5.298   7.842   5.337 -2.1529  1.4867 -2.8841
17509THY    HP718502   5.286   7.673   5.305  0.8473 -0.2008 -0.5581
17509THY    CA318503   5.498   7.729   5.524  0.8211  0.2714 -0.0447
17509THY    HA318504   5.430   7.814   5.533  1.1282 -0.1787  0.2572
17509THY    CA418505   5.542   7.673   5.640  0.8847 -0.4814 -0.2068
17509THY    HA418506   5.508   7.706   5.737  2.6599  0.2224 -0.3233
17509THY    CA518507   5.624   7.567   5.644  0.0615 -0.0916  0.6840
17509THY    CM118508   5.671   7.500   5.776  0.2290  0.3007  0.2687
17509THY    HM118509   5.629   7.400   5.797  0.7588  3.1099  0.5484
17509THY    HM218510   5.644   7.572   5.854  0.0357 -0.5707  1.1416
17509THY    HM318511   5.779   7.483   5.773  0.0624 -0.1494 -0.7729
17509THY    CA618512   5.662   7.512   5.519  0.5034 -0.5993  0.5949
17509THY    HA618513   5.721   7.421   5.528 -0.4270  1.1450  0.1254
17510THY      O18514   4.765   5.397   4.787  0.7947 -0.5356  0.1672
17510THY     HO18515   4.818   5.442   4.719 -1.0962 -0.6404  2.4107
17510THY    CA118516   4.702   5.494   4.857  0.5208 -1.2393  0.0552
17510THY    CA218517   4.687   5.481   4.993 -0.0777 -0.6570  0.1373
17510THY    CP118518   4.739   5.349   5.062 -0.0846 -0.4769 -0.1572
17510THY    HP118519   4.833   5.318   5.015  0.1370  1.0147 -1.9382
17510THY    CP218520   4.633   5.240   5.032 -0.3980 -0.2831 -0.2261
17510THY    HP218521   4.532   5.280   5.049 -0.3203  0.1347 -0.2105
17510THY    HP318522   4.640   5.151   5.095 -0.9654  1.0703  0.6559
17510THY    HP418523   4.645   5.212   4.927 -1.1794 -0.6825  0.8572
17510THY    CP318524   4.760   5.364   5.211 -0.8691  0.5735 -0.1487
17510THY    HP518525   4.668   5.345   5.268 -1.5086 -0.7914 -1.4036
17510THY    HP618526   4.798   5.463   5.237 -0.6690 -0.7776  0.1493
17510THY    HP718527   4.846   5.304   5.243 -1.6208 -0.4353 -1.8553
17510THY    CA318528   4.624   5.583   5.064 -0.0291  0.0229  0.4587
17510THY    HA318529   4.613   5.585   5.172 -1.2759 -0.0861  0.4328
17510THY    CA418530   4.572   5.694   4.988  0.2402 -0.2289  0.5123
17510THY    HA418531   4.513   5.772   5.036  0.9537 -2.0999  2.2666
17510THY    CA518532   4.594   5.701   4.855  0.0115 -0.6888  0.7241
17510THY    CM118533   4.543   5.815   4.779  0.0462  0.4618 -1.0015
17510THY    HM118534   4.436   5.834   4.784  0.0162 -2.7641  0.2473
17510THY    HM218535   4.581   5.812   4.676 -1.4260 -0.1507  0.1196
17510THY    HM318536   4.591   5.904   4.823 -0.3474 -0.2590 -0.4215
17510THY    CA618537   4.655   5.602   4.786 -0.7903 -0.7967  0.9380
17510THY    HA618538   4.666   5.602   4.678  1.8873 -0.6226 -0.9836
17511THY      O18539   6.793   8.460   7.599 -0.2600  0.3076  0.4010
17511THY     HO18540   6.795   8.492   7.691 -0.2094  0.5822 -0.3760
17511THY    CA118541   6.819   8.567   7.519  0.1456 -0.3905  0.4854
17511THY    CA218542   6.747   8.589   7.405  0.0916  0.2076 -0.2697
17511THY    CP118543   6.634   8.499   7.368  0.5669 -0.4821  0.0945
17511THY    HP118544   6.644   8.401   7.415 -0.6359 -0.0753  0.1512
17511THY    CP218545   6.621   8.478   7.220  0.1947  0.6884  0.2162
17511THY    HP218546   6.716   8.436   7.186  0.6148  3.1868 -1.0388
17511THY    HP318547   6.575   8.566   7.173  0.2836 -1.0950 -0.6309
17511THY    HP418548   6.548   8.399   7.199 -0.2292  1.4626  0.3936
17511THY    CP318549   6.495   8.551   7.425  0.1072  0.7062  0.0557
17511THY    HP518550   6.421   8.473   7.404  0.8401  1.7851 -0.9601
17511THY    HP618551   6.464   8.641   7.370 -3.3695  1.0767 -0.7762
17511THY    HP718552   6.504   8.579   7.531  0.1956  0.5492  0.6384
17511THY    CA318553   6.776   8.708   7.331 -0.3243 -0.4955  0.5070
17511THY    HA318554   6.731   8.737   7.237  0.6148 -0.7350  1.2581
17511THY    CA418555   6.887   8.789   7.368 -0.1892 -0.0771 -0.2448
17511THY    HA418556   6.918   8.873   7.306 -2.4975 -0.5875  0.2776
17511THY    CA518557   6.959   8.766   7.486 -0.0071 -0.1832  0.8557
17511THY    CM118558   7.071   8.856   7.526 -0.3139 -0.0642  0.2081
17511THY    HM118559   7.136   8.893   7.446 -1.4152 -0.7541  0.6917
17511THY    HM218560   7.134   8.822   7.609  1.9075 -0.6608  2.5556
17511THY    HM318561   7.024   8.940   7.579  0.0848  0.5006  0.0832
17511THY    CA618562   6.918   8.660   7.561  0.3008 -0.7114 -0.5888
17511THY    HA618563   6.971   8.650   7.655  2.0563 -1.3013  2.0339
17512THY      O18564   3.227   5.295   5.483 -0.1396  0.8589  0.5702
17512THY     HO18565   3.312   5.273   5.523  1.1212 -0.2269  3.0781
17512THY    CA118566   3.258   5.360   5.368 -0.6315 -0.0643  0.7115
17512THY    CA218567   3.165   5.378   5.265 -1.0564  0.5003  0.8019
17512THY    CP118568   3.033   5.309   5.259  0.6036 -0.2162  0.8291
17512THY    HP118569   3.030   5.245   5.348  0.7251 -0.2212  0.8150
17512THY    CP218570   3.027   5.205   5.150 -0.5038  0.1567 -0.3262
17512THY    HP218571   3.080   5.115   5.184  0.4026 -0.4115 -0.0286
17512THY    HP318572   3.085   5.246   5.066 -1.9074 -0.9020 -0.4229
17512THY    HP418573   2.922   5.179   5.130 -1.1045  1.4662  0.9808
17512THY    CP318574   2.911   5.408   5.253  0.1626 -0.1591 -0.3087
17512THY    HP518575   2.899   5.468   5.344  0.0878 -0.2773 -0.1438
17512THY    HP618576   2.825   5.341   5.246 -0.1924  1.0100 -0.0113
17512THY    HP718577   2.914   5.478   5.169  0.9339  2.1992  2.7540
17512THY    CA318578   3.207   5.463   5.157  0.4820 -0.1227 -0.7404
17512THY    HA318579   3.133   5.472   5.078 -2.7829  2.7271 -0.6400
17512THY    CA418580   3.337   5.515   5.152  0.3540 -0.1877  0.4963
17512THY    HA418581   3.365   5.572   5.064 -1.7499 -0.4759  1.1921
17512THY    CA518582   3.428   5.488   5.258  0.3198 -0.4585  0.4070
17512THY    CM118583   3.556   5.560   5.260 -0.2425  0.6488 -0.2517
17512THY    HM118584   3.634   5.499   5.307  0.0680  2.2474  1.2665
17512THY    HM218585   3.545   5.653   5.318 -0.3975  1.0556 -0.5226
17512THY    HM318586   3.593   5.609   5.169  0.7423  0.9812 -0.3499
17512THY    CA618587   3.385   5.409   5.366 -0.4784  0.8910 -0.2545
17512THY    HA618588   3.462   5.401   5.443  0.9441 -0.2581  1.4083
17513THY      O18589   4.419   4.458   3.644  0.7704  0.2483 -0.1353
17513THY     HO18590   4.376   4.373   3.627 -2.0830  1.3162  0.9706
17513THY    CA118591   4.538   4.459   3.585  0.4739 -0.4967  0.2753
17513THY    CA218592   4.586   4.567   3.504  0.2479 -0.0728 -0.2555
17513THY    CP118593   4.498   4.683   3.473  0.0170  0.0246 -0.7148
17513THY    HP118594   4.405   4.701   3.528 -1.1888 -2.5543  1.8071
17513THY    CP218595   4.447   4.682   3.325 -0.9007  0.6602 -0.1907
17513THY    HP218596   4.390   4.588   3.313 -0.1191  1.3708 -0.7722
17513THY    HP318597   4.529   4.669   3.254 -1.0675  0.0054  2.0758
17513THY    HP418598   4.390   4.769   3.291  3.3531  0.4653  2.8125
17513THY    CP318599   4.574   4.815   3.511  0.2958  0.5272  0.2537
17513THY    HP518600   4.667   4.808   3.454  1.2961  2.2445 -1.3929
17513THY    HP618601   4.605   4.816   3.616 -1.5463  1.1192  0.2379
17513THY    HP718602   4.497   4.887   3.480  0.1632 -0.4280 -0.2856
17513THY    CA318603   4.705   4.543   3.421 -0.0555 -0.0937 -0.0944
17513THY    HA318604   4.740   4.609   3.342 -0.1926  0.5239  0.7440
17513THY    CA418605   4.779   4.424   3.444  0.7834  0.0793 -0.6253
17513THY    HA418606   4.861   4.399   3.377 -0.0081 -1.0747 -0.1998
17513THY    CA518607   4.742   4.340   3.548 -0.0737 -0.0069  0.6088
17513THY    CM118608   4.819   4.214   3.572 -0.0271  0.0881 -0.3048
17513THY    HM118609   4.918   4.230   3.527 -0.3778  0.0594  2.2845
17513THY    HM218610   4.772   4.127   3.526 -2.1502  0.5457  0.5310
17513THY    HM318611   4.817   4.180   3.676  0.4619 -1.0853 -4.5073
17513THY    CA618612   4.622   4.347   3.615  0.7161 -0.1932 -0.2039
17513THY    HA618613   4.603   4.274   3.693  1.4988 -0.5775 -0.8353
17514THY      O18614   1.863   0.481   6.284 -0.0087  0.0220 -0.5180
17514THY     HO18615   1.801   0.490   6.210  1.2206 -1.0114 -0.1628
17514THY    CA118616   1.967   0.418   6.228  0.1357  1.0253  0.6559
17514THY    CA218617   2.077   0.381   6.303 -0.9609  0.2502  0.8438
17514THY    CP118618   2.082   0.413   6.457  0.3968  0.1091 -0.0140
17514THY    HP118619   1.983   0.388   6.499  0.1382 -0.0720  0.6767
17514THY    CP218620   2.101   0.561   6.483  0.0793  0.3976 -0.0725
17514THY    HP218621   2.194   0.601   6.442 -0.2947  0.3724  0.7849
17514THY    HP318622   2.091   0.576   6.591  1.8814  0.6865 -0.7779
17514THY    HP418623   2.021   0.614   6.430 -0.6002  2.5038  1.0918
17514THY    CP318624   2.189   0.340   6.540  0.4640 -0.6429  0.2934
17514THY    HP518625   2.290   0.354   6.499  0.1825 -1.2922  0.4400
17514THY    HP618626   2.162   0.234   6.527  0.0151 -1.9932  0.5623
17514THY    HP718627   2.183   0.368   6.646 -0.7609 -0.4235 -0.6935
17514THY    CA318628   2.179   0.304   6.245 -0.5691 -0.6853  0.5359
17514THY    HA318629   2.259   0.269   6.310 -1.3706 -0.8536 -1.7700
17514THY    CA418630   2.184   0.276   6.108  0.4559  0.1049  0.5124
17514THY    HA418631   2.266   0.212   6.076  0.0611  1.4134 -0.7209
17514THY    CA518632   2.074   0.317   6.032  0.3513 -0.4443 -0.0393
17514THY    CM118633   2.077   0.294   5.880  0.2727 -0.0587 -0.4954
17514THY    HM118634   2.180   0.272   5.850  0.3828  1.3290 -2.0744
17514THY    HM218635   2.053   0.387   5.827  0.5951 -0.3715 -0.5868
17514THY    HM318636   2.012   0.211   5.848  0.3228 -1.2912 -0.0797
17514THY    CA618637   1.963   0.391   6.092  0.1037  0.6467  0.3027
17514THY    HA618638   1.879   0.415   6.028  1.2911 -0.7288  0.9542
17515THY      O18639   8.783   8.235   6.759 -0.3469  0.1321 -0.1641
17515THY     HO18640   8.753   8.195   6.842 -3.0486 -0.7757 -0.1753
17515THY    CA118641   8.788   8.134   6.667 -0.0446  0.0747 -0.4124
17515THY    CA218642   8.911   8.108   6.604  0.2250 -0.4746 -0.1695
17515THY    CP118643   9.041   8.181   6.646  1.1610  0.4405 -0.5174
17515THY    HP118644   9.015   8.263   6.713  2.6408 -0.8467  1.0754
17515THY    CP218645   9.116   8.248   6.524 -0.7526 -0.3351 -0.6857
17515THY    HP218646   9.215   8.284   6.554  0.3771 -1.6353 -2.5560
17515THY    HP318647   9.060   8.329   6.474 -0.3248  1.3028  0.6849
17515THY    HP418648   9.145   8.171   6.452  1.1750  1.4208 -1.7025
17515THY    CP318649   9.147   8.096   6.717 -0.2214  0.6554  0.0542
17515THY    HP518650   9.202   8.039   6.641 -1.2931 -1.6850  1.9664
17515THY    HP618651   9.109   8.024   6.790  3.9392  1.1339 -1.9912
17515THY    HP718652   9.227   8.150   6.770  0.2280  0.4029 -0.3485
17515THY    CA318653   8.911   8.018   6.498 -0.0007 -0.7787  0.1222
17515THY    HA318654   9.005   7.984   6.455 -1.0845 -1.7144 -1.9036
17515THY    CA418655   8.795   7.957   6.454 -0.4801  0.1092  0.4094
17515THY    HA418656   8.798   7.884   6.373 -0.6704 -0.1699  0.7043
17515THY    CA518657   8.671   7.990   6.512 -0.3693 -0.2079 -0.0876
17515THY    CM118658   8.536   7.929   6.470 -0.1492 -0.0253  0.6312
17515THY    HM118659   8.469   8.015   6.460  1.9460  1.1304  2.5113
17515THY    HM218660   8.486   7.855   6.534  0.2918 -1.5236 -1.0545
17515THY    HM318661   8.536   7.871   6.377  1.2585  0.1729  0.2891
17515THY    CA618662   8.668   8.083   6.618  0.0640  0.0168  0.0733
17515THY    HA618663   8.575   8.102   6.671  0.2481  0.1205  0.7022
17516THY      O18664   5.451   5.632   3.577  0.1658 -0.5859 -0.0551
17516THY     HO18665   5.501   5.574   3.638 -0.0076  0.1231  0.5294
17516THY    CA118666   5.539   5.703   3.512  0.3391  0.7200  0.8532
17516THY    CA218667   5.501   5.785   3.405  0.1197 -0.2999 -1.0269
17516THY    CP118668   5.351   5.797   3.365 -0.4326 -0.2848  0.4029
17516THY    HP118669   5.291   5.766   3.451 -0.2236 -0.5994 -0.9829
17516THY    CP218670   5.320   5.717   3.243 -0.1914 -0.1957  0.0446
17516THY    HP218671   5.363   5.775   3.161 -0.0406  1.2296  2.0821
17516THY    HP318672   5.211   5.704   3.232  0.2888 -3.3643 -2.4123
17516THY    HP418673   5.363   5.617   3.242 -0.9062 -0.0273 -0.2749
17516THY    CP318674   5.320   5.945   3.342  0.1886 -0.2432  0.2108
17516THY    HP518675   5.346   6.000   3.433 -1.2122  1.1227 -1.2745
17516THY    HP618676   5.210   5.944   3.334  0.2513 -1.4411  0.9808
17516THY    HP718677   5.357   5.994   3.251 -1.3450 -0.9532  0.1218
17516THY    CA318678   5.598   5.854   3.339 -0.5380  0.3338 -0.3642
17516THY    HA318679   5.579   5.928   3.262 -0.3335  0.4510 -0.1898
17516THY    CA418680   5.734   5.837   3.369 -0.1560  0.2931  0.4338
17516THY    HA418681   5.812   5.877   3.305  0.3074  1.1755  0.9954
17516THY    CA518682   5.774   5.747   3.478  0.2235  0.2834 -0.8659
17516THY    CM118683   5.914   5.729   3.517 -0.7767 -0.7365 -0.6808
17516THY    HM118684   5.919   5.738   3.626  1.8014 -0.7753 -0.8524
17516THY    HM218685   5.988   5.796   3.471 -0.4556  0.3519 -0.2736
17516THY    HM318686   5.952   5.629   3.491  2.1326  0.9868 -0.1310
17516THY    CA618687   5.669   5.684   3.544  0.5600  0.5791  0.3643
17516THY    HA618688   5.686   5.624   3.634  0.1640 -0.4014 -1.2803
17517THY      O18689   5.086   2.569   6.767 -0.2821 -0.6105  0.1372
17517THY     HO18690   5.009   2.572   6.827  0.8595  0.9009  1.6524
17517THY    CA118691   5.073   2.474   6.676 -0.3160  0.0642  0.1295
17517THY    CA218692   5.186   2.442   6.591 -0.4741 -0.5457 -0.2066
17517THY    CP118693   5.306   2.527   6.586  0.2032 -0.5593 -0.2496
17517THY    HP118694   5.296   2.603   6.664 -1.5677 -0.3495 -0.6395
17517THY    CP218695   5.330   2.594   6.451 -0.3281  0.1237  0.0112
17517THY    HP218696   5.317   2.519   6.373 -1.0195  0.4307 -0.1896
17517THY    HP318697   5.431   2.636   6.441 -0.7460 -3.8977  0.4023
17517THY    HP418698   5.260   2.676   6.429  0.0062 -0.9075  0.0339
17517THY    CP318699   5.432   2.446   6.631 -0.0433 -0.0496 -0.2549
17517THY    HP518700   5.418   2.391   6.724  1.7476 -1.4490 -3.3990
17517THY    HP618701   5.518   2.514   6.632  0.9896 -0.9900 -1.4750
17517THY    HP718702   5.452   2.372   6.552 -0.8367 -0.5145  0.0212
17517THY    CA318703   5.170   2.339   6.502 -0.3607  0.0239 -0.2704
17517THY    HA318704   5.251   2.306   6.437 -0.8526 -1.3792  1.2159
17517THY    CA418705   5.049   2.264   6.492  0.0637 -0.1803 -0.2263
17517THY    HA418706   5.047   2.177   6.427  1.3725  1.0782 -1.2350
17517THY    CA518707   4.941   2.300   6.568 -0.0444 -0.3853 -0.0193
17517THY    CM118708   4.818   2.209   6.568  0.1522 -0.1231 -0.6699
17517THY    HM118709   4.810   2.154   6.474 -2.7960 -0.4789  0.2077
17517THY    HM218710   4.724   2.265   6.573 -0.8058 -1.1562 -2.1063
17517THY    HM318711   4.814   2.144   6.657  0.0778 -0.2393 -0.8239
17517THY    CA618712   4.953   2.399   6.660  0.2458  0.3827 -0.0077
17517THY    HA618713   4.864   2.420   6.718 -1.6809 -2.4948  0.2970
17518THY      O18714   4.951   0.560   7.253  0.0715  0.1408 -0.7447
17518THY     HO18715   4.949   0.563   7.351  1.6973  0.1794  0.1131
17518THY    CA118716   5.059   0.487   7.240 -0.2732 -0.1673 -0.0959
17518THY    CA218717   5.084   0.418   7.118  0.1868  0.5397  0.2826
17518THY    CP118718   4.993   0.442   6.998 -0.0034  0.3968  0.8431
17518THY    HP118719   4.927   0.530   7.001 -0.8107 -1.4028  0.3442
17518THY    CP218720   4.909   0.321   6.969  0.6292 -0.2472 -0.2601
17518THY    HP218721   4.963   0.227   6.954  0.7326  1.8629 -0.5742
17518THY    HP318722   4.857   0.335   6.873 -0.2739  0.0148 -1.6256
17518THY    HP418723   4.827   0.293   7.036 -0.3807  0.0557  2.9783
17518THY    CP318724   5.075   0.483   6.873  0.1174 -0.3052  0.3549
17518THY    HP518725   5.124   0.580   6.888 -2.0527  0.1884  1.4345
17518THY    HP618726   5.010   0.493   6.785 -0.3317  0.1283  1.4147
17518THY    HP718727   5.153   0.412   6.846  0.6209 -0.3272  0.9052
17518THY    CA318728   5.208   0.345   7.111 -0.2161  0.0357 -0.3594
17518THY    HA318729   5.240   0.296   7.019 -1.5447 -0.5031 -0.2417
17518THY    CA418730   5.303   0.362   7.209  0.5520  0.3500 -0.4406
17518THY    HA418731   5.403   0.320   7.211  1.0749  1.2640  0.7917
17518THY    CA518732   5.258   0.413   7.332 -0.5017  0.0386 -0.4490
17518THY    CM118733   5.354   0.423   7.437 -0.1262 -0.6497  0.5380
17518THY    HM118734   5.378   0.524   7.473 -0.2333  0.1703  0.2833
17518THY    HM218735   5.442   0.361   7.420 -0.4737  0.0699 -0.1783
17518THY    HM318736   5.309   0.373   7.524  1.3045  0.6930  1.4761
17518THY    CA618737   5.137   0.482   7.350  0.8510 -0.6346 -0.0868
17518THY    HA618738   5.122   0.539   7.441 -2.7881 -1.3183  0.3146
17519THY      O18739   1.071   6.728   5.750  0.1137  0.3591 -0.6387
17519THY     HO18740   1.162   6.758   5.734  1.6379  5.2224 -1.7198
17519THY    CA118741   1.021   6.813   5.843  0.4857 -0.6839 -0.0080
17519THY    CA218742   0.887   6.809   5.892  0.4995  0.1864  0.4316
17519THY    CP118743   0.799   6.696   5.846  0.4200  0.1682 -0.0532
17519THY    HP118744   0.860   6.607   5.829  0.8705 -0.7019  0.4184
17519THY    CP218745   0.734   6.736   5.709  0.3660 -0.0402 -0.4259
17519THY    HP218746   0.807   6.760   5.630 -0.6582 -1.6172 -2.2271
17519THY    HP318747   0.673   6.827   5.713 -1.0326  1.3803 -1.3878
17519THY    HP418748   0.682   6.654   5.659  0.7633 -1.6013  0.2314
17519THY    CP318749   0.676   6.662   5.936 -0.2739 -0.1648 -0.3957
17519THY    HP518750   0.640   6.562   5.908  3.0857  2.0218 -2.4246
17519THY    HP618751   0.596   6.736   5.934 -0.7209 -1.3510 -0.8782
17519THY    HP718752   0.713   6.657   6.039 -0.4145 -0.1720 -3.7649
17519THY    CA318753   0.842   6.906   5.986  0.0758  0.0524  1.1031
17519THY    HA318754   0.744   6.901   6.031  0.7507  1.5575  0.6803
17519THY    CA418755   0.934   7.009   6.018  0.1173 -0.8297 -0.0893
17519THY    HA418756   0.896   7.087   6.083  0.2516 -1.7209  0.7417
17519THY    CA518757   1.066   7.017   5.964 -0.4377 -0.1246  0.3614
17519THY    CM118758   1.160   7.135   5.986  0.1462 -0.0785 -0.0858
17519THY    HM118759   1.262   7.103   5.964  0.8780 -0.8785  2.5154
17519THY    HM218760   1.169   7.161   6.092  1.0719  0.6219 -2.9172
17519THY    HM318761   1.141   7.212   5.910 -0.7610 -1.7760 -1.9118
17519THY    CA618762   1.102   6.916   5.876 -0.1205  0.1808 -0.1235
17519THY    HA618763   1.201   6.933   5.833  0.1600  1.1063  0.7097
17520THY      O18764   0.692   3.406   2.988  0.1838  0.0619 -0.1396
17520THY     HO18765   0.733   3.418   2.900 -1.4406 -0.3804  4.6822
17520THY    CA118766   0.740   3.516   3.060 -0.6774  0.3336 -0.0102
17520THY    CA218767   0.658   3.597   3.138  0.0419  0.6181 -0.9697
17520THY    CP118768   0.512   3.562   3.158 -0.1053 -0.4769 -0.2385
17520THY    HP118769   0.491   3.455   3.145  0.9386 -1.2324 -0.3604
17520THY    CP218770   0.434   3.645   3.054 -0.1362 -0.6005 -0.5520
17520THY    HP218771   0.417   3.747   3.089  0.5683 -3.3959  0.6242
17520THY    HP318772   0.339   3.594   3.031  0.2444 -0.1799 -1.4657
17520THY    HP418773   0.489   3.661   2.961  2.9004  1.5360  3.1579
17520THY    CP318774   0.455   3.596   3.298  0.3896 -0.3372  0.5780
17520THY    HP518775   0.428   3.702   3.307 -1.3600 -1.3878  0.2632
17520THY    HP618776   0.535   3.565   3.366 -0.4955  1.4281  1.9746
17520THY    HP718777   0.364   3.542   3.323  0.4760 -0.0979  0.5431
17520THY    CA318778   0.711   3.713   3.198 -0.3026 -0.1816 -0.7575
17520THY    HA318779   0.639   3.783   3.237 -3.7641 -1.9099 -3.0826
17520THY    CA418780   0.848   3.737   3.193  0.1024  0.0761  0.2412
17520THY    HA418781   0.889   3.828   3.237  0.1743  1.2671 -0.3403
17520THY    CA518782   0.931   3.648   3.125  0.0116  0.1665 -0.0167
17520THY    CM118783   1.077   3.680   3.097 -0.7627 -0.4166  0.3449
17520THY    HM118784   1.084   3.702   2.990 -1.3116 -0.5668 -0.1721
17520THY    HM218785   1.133   3.588   3.114  1.4857 -3.3221  1.0457
17520THY    HM318786   1.112   3.754   3.170 -0.9308  0.0937 -0.0714
17520THY    CA618787   0.882   3.539   3.054 -0.3845  0.6356 -0.9037
17520THY    HA618788   0.951   3.472   3.006  1.0484  0.5991  0.5399
17521THY      O18789   6.256   3.870   4.721 -0.2217  0.4972 -0.5511
17521THY     HO18790   6.283   3.962   4.736  1.1563  1.7398 -1.1139
17521THY    CA118791   6.324   3.816   4.818  0.5647  0.3859 -0.9908
17521THY    CA218792   6.305   3.685   4.870 -0.4958  0.8087 -0.2865
17521THY    CP118793   6.196   3.589   4.800  0.7286 -0.4491  0.4455
17521THY    HP118794   6.180   3.589   4.692  0.3621 -0.4177 -0.8099
17521THY    CP218795   6.062   3.614   4.866  0.1980 -0.0509  0.1993
17521THY    HP218796   5.997   3.530   4.839 -1.4718 -0.5609  1.6016
17521THY    HP318797   6.025   3.717   4.854  0.1687  0.1408  0.2119
17521THY    HP418798   6.078   3.609   4.975 -0.6072  0.0229 -1.6025
17521THY    CP318799   6.235   3.444   4.830  0.2564  0.6141  0.2331
17521THY    HP518800   6.164   3.369   4.795 -0.4251 -0.7409  1.4523
17521THY    HP618801   6.256   3.430   4.937  0.9582  0.1169 -3.3898
17521THY    HP718802   6.325   3.423   4.772 -0.2094 -1.2364  2.8426
17521THY    CA318803   6.381   3.652   4.986  1.0441  0.0878  0.1881
17521THY    HA318804   6.370   3.559   5.042 -2.8698 -1.0596 -0.1987
17521THY    CA418805   6.470   3.746   5.039 -0.6533 -0.2239  0.3537
17521THY    HA418806   6.524   3.712   5.127  0.7304 -1.3138 -0.3598
17521THY    CA518807   6.490   3.874   4.987  0.0885  0.0469 -0.3594
17521THY    CM118808   6.584   3.974   5.041  0.2671  0.0554 -0.0662
17521THY    HM118809   6.537   4.049   5.106  1.4951  2.6351 -1.4023
17521THY    HM218810   6.634   4.037   4.966  1.7785  0.5286 -0.6638
17521THY    HM318811   6.660   3.925   5.102 -2.0410  2.6696 -0.6307
17521THY    CA618812   6.413   3.910   4.870 -0.7580 -0.4216 -0.2044
17521THY    HA618813   6.431   4.009   4.828 -0.5672  1.9413  0.8182
17522THY      O18814   1.717   7.850   6.902 -0.8165 -0.1367 -0.3237
17522THY     HO18815   1.739   7.888   6.989 -0.1771  0.3983 -1.8276
17522THY    CA118816   1.804   7.898   6.810  0.6319  0.4626  0.2742
17522THY    CA218817   1.840   7.833   6.696 -0.0366  0.9089  0.4223
17522THY    CP118818   1.787   7.696   6.652 -0.4490 -0.1704 -0.6390
17522THY    HP118819   1.716   7.668   6.731 -0.6079 -0.0807  0.0005
17522THY    CP218820   1.899   7.594   6.649  1.4106  0.8594 -0.7529
17522THY    HP218821   1.932   7.581   6.753 -0.5962  1.6120 -0.1907
17522THY    HP318822   1.980   7.617   6.578  0.0805 -0.1143  1.2369
17522THY    HP418823   1.859   7.499   6.610  0.8514  0.3703 -0.3228
17522THY    CP318824   1.714   7.690   6.511 -0.0627 -0.1864  0.6573
17522THY    HP518825   1.655   7.782   6.506 -1.1206  0.8388  0.0724
17522THY    HP618826   1.650   7.604   6.486  0.5955  1.0642 -0.2390
17522THY    HP718827   1.775   7.682   6.421 -2.1849 -1.5754 -1.3314
17522THY    CA318828   1.933   7.897   6.613 -0.0862  0.0474 -0.2232
17522THY    HA318829   1.963   7.845   6.522 -1.4509  0.1998 -1.3219
17522THY    CA418830   1.987   8.027   6.637 -0.3272 -0.4850  0.3782
17522THY    HA418831   2.052   8.069   6.562  0.6656 -0.5793 -1.2320
17522THY    CA518832   1.938   8.092   6.745 -0.3368  1.0669  0.6214
17522THY    CM118833   1.981   8.225   6.784 -0.0971  0.7197 -0.3214
17522THY    HM118834   2.040   8.226   6.876 -1.7387  1.9623 -3.6425
17522THY    HM218835   1.906   8.305   6.789 -1.2993 -1.3612 -1.2380
17522THY    HM318836   2.043   8.258   6.700  1.6879  1.1481 -2.3832
17522THY    CA618837   1.856   8.024   6.830 -0.6022  0.1560  0.1894
17522THY    HA618838   1.833   8.076   6.922  0.8897  0.5172  0.2363
17523THY      O18839   5.258   6.423   2.433 -0.8435  0.0329  0.6203
17523THY     HO18840   5.336   6.464   2.394 -0.7570 -0.0151  0.4126
17523THY    CA118841   5.220   6.328   2.339 -0.0444 -0.1698  0.9701
17523THY    CA218842   5.116   6.231   2.364 -0.3248 -0.0190 -0.9496
17523THY    CP118843   5.044   6.246   2.500 -0.7423 -1.0827  0.3629
17523THY    HP118844   5.089   6.313   2.573 -0.1910 -2.1343  1.1796
17523THY    CP218845   5.031   6.107   2.576 -0.0704  0.7909 -0.8086
17523THY    HP218846   4.971   6.123   2.666  2.0762  1.7282  3.7478
17523THY    HP318847   5.126   6.076   2.621 -0.6688  1.3506 -1.8834
17523THY    HP418848   4.992   6.024   2.515 -0.4625  0.7037 -0.5641
17523THY    CP318849   4.903   6.301   2.461 -0.5501  0.0659  0.0760
17523THY    HP518850   4.916   6.404   2.423  2.2101  1.4988  0.3524
17523THY    HP618851   4.841   6.298   2.551  0.0514  0.5091  0.6423
17523THY    HP718852   4.865   6.235   2.382 -0.0136  1.7501 -2.3602
17523THY    CA318853   5.084   6.138   2.265 -0.7468  0.5656 -0.1082
17523THY    HA318854   5.001   6.069   2.270 -1.6465 -2.2311  0.6342
17523THY    CA418855   5.151   6.152   2.145  0.5130 -0.0706 -0.2657
17523THY    HA418856   5.125   6.078   2.069  2.2058  0.1433 -1.1471
17523THY    CA518857   5.264   6.237   2.125 -0.7679 -0.2802 -0.0916
17523THY    CM118858   5.345   6.232   1.998 -0.5274 -0.6853  0.2259
17523THY    HM118859   5.310   6.300   1.920  0.6776  0.7298  2.6291
17523THY    HM218860   5.337   6.130   1.961 -1.8561 -0.6438  0.2881
17523THY    HM318861   5.450   6.252   2.021  0.1284 -1.6453 -1.8606
17523THY    CA618862   5.298   6.327   2.223  0.3790  0.3072 -0.3832
17523THY    HA618863   5.381   6.395   2.209 -0.5464 -0.8877  0.5537
17524THY      O18864   8.725   4.385   3.615 -0.3084 -0.6319  0.3423
17524THY     HO18865   8.733   4.323   3.690 -0.9215 -0.1653  0.8211
17524THY    CA118866   8.839   4.376   3.543  0.1190  0.0112 -0.3076
17524THY    CA218867   8.857   4.458   3.435  0.0658 -0.0388 -0.1907
17524THY    CP118868   8.752   4.556   3.386  0.0678 -0.7548 -0.9969
17524THY    HP118869   8.668   4.562   3.457  0.7461  0.0726 -1.1430
17524THY    CP218870   8.703   4.513   3.245 -0.0287  0.8223  0.0208
17524THY    HP218871   8.784   4.491   3.175 -0.5928 -0.2316  1.2180
17524THY    HP318872   8.634   4.587   3.203 -1.6456  0.0753 -1.8159
17524THY    HP418873   8.646   4.421   3.263 -3.1715  1.4435  1.9518
17524THY    CP318874   8.807   4.699   3.386  0.4439  0.6767 -0.6287
17524THY    HP518875   8.863   4.724   3.295 -0.1967  0.6948  0.9920
17524THY    HP618876   8.874   4.712   3.471  1.5736 -0.5389  2.2005
17524THY    HP718877   8.733   4.780   3.393  3.6132 -0.9247  2.6765
17524THY    CA318878   8.982   4.450   3.364 -0.7326  0.2334  0.1140
17524THY    HA318879   9.000   4.517   3.281 -0.1599  0.1189 -0.1757
17524THY    CA418880   9.080   4.356   3.406  0.5378  0.9142 -0.5734
17524THY    HA418881   9.167   4.346   3.342  2.4489  2.9731  1.6042
17524THY    CA518882   9.059   4.272   3.516  0.3343 -0.8563 -0.2762
17524THY    CM118883   9.160   4.162   3.558 -0.0698 -0.3837  0.6500
17524THY    HM118884   9.245   4.171   3.489 -0.0546 -0.3284  0.9269
17524THY    HM218885   9.116   4.063   3.539  0.3045 -1.8316  0.7378
17524THY    HM318886   9.190   4.156   3.663  1.0025 -0.7697 -2.0742
17524THY    CA618887   8.939   4.290   3.583  0.6038  0.3466  0.0569
17524THY    HA618888   8.914   4.226   3.667  0.5063  0.4757  0.2613
17525THY      O18889   6.722   2.322   6.127 -0.1050  0.4836 -0.2594
17525THY     HO18890   6.787   2.253   6.107 -0.9654 -1.1427 -0.6387
17525THY    CA118891   6.612   2.253   6.101 -0.7936 -0.1999  0.1313
17525THY    CA218892   6.492   2.301   6.046  0.2162  0.1574  0.2615
17525THY    CP118893   6.476   2.449   6.013 -0.1672  0.0103 -1.0466
17525THY    HP118894   6.574   2.496   5.994 -1.9185 -0.0811  2.9456
17525THY    CP218895   6.407   2.517   6.140 -0.3557  0.9337  0.5866
17525THY    HP218896   6.403   2.626   6.127  1.8691 -1.4472  0.4813
17525THY    HP318897   6.453   2.489   6.235 -0.2622  0.7728  0.1901
17525THY    HP418898   6.300   2.495   6.139 -0.5601  0.3665  1.5774
17525THY    CP318899   6.402   2.481   5.877  0.2679 -0.4228  0.2517
17525THY    HP518900   6.428   2.581   5.839  2.8635 -1.1425 -0.6044
17525THY    HP618901   6.294   2.463   5.868 -0.0197  0.9501  1.1339
17525THY    HP718902   6.444   2.413   5.802  0.3706 -0.1575  0.0209
17525THY    CA318903   6.388   2.209   6.024 -0.0383  0.6834 -0.3876
17525THY    HA318904   6.293   2.242   5.983  0.2848  1.2793  1.4124
17525THY    CA418905   6.407   2.072   6.054 -0.1898  0.6330 -0.3616
17525THY    HA418906   6.325   2.008   6.021 -1.7087  0.3467  1.6199
17525THY    CA518907   6.524   2.029   6.112 -0.3436  1.0643  1.1567
17525THY    CM118908   6.532   1.878   6.138  0.2944 -0.2478 -0.1062
17525THY    HM118909   6.444   1.825   6.101  1.4706 -0.1740 -2.1847
17525THY    HM218910   6.539   1.852   6.244 -1.2946 -0.5641 -2.0425
17525THY    HM318911   6.619   1.825   6.098  1.2010  1.9302 -0.3697
17525THY    CA618912   6.628   2.117   6.136 -0.9754  0.0448  0.0115
17525THY    HA618913   6.718   2.077   6.181 -1.1420 -0.4207 -0.8963
17526THY      O18914   0.841   8.274   5.914  0.0547 -0.2622  0.9605
17526THY     HO18915   0.750   8.245   5.931  0.9889  1.0086 -1.5201
17526THY    CA118916   0.908   8.281   6.032  0.1438 -0.2013  0.1074
17526THY    CA218917   1.027   8.359   6.036 -0.2293  0.3423  0.0227
17526THY    CP118918   1.082   8.432   5.917 -0.4642 -0.3640 -0.8570
17526THY    HP118919   1.018   8.422   5.828  2.7192 -3.0536  0.5316
17526THY    CP218920   1.234   8.393   5.891 -0.2959 -0.1739 -0.4549
17526THY    HP218921   1.255   8.286   5.884 -0.5500 -4.9975 -0.3839
17526THY    HP318922   1.300   8.441   5.965  1.2275 -2.3455  1.0031
17526THY    HP418923   1.253   8.438   5.793 -1.4407 -0.4463 -0.5347
17526THY    CP318924   1.078   8.582   5.942  0.1176  0.3292  0.1879
17526THY    HP518925   1.089   8.628   5.843 -2.4366 -2.1458 -3.9047
17526THY    HP618926   1.159   8.614   6.009  0.6106 -0.1743  0.0031
17526THY    HP718927   0.983   8.623   5.980  0.1869  0.4587  0.2333
17526THY    CA318928   1.092   8.362   6.165  0.4912  0.2014 -0.3572
17526THY    HA318929   1.185   8.417   6.182 -1.3391  2.9769  2.1966
17526THY    CA418930   1.040   8.291   6.271 -0.0192  0.0965  0.2305
17526THY    HA418931   1.086   8.283   6.369  0.3654 -0.1711 -1.0086
17526THY    CA518932   0.923   8.214   6.258  0.7315  0.1245 -0.6232
17526THY    CM118933   0.882   8.109   6.357  0.0071 -0.4101 -0.3419
17526THY    HM118934   0.782   8.140   6.390  0.8114  1.4545  0.4253
17526THY    HM218935   0.941   8.131   6.447 -0.8319  0.1960 -0.5346
17526THY    HM318936   0.893   8.008   6.317  0.4023 -0.4849 -0.2725
17526THY    CA618937   0.850   8.221   6.139  0.4833 -0.6626 -0.3785
17526THY    HA618938   0.759   8.163   6.128 -0.4650 -1.4877  1.1955
17527THY      O18939   6.890   2.202   7.039 -0.1036 -1.0213  0.0754
17527THY     HO18940   6.905   2.267   7.110  1.9087  0.0074 -1.3932
17527THY    CA118941   6.755   2.197   7.024 -0.5628  0.5587  0.5655
17527THY    CA218942   6.683   2.080   7.048  0.2384 -0.5630  0.7458
17527THY    CP118943   6.755   1.944   7.094  0.5820  0.8657 -0.7761
17527THY    HP118944   6.857   1.980   7.115  0.1589  0.0446  0.9636
17527THY    CP218945   6.741   1.838   6.973  0.6774 -0.0826 -0.1809
17527THY    HP218946   6.745   1.887   6.875 -1.6077  0.6639  1.6465
17527THY    HP318947   6.648   1.782   6.986  0.2347 -2.8066 -0.1841
17527THY    HP418948   6.822   1.763   6.977 -0.2730  1.7387 -1.1804
17527THY    CP318949   6.720   1.894   7.235 -0.1675  0.4240  0.3193
17527THY    HP518950   6.613   1.889   7.258  0.1527  2.4950  1.5066
17527THY    HP618951   6.747   1.974   7.306 -1.6830  1.2436  0.1537
17527THY    HP718952   6.764   1.804   7.280  1.0275  1.2473  1.2817
17527THY    CA318953   6.544   2.085   7.023  0.6469  0.3819  0.2264
17527THY    HA318954   6.492   1.991   7.040  0.2996 -0.1532  0.3229
17527THY    CA418955   6.485   2.208   6.998 -0.8008 -0.1103 -0.3503
17527THY    HA418956   6.377   2.213   7.000 -0.7493  0.2120  0.9939
17527THY    CA518957   6.558   2.324   6.986  0.6457  0.2069  0.1314
17527THY    CM118958   6.497   2.463   6.960  0.5834 -0.0096 -0.1894
17527THY    HM118959   6.387   2.458   6.956  0.3093 -2.7999  3.5752
17527THY    HM218960   6.523   2.484   6.855 -0.0760 -1.0768 -3.8569
17527THY    HM318961   6.529   2.547   7.022 -1.5244  0.8163  0.0791
17527THY    CA618962   6.696   2.322   6.990  0.4117 -0.3804  0.2577
17527THY    HA618963   6.753   2.414   6.983  0.7910  1.0134  0.1469
17528THY      O18964   3.311   2.435   1.687 -0.3039 -0.1885  0.5025
17528THY     HO18965   3.330   2.522   1.649  1.0301  0.1749  0.3934
17528THY    CA118966   3.379   2.428   1.803  0.5305 -0.1617 -0.5309
17528THY    CA218967   3.378   2.312   1.884 -0.1668 -0.4489 -0.3775
17528THY    CP118968   3.315   2.179   1.837 -0.0915  0.4643  0.6121
17528THY    HP118969   3.233   2.207   1.771  0.2849  0.5713  2.0099
17528THY    CP218970   3.267   2.094   1.955 -0.8760 -0.2851 -0.3164
17528THY    HP218971   3.184   2.028   1.923 -0.8068 -1.8313  0.2957
17528THY    HP318972   3.214   2.151   2.032  0.0569  0.8276 -0.9285
17528THY    HP418973   3.347   2.034   2.000  0.6442 -2.5986 -0.1211
17528THY    CP318974   3.419   2.088   1.760 -0.0248 -0.2966 -0.3255
17528THY    HP518975   3.492   2.048   1.832 -0.0604  0.1120  0.3377
17528THY    HP618976   3.468   2.139   1.676 -0.6005 -0.1853  0.4277
17528THY    HP718977   3.376   1.994   1.725  0.1701 -0.8869 -0.1988
17528THY    CA318978   3.439   2.326   2.014 -0.8575  0.1949  0.0663
17528THY    HA318979   3.454   2.246   2.086 -0.1395 -1.0418 -0.9546
17528THY    CA418980   3.503   2.447   2.046 -0.0418  0.4379 -0.1108
17528THY    HA418981   3.547   2.456   2.145 -1.0408  1.0943 -1.9765
17528THY    CA518982   3.501   2.557   1.961  0.9363 -0.7592  0.9588
17528THY    CM118983   3.549   2.683   2.011 -0.5138 -0.5545 -0.3514
17528THY    HM118984   3.588   2.741   1.926 -2.6433 -1.4882 -0.2133
17528THY    HM218985   3.628   2.670   2.087 -1.3341  0.3281 -0.2774
17528THY    HM318986   3.458   2.733   2.045 -1.4649 -4.2229  0.6617
17528THY    CA618987   3.436   2.546   1.840  0.2829  0.5896  0.3860
17528THY    HA618988   3.441   2.635   1.779  0.9145  1.6817  1.1244
17529THY      O18989   7.753   4.126   7.521  0.2116 -0.0110 -0.0316
17529THY     HO18990   7.833   4.075   7.543 -1.0835 -0.3747 -2.3491
17529THY    CA118991   7.740   4.248   7.583  0.3174 -0.1482  0.0949
17529THY    CA218992   7.622   4.317   7.574 -0.9329  1.2781 -0.6389
17529THY    CP118993   7.529   4.278   7.462  0.4383  0.9502 -0.2966
17529THY    HP118994   7.537   4.172   7.437 -0.0221 -0.6508  0.0152
17529THY    CP218995   7.562   4.356   7.332 -0.1765 -0.1039 -0.0907
17529THY    HP218996   7.501   4.308   7.254 -1.0042  0.1480  0.5385
17529THY    HP318997   7.667   4.344   7.300  0.5900  1.3519  2.1990
17529THY    HP418998   7.539   4.461   7.349  3.5735  2.7159  0.4854
17529THY    CP318999   7.381   4.290   7.503  0.2453  0.9907 -0.4340
17529THY    HP519000   7.362   4.233   7.595 -0.1884  0.2959 -1.4271
17529THY    HP619001   7.321   4.256   7.418  3.1987 -1.8782  0.9633
17529THY    HP719002   7.357   4.395   7.527 -1.7701  2.4842 -1.1634
17529THY    CA319003   7.606   4.437   7.640 -0.4241  0.6238 -0.1017
17529THY    HA319004   7.518   4.501   7.636  0.6053  1.6755  1.4626
17529THY    CA419005   7.701   4.484   7.729 -0.1148  0.1649 -0.0236
17529THY    HA419006   7.678   4.577   7.781  0.0798  2.1180 -1.0149
17529THY    CA519007   7.819   4.403   7.745  0.3511  0.0711 -0.6755
17529THY    CM119008   7.914   4.431   7.854  0.2740 -0.3546  0.7369
17529THY    HM119009   7.928   4.540   7.849  0.8101  0.8186  0.7373
17529THY    HM219010   8.010   4.386   7.825  0.2280 -0.4162  0.6786
17529THY    HM319011   7.883   4.402   7.955  1.9414 -0.1657 -0.5746
17529THY    CA619012   7.836   4.285   7.675  0.3343  0.2290  0.4224
17529THY    HA619013   7.928   4.228   7.687 -0.1877  1.9598 -0.1269
17530THY      O19014   2.525   3.650   4.845 -0.5741  0.4388 -0.4037
17530THY     HO19015   2.494   3.733   4.805  0.7310 -0.5694 -0.3657
17530THY    CA119016   2.422   3.604   4.921  0.3725 -0.1633  0.1210
17530THY    CA219017   2.436   3.544   5.051 -0.0273  0.3757  0.1370
17530THY    CP119018   2.570   3.535   5.119 -0.1939  0.0189 -0.0109
17530THY    HP119019   2.645   3.547   5.041  0.9229  0.8924 -1.0672
17530THY    CP219020   2.592   3.397   5.185 -0.0090  0.5535  0.5595
17530THY    HP219021   2.596   3.320   5.106  1.5178 -1.0278  2.1573
17530THY    HP319022   2.512   3.383   5.259 -0.2138  1.0359  3.5177
17530THY    HP419023   2.687   3.397   5.239 -0.4914  1.4177  0.7895
17530THY    CP319024   2.602   3.641   5.222 -0.4468 -0.0932 -0.1333
17530THY    HP519025   2.617   3.736   5.171  0.5120 -1.9695 -1.2485
17530THY    HP619026   2.683   3.628   5.294 -1.7466  1.5208  0.2622
17530THY    HP719027   2.520   3.661   5.293  0.9236  1.2062  1.0963
17530THY    CA319028   2.318   3.505   5.120  0.0877 -0.5909  0.4956
17530THY    HA319029   2.333   3.481   5.225 -0.8266 -0.8661 -1.5329
17530THY    CA419030   2.191   3.525   5.060  0.1671 -0.6394  0.2330
17530THY    HA419031   2.114   3.502   5.133  1.7148  1.2741  0.7538
17530THY    CA519032   2.179   3.567   4.928  0.8123 -0.2758 -0.7348
17530THY    CM119033   2.053   3.600   4.852  0.4209 -0.7433  0.1425
17530THY    HM119034   2.062   3.633   4.748 -2.8409 -0.9680  0.6891
17530THY    HM219035   1.998   3.675   4.911 -0.0526 -1.3597  0.2859
17530THY    HM319036   2.000   3.505   4.838 -3.0440 -2.3342  2.1041
17530THY    CA619037   2.295   3.623   4.865  0.1380 -0.7815  0.2196
17530THY    HA619038   2.285   3.659   4.763 -2.0133 -0.6246  0.2245
17531THY      O19039   7.321   9.021   4.654  0.5579  0.0632  0.3315
17531THY     HO19040   7.387   9.080   4.694 -1.1444  0.2974  2.1848
17531THY    CA119041   7.378   8.909   4.602 -0.2604 -0.8978 -0.0722
17531THY    CA219042   7.325   8.842   4.489 -0.5736 -0.3526 -0.0486
17531THY    CP119043   7.196   8.896   4.422 -0.3180 -0.5333  0.7009
17531THY    HP119044   7.189   9.003   4.446  1.0595 -0.1079  0.7110
17531THY    CP219045   7.070   8.820   4.480 -0.1066  0.0902 -0.2066
17531THY    HP219046   7.050   8.849   4.583 -1.6128 -0.3466  0.3862
17531THY    HP319047   7.084   8.711   4.474  0.5809 -1.7823 -0.0616
17531THY    HP419048   6.980   8.851   4.426  0.3306  0.7203  2.3428
17531THY    CP319049   7.191   8.892   4.265 -0.0912  0.0562  0.0168
17531THY    HP519050   7.287   8.940   4.244  1.5312  2.0045 -2.1559
17531THY    HP619051   7.101   8.939   4.224 -1.3129  2.0833 -0.3981
17531THY    HP719052   7.208   8.794   4.218  0.1321  0.9626 -0.3984
17531THY    CA319053   7.390   8.717   4.457  0.7677  0.6592 -0.3728
17531THY    HA319054   7.358   8.659   4.372 -0.3504  1.8488 -1.5883
17531THY    CA419055   7.503   8.679   4.528  0.0685 -0.1065 -0.9964
17531THY    HA419056   7.562   8.593   4.499  2.1451  1.6630 -0.2575
17531THY    CA519057   7.554   8.759   4.630  0.1093 -0.6023  0.7822
17531THY    CM119058   7.681   8.708   4.693 -0.5959  0.4127 -0.2772
17531THY    HM119059   7.725   8.620   4.645 -0.0378  0.9753 -0.3142
17531THY    HM219060   7.676   8.689   4.801  0.1708  0.4099 -0.5243
17531THY    HM319061   7.758   8.784   4.673  1.0392  0.6485 -1.8020
17531THY    CA619062   7.494   8.873   4.673 -0.8113 -0.0715 -0.4205
17531THY    HA619063   7.526   8.928   4.761  0.7468 -0.7162 -0.2656
17532THY      O19064   5.770   2.365   5.043 -0.0559 -0.6149 -0.2513
17532THY     HO19065   5.720   2.446   5.062  0.8761 -0.8440  0.3858
17532THY    CA119066   5.891   2.380   5.102  0.2772 -0.2524 -0.7001
17532THY    CA219067   5.986   2.280   5.122  0.0358  0.0001  0.0329
17532THY    CP119068   5.953   2.137   5.079  0.8704 -0.8845  0.7287
17532THY    HP119069   5.865   2.128   5.014 -0.1477  0.7178 -2.8007
17532THY    CP219070   5.929   2.047   5.200  0.0503  0.2125 -0.5964
17532THY    HP219071   5.888   1.951   5.168  0.3201 -1.3995 -0.1908
17532THY    HP319072   5.854   2.087   5.270  0.2777 -0.2530  0.7108
17532THY    HP419073   6.016   2.020   5.261  0.1993 -0.9528 -2.9950
17532THY    CP319074   6.069   2.080   5.000 -0.3373  0.3460 -0.1027
17532THY    HP519075   6.082   2.128   4.902  0.0346  0.6411  0.3944
17532THY    HP619076   6.045   1.975   4.977 -1.3142  2.2905 -0.3425
17532THY    HP719077   6.165   2.075   5.052 -0.1716  0.1795  1.1973
17532THY    CA319078   6.112   2.302   5.188  0.3410  0.0966 -0.2427
17532THY    HA319079   6.177   2.220   5.215  0.9640  1.7069  0.7449
17532THY    CA419080   6.132   2.439   5.220  0.8555 -0.1814 -0.5361
17532THY    HA419081   6.227   2.477   5.256  1.4937  0.6415 -2.7490
17532THY    CA519082   6.035   2.540   5.196  0.2335  0.5858  0.9768
17532THY    CM119083   6.064   2.685   5.239  0.2008 -0.3287 -0.8632
17532THY    HM119084   6.012   2.705   5.333 -1.7327 -1.0006 -2.3485
17532THY    HM219085   6.020   2.744   5.158 -1.6670  0.4264 -1.1447
17532THY    HM319086   6.171   2.696   5.256  0.5271 -0.3319 -3.3418
17532THY    CA619087   5.920   2.509   5.131 -0.2119  0.1666 -0.2512
17532THY    HA619088   5.859   2.597   5.112 -1.3100  3.2918 -0.2133
17533THY      O19089   6.798   6.085   7.449 -0.9009  0.3546  0.3208
17533THY     HO19090   6.834   6.039   7.526 -1.3722  0.3691 -0.0383
17533THY    CA119091   6.913   6.135   7.383 -0.3730 -1.0678 -0.0183
17533THY    CA219092   6.923   6.275   7.338  0.4723 -0.0102  0.8116
17533THY    CP119093   6.799   6.362   7.339  0.1594 -0.0335 -0.4452
17533THY    HP119094   6.713   6.306   7.376  0.6987  1.1317 -0.5323
17533THY    CP219095   6.755   6.419   7.200  0.2986  0.1785  0.0738
17533THY    HP219096   6.659   6.472   7.208  2.0703 -1.5392  3.9184
17533THY    HP319097   6.762   6.339   7.125 -0.8992  0.9771 -0.8193
17533THY    HP419098   6.812   6.504   7.162 -1.8698 -1.9523  0.7104
17533THY    CP319099   6.802   6.471   7.447  0.4749  0.0530  0.3993
17533THY    HP519100   6.703   6.515   7.462  0.1724 -2.4414  0.7047
17533THY    HP619101   6.879   6.545   7.421  1.7648  2.8021  0.1309
17533THY    HP719102   6.834   6.422   7.539  1.8406  0.2080  1.5105
17533THY    CA319103   7.051   6.312   7.283  0.5075  0.3822 -0.1997
17533THY    HA319104   7.067   6.412   7.243  1.3033  1.6566  0.2092
17533THY    CA419105   7.156   6.225   7.280  0.3409  0.7347 -0.8973
17533THY    HA419106   7.247   6.271   7.242 -0.7359  0.6888  1.3620
17533THY    CA519107   7.149   6.101   7.335 -0.3323  0.7796  0.4133
17533THY    CM119108   7.273   6.013   7.344  0.4840  0.4441 -0.1385
17533THY    HM119109   7.362   6.065   7.380  1.2388  1.0587 -1.7726
17533THY    HM219110   7.295   5.973   7.244 -1.4169 -0.3880  0.7678
17533THY    HM319111   7.251   5.926   7.408 -0.0365  1.2189  0.5429
17533THY    CA619112   7.029   6.055   7.391 -0.9744 -0.2805  0.0592
17533THY    HA619113   7.024   5.957   7.437  0.3027 -1.2054 -0.4737
17534THY      O19114   5.704   8.926   6.223  0.3368 -0.0001  0.2011
17534THY     HO19115   5.639   8.924   6.296 -1.4709 -1.5075  0.5707
17534THY    CA119116   5.717   9.058   6.193 -0.0560 -0.0296  0.0582
17534THY    CA219117   5.811   9.105   6.103 -0.4062 -0.6599 -0.1948
17534THY    CP119118   5.895   9.007   6.023  0.4403 -0.1130  0.0520
17534THY    HP119119   5.888   8.910   6.074 -1.8663  0.2601  0.3605
17534THY    CP219120   6.043   9.040   6.015 -0.2599  0.3434  0.3036
17534THY    HP219121   6.090   9.065   6.111  0.0743  0.5107 -0.9217
17534THY    HP319122   6.055   9.130   5.952  2.1270  2.8855  1.9353
17534THY    HP419123   6.099   8.955   5.973  2.1805  0.2247  1.8618
17534THY    CP319124   5.845   8.985   5.886  0.0811 -0.2573  0.6035
17534THY    HP519125   5.736   8.995   5.886 -0.0015  0.9220 -0.1150
17534THY    HP619126   5.873   8.886   5.848 -1.0918  3.1258 -1.1780
17534THY    HP719127   5.875   9.068   5.821 -1.1797  0.1776  1.4373
17534THY    CA319128   5.813   9.238   6.067 -0.1937  1.0810 -0.1933
17534THY    HA319129   5.868   9.273   5.979 -0.3027  1.2256  0.3604
17534THY    CA419130   5.733   9.326   6.133 -0.4172  0.2263 -0.9984
17534THY    HA419131   5.726   9.432   6.112  0.8172  0.5587 -0.8417
17534THY    CA519132   5.656   9.286   6.237  1.0716  0.4073  0.1085
17534THY    CM119133   5.565   9.371   6.314 -0.7816  0.6246  0.4125
17534THY    HM119134   5.501   9.425   6.243  3.3762 -3.2086  0.9113
17534THY    HM219135   5.626   9.450   6.357  0.4936  0.9802 -0.7250
17534THY    HM319136   5.494   9.324   6.383 -1.7780 -0.2779  0.5235
17534THY    CA619137   5.648   9.150   6.264 -0.3341 -0.8484 -0.2840
17534THY    HA619138   5.589   9.121   6.351 -0.4024 -1.0222 -0.6640
17535THY      O19139   5.888   1.479   2.520  0.7698 -0.3315 -0.5084
17535THY     HO19140   5.945   1.419   2.467  1.1665  0.2901 -0.6891
17535THY    CA119141   5.761   1.453   2.494 -0.1379 -0.5422 -0.4638
17535THY    CA219142   5.661   1.517   2.558 -0.9577 -0.0958 -0.1452
17535THY    CP119143   5.701   1.627   2.660  0.2578  0.3332  0.5000
17535THY    HP119144   5.789   1.587   2.711  0.3494 -0.3083 -0.1455
17535THY    CP219145   5.597   1.642   2.774 -0.6610 -0.3521 -0.2159
17535THY    HP219146   5.576   1.542   2.812  0.5774 -1.0557 -0.7606
17535THY    HP319147   5.511   1.694   2.729  0.0428  0.4751  1.7486
17535THY    HP419148   5.631   1.711   2.852 -0.0260 -1.4351  0.7338
17535THY    CP319149   5.723   1.764   2.577 -0.2093  0.2055 -0.2606
17535THY    HP519150   5.754   1.846   2.643  3.0590 -1.1210 -0.2392
17535THY    HP619151   5.628   1.797   2.532 -0.3123  0.4298 -0.2540
17535THY    HP719152   5.809   1.763   2.508  0.4310  0.9983 -0.5986
17535THY    CA319153   5.527   1.493   2.511  0.1958  0.2276  0.1027
17535THY    HA319154   5.445   1.555   2.547 -0.5525  0.9998 -1.2940
17535THY    CA419155   5.508   1.404   2.405 -0.2863 -0.7445 -0.1567
17535THY    HA419156   5.409   1.377   2.372 -0.0595  0.0341 -2.1202
17535THY    CA519157   5.613   1.328   2.359  0.1365 -0.4083  0.5292
17535THY    CM119158   5.598   1.226   2.257  0.4420 -0.1825 -0.6620
17535THY    HM119159   5.641   1.248   2.159 -1.8938 -1.1586 -0.1168
17535THY    HM219160   5.497   1.223   2.214  0.8258 -1.3672  1.1801
17535THY    HM319161   5.626   1.128   2.298  0.1833  1.1119 -0.2220
17535THY    CA619162   5.741   1.348   2.406  0.3659  0.0241 -0.0272
17535THY    HA619163   5.820   1.284   2.367 -0.0433 -1.4042  0.3171
17536THY      O19164   1.359   3.035   3.987  0.2161 -0.1172  0.0998
17536THY     HO19165   1.287   3.095   4.014 -2.0327  1.3943 -2.9822
17536THY    CA119166   1.336   3.002   3.858 -0.0151 -0.4152 -0.0307
17536THY    CA219167   1.331   2.864   3.810 -0.6130  0.5659  0.3782
17536THY    CP119168   1.365   2.752   3.910  0.0819  0.1397  0.1256
17536THY    HP119169   1.385   2.774   4.016  0.1183  0.0894  0.3362
17536THY    CP219170   1.475   2.658   3.864  0.2906 -0.0982  0.5132
17536THY    HP219171   1.536   2.711   3.790 -0.5900  0.1782  1.9601
17536THY    HP319172   1.430   2.573   3.812  0.4934  3.7140 -2.1684
17536THY    HP419173   1.530   2.607   3.944  0.3497 -0.2889  0.2742
17536THY    CP319174   1.237   2.661   3.927 -0.2305 -0.0299 -0.2139
17536THY    HP519175   1.197   2.616   3.836  0.6332 -1.0142  0.9682
17536THY    HP619176   1.163   2.732   3.968  0.2904 -0.9484  0.8783
17536THY    HP719177   1.244   2.576   3.997 -2.8897 -1.5945 -1.8798
17536THY    CA319178   1.304   2.848   3.669  0.4583  0.0666  0.1232
17536THY    HA319179   1.289   2.747   3.631  0.7440 -0.2291  0.1918
17536THY    CA419180   1.289   2.962   3.589  0.2792  0.2778  0.2526
17536THY    HA419181   1.270   2.941   3.484 -1.5998  1.0328 -2.4243
17536THY    CA519182   1.288   3.093   3.640  0.1818  0.1857  0.2722
17536THY    CM119183   1.248   3.206   3.544  0.0309  0.5027  0.1319
17536THY    HM119184   1.140   3.206   3.526  0.1251 -0.2671  2.1080
17536THY    HM219185   1.286   3.186   3.443  0.9288  0.4712  1.8775
17536THY    HM319186   1.272   3.304   3.586  1.7354 -2.0449  0.9027
17536THY    CA619187   1.300   3.108   3.777 -1.0404 -0.5482  0.2356
17536THY    HA619188   1.294   3.206   3.823  0.0209  1.0419 -0.3908
17537THY      O19189   7.311   1.149   2.675 -0.4282  0.4468  0.1678
17537THY     HO19190   7.396   1.126   2.634 -1.3769 -3.5068  2.6751
17537THY    CA119191   7.294   1.077   2.785 -0.4627  0.7129 -0.0732
17537THY    CA219192   7.240   1.126   2.906  0.3537  0.1107  0.7596
17537THY    CP119193   7.177   1.261   2.920  0.0213 -0.6433  0.2725
17537THY    HP119194   7.226   1.325   2.846 -2.2787 -0.8275  1.9250
17537THY    CP219195   7.197   1.332   3.058  0.2317 -0.0439 -0.1313
17537THY    HP219196   7.263   1.270   3.119 -0.8152  0.2731 -0.9434
17537THY    HP319197   7.100   1.339   3.108 -1.0031 -2.1293 -1.4389
17537THY    HP419198   7.237   1.434   3.055  0.9192  0.6430 -0.3763
17537THY    CP319199   7.038   1.262   2.877 -0.1345  0.3090  0.6257
17537THY    HP519200   7.020   1.360   2.831 -1.4759  0.9770  0.7183
17537THY    HP619201   6.964   1.243   2.956 -1.1565 -0.8462 -0.3730
17537THY    HP719202   7.032   1.182   2.803  1.5636 -1.0752  1.7119
17537THY    CA319203   7.211   1.027   3.012 -0.2066 -0.0615 -0.1389
17537THY    HA319204   7.156   1.050   3.103 -0.6454 -0.4628  0.4467
17537THY    CA419205   7.257   0.889   2.996  0.4797 -1.0108 -0.9942
17537THY    HA419206   7.243   0.821   3.080 -0.0263 -1.6758 -1.7250
17537THY    CA519207   7.311   0.852   2.880 -0.2007 -0.0189  0.1538
17537THY    CM119208   7.335   0.705   2.857  0.6357  0.8872  0.0426
17537THY    HM119209   7.303   0.675   2.757  3.2678  0.1606 -0.5600
17537THY    HM219210   7.286   0.640   2.932 -0.5352 -0.9811 -1.3305
17537THY    HM319211   7.443   0.689   2.853  0.6300 -0.4811  0.2519
17537THY    CA619212   7.335   0.944   2.777 -0.0242  0.4029 -0.1869
17537THY    HA619213   7.370   0.901   2.683 -2.8357 -0.9355  0.1957
17538THY      O19214   6.736   0.801   3.471 -0.5413  0.3692  0.5161
17538THY     HO19215   6.669   0.872   3.479 -2.2864  0.5561 -1.0778
17538THY    CA119216   6.851   0.856   3.447  0.5811 -0.9841  0.1369
17538THY    CA219217   6.971   0.783   3.438  0.2051 -0.6715 -0.3764
17538THY    CP119218   6.978   0.629   3.443  0.5704  0.6763 -0.0253
17538THY    HP119219   6.879   0.590   3.469 -1.2448 -1.9703  2.3536
17538THY    CP219220   7.058   0.585   3.557 -0.1519  0.0452 -0.2622
17538THY    HP219221   7.162   0.620   3.549 -0.4559 -0.2982  0.6001
17538THY    HP319222   7.078   0.478   3.547  0.5489  2.7889 -0.4750
17538THY    HP419223   7.024   0.605   3.660  1.1415  0.5443 -0.5055
17538THY    CP319224   7.022   0.566   3.314 -0.2357 -0.0533  0.1940
17538THY    HP519225   6.998   0.459   3.323 -0.0304  1.8932  0.2809
17538THY    HP619226   7.124   0.599   3.288  0.0825 -1.5896 -1.7709
17538THY    HP719227   6.967   0.604   3.227  1.4385 -1.4543 -0.4299
17538THY    CA319228   7.093   0.857   3.412  0.5549  0.0666  0.9439
17538THY    HA319229   7.183   0.797   3.403  0.3172 -0.7631  0.7039
17538THY    CA419230   7.093   0.992   3.395  0.7979 -0.2796  0.4321
17538THY    HA419231   7.185   1.033   3.355  1.2674  0.3358  0.0016
17538THY    CA519232   6.974   1.063   3.406 -0.4269 -0.1602  0.1582
17538THY    CM119233   6.984   1.211   3.412  0.4807 -0.2167 -0.5768
17538THY    HM119234   6.900   1.276   3.438  1.4679 -1.6499  1.4061
17538THY    HM219235   7.009   1.243   3.310 -0.3585 -0.5275 -0.9132
17538THY    HM319236   7.070   1.244   3.473 -1.6061  1.6433  1.8071
17538THY    CA619237   6.853   0.999   3.443 -0.2670  0.1169  0.7151
17538THY    HA619238   6.761   1.057   3.445 -0.2236  1.4379  0.7528
17539THY      O19239   3.299   6.574   7.917  0.4797 -0.5912 -0.2007
17539THY     HO19240   3.210   6.542   7.939 -0.0944 -3.7245 -1.0476
17539THY    CA119241   3.274   6.610   7.792 -1.0861  0.3335 -0.0244
17539THY    CA219242   3.370   6.648   7.700  0.5103  0.5915  0.4319
17539THY    CP119243   3.516   6.651   7.736  1.0579 -0.3726 -0.4519
17539THY    HP119244   3.524   6.647   7.845  1.3448 -0.3686  0.1891
17539THY    CP219245   3.593   6.772   7.684  0.3844  0.3719 -0.1039
17539THY    HP219246   3.699   6.762   7.711 -0.1198  1.8219 -2.0012
17539THY    HP319247   3.562   6.858   7.745 -1.5531 -0.6089 -0.0629
17539THY    HP419248   3.589   6.783   7.575  1.6407  0.2988 -0.1738
17539THY    CP319249   3.580   6.530   7.678  0.3554  0.3007 -0.0774
17539THY    HP519250   3.684   6.512   7.706  0.4466  0.1260  0.1705
17539THY    HP619251   3.574   6.528   7.569  0.8632  0.2512  0.6010
17539THY    HP719252   3.512   6.450   7.711  2.2602 -0.0190 -1.9341
17539THY    CA319253   3.329   6.678   7.568 -0.2197 -0.1204  0.0154
17539THY    HA319254   3.404   6.691   7.490  2.5607  2.1774 -1.2597
17539THY    CA419255   3.191   6.668   7.536  0.0733  0.0527 -0.0482
17539THY    HA419256   3.157   6.683   7.434 -2.1879  0.8293  0.5465
17539THY    CA519257   3.099   6.656   7.637  0.1096  0.6944  0.0183
17539THY    CM119258   2.954   6.670   7.626 -0.6002  0.1658 -0.1363
17539THY    HM119259   2.888   6.615   7.694 -0.5972 -1.8511 -2.7831
17539THY    HM219260   2.910   6.651   7.528  1.2775 -1.3389  2.5286
17539THY    HM319261   2.932   6.777   7.636 -0.7956  1.7226 -0.2896
17539THY    CA619262   3.140   6.630   7.766  1.2287  0.1696  0.1349
17539THY    HA619263   3.060   6.616   7.839  0.7416 -0.9491 -4.1483
17540THY      O19264   1.841   3.321   6.804 -0.1527  0.3790  0.0567
17540THY     HO19265   1.900   3.246   6.821 -0.8883 -0.6356 -0.7827
17540THY    CA119266   1.735   3.287   6.884  0.4623 -0.1280 -0.0541
17540THY    CA219267   1.603   3.311   6.840  0.3845  0.1317 -0.0387
17540THY    CP119268   1.583   3.366   6.689 -0.0694  0.8513 -0.2940
17540THY    HP119269   1.675   3.352   6.632 -0.8266 -1.1026  2.0252
17540THY    CP219270   1.550   3.512   6.693  0.0239 -0.1311 -0.2841
17540THY    HP219271   1.553   3.561   6.595 -0.1098  0.7416  1.5792
17540THY    HP319272   1.619   3.575   6.751 -0.5947  0.9951 -0.6193
17540THY    HP419273   1.454   3.525   6.745  0.2651  0.1756  0.3331
17540THY    CP319274   1.476   3.293   6.611  0.0300  0.1899 -0.0901
17540THY    HP519275   1.482   3.184   6.623 -0.3372 -2.3789 -0.4570
17540THY    HP619276   1.482   3.301   6.502 -2.1933  0.0146 -0.3270
17540THY    HP719277   1.381   3.339   6.639  1.1223  1.5375  1.4894
17540THY    CA319278   1.490   3.298   6.925 -0.2444 -0.8539 -0.7335
17540THY    HA319279   1.392   3.335   6.898 -0.8100  0.1714 -1.4191
17540THY    CA419280   1.515   3.260   7.058 -0.2711  0.0709 -0.3508
17540THY    HA419281   1.431   3.250   7.127  0.5582  2.3458  4.9821
17540THY    CA519282   1.646   3.232   7.104 -0.2050  0.2288  0.3420
17540THY    CM119283   1.667   3.203   7.245  0.3713  0.2453  0.0297
17540THY    HM119284   1.675   3.295   7.306  0.4761  0.9857 -0.4605
17540THY    HM219285   1.769   3.166   7.260  1.1649 -1.8027  1.2183
17540THY    HM319286   1.585   3.140   7.281 -1.5602 -2.0312  1.0952
17540THY    CA619287   1.755   3.245   7.015  0.0233 -0.4736 -0.2553
17540THY    HA619288   1.856   3.224   7.048  0.8062 -2.6244 -0.0483
17541THY      O19289   8.075   5.990   5.924 -0.1348  0.6517  0.1891
17541THY     HO19290   8.115   6.071   5.890  0.2785 -0.7057 -0.5564
17541THY    CA119291   7.992   5.948   5.826  0.1510 -0.3218  0.3663
17541THY    CA219292   7.978   5.814   5.795 -0.1846  0.5187 -0.0141
17541THY    CP119293   8.062   5.701   5.865 -0.1006 -0.1086 -0.5823
17541THY    HP119294   8.118   5.734   5.953  1.3591 -1.5924  1.1660
17541THY    CP219295   8.169   5.655   5.762 -0.7755 -0.2695 -0.1308
17541THY    HP219296   8.203   5.553   5.781 -2.6432  1.4233 -0.5028
17541THY    HP319297   8.262   5.712   5.761  1.4615 -0.4700 -3.5432
17541THY    HP419298   8.140   5.652   5.656  0.6328 -0.7157  1.1618
17541THY    CP319299   7.972   5.580   5.889 -0.5233 -0.0577 -0.0423
17541THY    HP519300   7.948   5.514   5.805  1.7089 -0.6734 -0.1139
17541THY    HP619301   7.892   5.610   5.958  0.2687  1.2128 -0.7586
17541THY    HP719302   8.031   5.505   5.944 -1.1495 -0.6009 -0.9595
17541THY    CA319303   7.894   5.783   5.681 -0.2749 -0.4614 -0.6446
17541THY    HA319304   7.885   5.679   5.653  1.3476  0.1491 -0.9826
17541THY    CA419305   7.823   5.883   5.614  0.8130 -0.2191  0.3563
17541THY    HA419306   7.749   5.854   5.541  2.2988 -0.7639 -2.4869
17541THY    CA519307   7.840   6.016   5.656  0.1695 -0.1542 -0.3858
17541THY    CM119308   7.774   6.135   5.584 -0.0747 -0.1006 -0.2148
17541THY    HM119309   7.810   6.235   5.614  1.7484 -0.3855 -0.7498
17541THY    HM219310   7.665   6.137   5.591 -0.1181 -0.7199  1.1742
17541THY    HM319311   7.792   6.124   5.477  0.0489 -0.1682  0.5849
17541THY    CA619312   7.934   6.048   5.755  0.4793  0.0557 -0.0310
17541THY    HA619313   7.945   6.153   5.780 -3.0425 -2.7485  1.1883
17542THY      O19314   7.046   4.794   7.687 -0.1145 -0.0493 -0.0777
17542THY     HO19315   7.042   4.860   7.616  1.2274 -0.3177 -0.2531
17542THY    CA119316   7.181   4.779   7.708 -0.4192 -0.3413  0.5108
17542THY    CA219317   7.236   4.678   7.790 -0.3389 -0.3271  0.4501
17542THY    CP119318   7.142   4.562   7.834 -0.0169  0.4171  0.9671
17542THY    HP119319   7.036   4.587   7.822 -0.3908  0.0574 -0.6828
17542THY    CP219320   7.156   4.513   7.977  0.1002 -0.1803  0.6607
17542THY    HP219321   7.180   4.588   8.053  2.2905  2.1936 -2.2408
17542THY    HP319322   7.241   4.444   7.981 -0.0596 -4.1570 -0.0393
17542THY    HP419323   7.073   4.451   8.013  0.0256 -0.4067  0.6273
17542THY    CP319324   7.161   4.445   7.750 -0.7749  0.6232  0.2290
17542THY    HP519325   7.135   4.475   7.647  0.1918  0.7996  1.7697
17542THY    HP619326   7.088   4.370   7.783 -0.5389 -0.5986 -0.5800
17542THY    HP719327   7.257   4.393   7.757 -1.4715  0.5275 -1.1017
17542THY    CA319328   7.371   4.665   7.813 -0.5183  0.0580  0.2808
17542THY    HA319329   7.393   4.574   7.868 -3.9973  0.7452 -0.2823
17542THY    CA419330   7.460   4.764   7.754 -0.3015 -0.1811 -0.3130
17542THY    HA419331   7.567   4.754   7.769 -0.5174  1.0625 -0.8524
17542THY    CA519332   7.405   4.855   7.665 -0.1000  0.7002 -0.0499
17542THY    CM119333   7.499   4.932   7.573 -0.2620  0.3443  0.9947
17542THY    HM119334   7.577   4.867   7.534  0.0101  0.6213  1.1518
17542THY    HM219335   7.549   5.022   7.611 -0.0893 -1.3368  1.6470
17542THY    HM319336   7.453   4.976   7.484  1.9993 -1.4092 -0.0229
17542THY    CA619337   7.266   4.858   7.642 -0.7982  0.4803 -0.2244
17542THY    HA619338   7.235   4.923   7.561 -1.3008 -0.0250 -1.0823
17543THY      O19339   3.414   5.110   2.756  0.0785  0.1464  0.4856
17543THY     HO19340   3.497   5.108   2.705  0.2694  0.4741 -1.0501
17543THY    CA119341   3.303   5.076   2.675 -0.2415 -0.5277  0.2003
17543THY    CA219342   3.171   5.074   2.719  1.2831  0.3161  0.4868
17543THY    CP119343   3.132   5.099   2.860 -0.4242 -0.1544  0.0978
17543THY    HP119344   3.219   5.086   2.926  0.6337 -1.3278  0.9538
17543THY    CP219345   3.021   5.002   2.911  0.1535  0.0255 -0.2648
17543THY    HP219346   3.044   4.898   2.889  1.6433 -0.7330  0.2062
17543THY    HP319347   2.924   5.033   2.870 -0.5477  2.1159  0.5050
17543THY    HP419348   3.011   5.013   3.020  1.3833  0.1642 -0.4570
17543THY    CP319349   3.092   5.242   2.886 -0.6759  0.2421  0.3005
17543THY    HP519350   3.001   5.279   2.836 -1.2421  0.9334 -0.1313
17543THY    HP619351   3.174   5.306   2.852 -1.6622 -1.1468  0.8772
17543THY    HP719352   3.091   5.259   2.994  0.6990  0.2738  0.2790
17543THY    CA319353   3.066   5.043   2.621 -0.1186 -0.1373  0.3474
17543THY    HA319354   2.962   5.035   2.652  0.1582  0.6837 -0.2499
17543THY    CA419355   3.091   5.013   2.491 -0.2672 -0.3876  0.1195
17543THY    HA419356   3.007   4.991   2.425 -0.8237 -0.1837  1.5231
17543THY    CA519357   3.225   5.020   2.449  0.4719  0.2858 -0.2679
17543THY    CM119358   3.247   5.001   2.302 -0.5378  0.3328  0.3313
17543THY    HM119359   3.344   4.949   2.303  0.2937  1.1411  1.8238
17543THY    HM219360   3.275   5.099   2.262 -0.4613  1.5862  0.8455
17543THY    HM319361   3.172   4.945   2.245  0.1638 -1.4117  1.1132
17543THY    CA619362   3.325   5.052   2.544 -0.4684  0.3657  0.1191
17543THY    HA619363   3.428   5.055   2.511 -0.8409 -0.9799 -1.0558
17544THY      O19364   1.381   4.161   6.153 -0.1390  0.9807 -0.3736
17544THY     HO19365   1.362   4.079   6.201  1.4835 -2.6622 -3.1396
17544THY    CA119366   1.337   4.140   6.025  0.0134  0.4107 -0.0193
17544THY    CA219367   1.208   4.186   5.987 -0.5102  0.0587  0.4781
17544THY    CP119368   1.119   4.254   6.093 -0.3206 -0.0249 -0.2063
17544THY    HP119369   1.168   4.278   6.188 -0.0955 -0.6056  1.7686
17544THY    CP219370   0.997   4.170   6.144 -0.2132 -0.5372 -0.2992
17544THY    HP219371   1.035   4.091   6.209  0.3119 -1.0588 -0.4799
17544THY    HP319372   0.939   4.117   6.067 -1.3483  0.2816 -0.2876
17544THY    HP419373   0.925   4.225   6.206 -0.0145 -0.2113 -0.4071
17544THY    CP319374   1.077   4.389   6.038  0.0603 -0.4317 -0.4234
17544THY    HP519375   1.170   4.438   6.007 -0.5567 -1.0896  0.3594
17544THY    HP619376   1.034   4.447   6.120 -1.1560 -1.6924  0.5346
17544THY    HP719377   0.996   4.370   5.966  0.6436 -1.1189 -0.3320
17544THY    CA319378   1.168   4.169   5.855  0.0331 -0.1706  0.2328
17544THY    HA319379   1.071   4.196   5.815 -0.8586  0.8391 -1.3229
17544THY    CA419380   1.259   4.114   5.762  0.0749  0.3030 -0.9364
17544THY    HA419381   1.241   4.109   5.655 -1.2801  0.4245  0.5346
17544THY    CA519382   1.387   4.067   5.808  0.5485  0.5048 -0.4374
17544THY    CM119383   1.481   4.022   5.706  0.4193 -0.5073  0.1855
17544THY    HM119384   1.452   4.016   5.600  0.8633 -0.5553 -2.3701
17544THY    HM219385   1.508   3.919   5.732  2.1493 -2.4550  0.0715
17544THY    HM319386   1.573   4.079   5.723  0.7676  0.0025 -0.5035
17544THY    CA619387   1.419   4.078   5.940 -0.1929 -0.1341  0.6745
17544THY    HA619388   1.519   4.051   5.973 -0.3586 -0.7404 -0.7818
17545THY      O19389   4.937   7.995   6.166 -0.2848 -0.2669  0.2060
17545THY     HO19390   4.959   8.080   6.125 -2.0463  1.0884  1.3907
17545THY    CA119391   4.865   8.022   6.282 -0.0804  0.6743  0.3779
17545THY    CA219392   4.788   8.137   6.308  0.3284  0.3933  0.7468
17545THY    CP119393   4.777   8.238   6.201 -0.0305  0.8417 -0.3921
17545THY    HP119394   4.782   8.187   6.104  0.4123  1.5121 -1.6766
17545THY    CP219395   4.887   8.345   6.209  0.5720  0.4568  0.5281
17545THY    HP219396   4.852   8.408   6.291 -3.6626  0.0118 -0.8593
17545THY    HP319397   4.879   8.399   6.114 -1.2717  0.1405 -0.2058
17545THY    HP419398   4.986   8.300   6.221  1.5076 -0.3882  2.2564
17545THY    CP319399   4.639   8.301   6.178 -0.1298 -0.5723  0.9094
17545THY    HP519400   4.566   8.221   6.191  0.8932 -0.5773 -0.0400
17545THY    HP619401   4.633   8.345   6.078  0.6366 -0.9336  0.2183
17545THY    HP719402   4.621   8.371   6.260 -0.0062  1.1050 -0.9430
17545THY    CA319403   4.723   8.154   6.433 -0.3022  0.5180 -0.3412
17545THY    HA319404   4.659   8.241   6.444 -2.4549 -1.1168 -1.6125
17545THY    CA419405   4.730   8.051   6.523 -0.1887 -0.2692  0.7232
17545THY    HA419406   4.665   8.053   6.610 -0.5274 -0.5030  2.8878
17545THY    CA519407   4.812   7.943   6.500  0.3638  0.2335 -0.2176
17545THY    CM119408   4.800   7.834   6.601  0.8340 -0.6237 -0.0375
17545THY    HM119409   4.787   7.868   6.704  0.5736 -0.6274 -0.1297
17545THY    HM219410   4.890   7.771   6.592  0.7062 -3.0625  0.0541
17545THY    HM319411   4.722   7.762   6.576 -0.3700  0.8987  0.6877
17545THY    CA619412   4.875   7.929   6.381 -0.7774  0.0492  0.1586
17545THY    HA619413   4.922   7.834   6.357  0.4152  0.9161  0.5117
17546THY      O19414   4.540   3.178   1.799 -0.0453 -0.4426  0.1419
17546THY     HO19415   4.564   3.145   1.711 -0.6944 -0.6412  0.1890
17546THY    CA119416   4.440   3.094   1.834  0.4244  0.8708 -0.2191
17546THY    CA219417   4.386   3.095   1.963 -0.9226 -0.4793  0.4904
17546THY    CP119418   4.463   3.160   2.078  0.1209 -0.7651 -0.1875
17546THY    HP119419   4.533   3.237   2.043 -0.8826  2.2426  2.2732
17546THY    CP219420   4.540   3.039   2.138  0.2022  0.0116  0.7206
17546THY    HP219421   4.618   3.083   2.202 -0.5785  0.9975  0.6883
17546THY    HP319422   4.596   2.975   2.069 -0.4445 -0.5282  0.7255
17546THY    HP419423   4.478   2.977   2.204  1.5052  3.1091  2.4551
17546THY    CP319424   4.375   3.250   2.181  0.0333 -0.0598  0.1256
17546THY    HP519425   4.440   3.291   2.258 -0.6622  0.0349  1.0840
17546THY    HP619426   4.298   3.192   2.233 -0.0022 -0.5219 -0.2459
17546THY    HP719427   4.321   3.333   2.134 -1.4314 -0.7498 -1.1709
17546THY    CA319428   4.279   3.006   1.997 -0.4555 -0.0754 -0.2354
17546THY    HA319429   4.245   3.008   2.100  0.9990  0.4668 -1.2803
17546THY    CA419430   4.217   2.934   1.899 -0.5538 -0.1729 -0.1669
17546THY    HA419431   4.132   2.870   1.924  1.0286 -1.0999 -2.7976
17546THY    CA519432   4.264   2.934   1.765 -0.2387 -0.1074 -0.0528
17546THY    CM119433   4.199   2.853   1.654 -0.2767  0.6828  0.5181
17546THY    HM119434   4.191   2.914   1.564  1.1975 -2.4154 -3.4274
17546THY    HM219435   4.102   2.811   1.680  0.4698 -0.6704 -2.2558
17546THY    HM319436   4.265   2.768   1.635  1.3347 -1.6597  2.1647
17546THY    CA619437   4.381   3.007   1.732  0.0550  1.2493 -0.0398
17546THY    HA619438   4.409   3.015   1.627  0.4484  1.3527 -0.0273
17547THY      O19439   8.505   2.456   3.471 -0.0725  0.8637 -0.1073
17547THY     HO19440   8.488   2.501   3.556  0.4619 -0.1140  2.0668
17547THY    CA119441   8.527   2.321   3.489 -0.1636 -0.2051  0.1647
17547THY    CA219442   8.551   2.228   3.379  0.1998 -0.3905 -0.5291
17547THY    CP119443   8.534   2.283   3.235  0.3635  1.1046  0.1670
17547THY    HP119444   8.500   2.387   3.246 -0.9137 -0.8853  0.0091
17547THY    CP219445   8.420   2.203   3.163 -0.1194 -0.9540  0.1081
17547THY    HP219446   8.327   2.205   3.223  1.3902  1.5659 -0.4468
17547THY    HP319447   8.450   2.099   3.152  1.4406  5.2133 -0.4929
17547THY    HP419448   8.394   2.245   3.065  0.8616 -1.3944 -0.2952
17547THY    CP319449   8.670   2.291   3.160 -0.2601  0.5022  0.3713
17547THY    HP519450   8.705   2.190   3.135 -0.4184 -2.6871  1.0204
17547THY    HP619451   8.743   2.343   3.223  0.6015 -0.8724  0.8800
17547THY    HP719452   8.670   2.333   3.059 -0.4897  0.1903 -0.3596
17547THY    CA319453   8.577   2.091   3.399  0.1427 -0.3372  0.6716
17547THY    HA319454   8.578   2.019   3.319  2.1799 -0.3293  0.6348
17547THY    CA419455   8.580   2.051   3.536  0.1327 -0.0618  0.4121
17547THY    HA419456   8.605   1.947   3.551  0.0199 -1.6630  0.1190
17547THY    CA519457   8.560   2.139   3.637  0.5571 -0.2237 -0.3623
17547THY    CM119458   8.578   2.091   3.782 -0.1152 -0.2775 -0.0618
17547THY    HM119459   8.587   1.983   3.797 -2.7235 -0.0580 -0.3144
17547THY    HM219460   8.487   2.110   3.842  0.6109  0.4287  1.3845
17547THY    HM319461   8.656   2.155   3.825  0.8958 -1.8114 -0.2252
17547THY    CA619462   8.531   2.273   3.615  0.3870  0.0270  0.3660
17547THY    HA619463   8.504   2.336   3.700  0.6171  0.9710 -0.7681
17548THY      O19464   4.238   7.936   2.707 -0.0029 -0.0413 -0.1146
17548THY     HO19465   4.194   7.916   2.623  0.8269 -0.8929  1.4343
17548THY    CA119466   4.339   7.838   2.722  0.7026 -0.2568 -0.5997
17548THY    CA219467   4.394   7.811   2.848  0.1011  0.0483 -0.4513
17548THY    CP119468   4.353   7.900   2.976  0.2174 -0.2742  0.3605
17548THY    HP119469   4.314   7.998   2.947  1.5554  0.0336  1.0143
17548THY    CP219470   4.485   7.940   3.054  0.0666 -0.2813  0.7140
17548THY    HP219471   4.472   8.029   3.116 -2.1971  0.5349 -0.1026
17548THY    HP319472   4.570   7.947   2.985  1.1538  0.5890 -2.4721
17548THY    HP419473   4.508   7.862   3.127 -0.4011 -0.6241  0.2452
17548THY    CP319474   4.251   7.844   3.077  0.1562 -0.1509  0.8863
17548THY    HP519475   4.299   7.758   3.127  1.1112 -0.3748  1.2831
17548THY    HP619476   4.155   7.812   3.035 -1.2995  4.2302 -1.4138
17548THY    HP719477   4.227   7.930   3.141 -3.0145  0.7235 -0.4898
17548THY    CA319478   4.488   7.706   2.857 -0.2180 -0.2240 -0.6922
17548THY    HA319479   4.543   7.689   2.949  0.8774  0.0165  3.1854
17548THY    CA419480   4.519   7.638   2.744  0.4366 -0.5371 -0.2325
17548THY    HA419481   4.589   7.555   2.753 -0.9700  1.8519 -1.2590
17548THY    CA519482   4.471   7.674   2.622 -0.7437  0.3667 -0.2943
17548THY    CM119483   4.521   7.608   2.499  0.0073  0.5715 -0.1924
17548THY    HM119484   4.531   7.502   2.525  1.9876 -1.0233 -0.4745
17548THY    HM219485   4.617   7.652   2.469  0.6611  1.7541 -0.7663
17548THY    HM319486   4.450   7.623   2.417 -0.6213  0.8103 -1.7068
17548THY    CA619487   4.375   7.770   2.614 -0.7599  0.3126 -0.2903
17548THY    HA619488   4.333   7.796   2.518 -0.6212  0.3765  0.1697
17549THY      O19489   1.241   0.712   5.649  1.1906 -0.3765 -0.6851
17549THY     HO19490   1.251   0.808   5.639  0.1602  0.0829 -0.5159
17549THY    CA119491   1.346   0.664   5.586 -0.0263 -0.0831  0.4607
17549THY    CA219492   1.422   0.545   5.627  0.6394 -0.6964 -0.0354
17549THY    CP119493   1.388   0.472   5.760  0.3085 -0.7120  0.0411
17549THY    HP119494   1.333   0.537   5.828 -0.6910  0.6236 -2.0717
17549THY    CP219495   1.504   0.413   5.835 -0.0822  0.0154  0.2763
17549THY    HP219496   1.580   0.491   5.824 -0.3605  0.9265  0.6832
17549THY    HP319497   1.545   0.314   5.809  0.2114  0.5209  0.2610
17549THY    HP419498   1.461   0.411   5.936 -2.3987 -0.8978 -1.3884
17549THY    CP319499   1.294   0.357   5.723  0.3686 -0.5823 -0.1247
17549THY    HP519500   1.277   0.298   5.814  2.0984  0.6287  1.1184
17549THY    HP619501   1.331   0.304   5.634 -0.0694 -0.7962 -0.0707
17549THY    HP719502   1.194   0.385   5.689  0.6739 -0.8288  0.6813
17549THY    CA319503   1.518   0.497   5.539 -1.0657  0.0467  0.0583
17549THY    HA319504   1.574   0.408   5.568  0.6430 -0.2220  1.0022
17549THY    CA419505   1.554   0.570   5.430 -0.3268 -0.4716 -0.8257
17549THY    HA419506   1.644   0.544   5.375  0.7025  0.6787  0.1646
17549THY    CA519507   1.479   0.683   5.393 -0.2597  0.2999  0.4495
17549THY    CM119508   1.517   0.759   5.272  0.3277 -0.5792  0.5012
17549THY    HM119509   1.622   0.791   5.268  0.4849  2.0554  0.5438
17549THY    HM219510   1.459   0.851   5.260  0.4467  1.7125  0.9224
17549THY    HM319511   1.495   0.703   5.180 -2.2014 -0.4869  1.2335
17549THY    CA619512   1.380   0.730   5.469  0.2772 -1.2019  0.0226
17549THY    HA619513   1.331   0.820   5.432 -0.1140 -1.0965 -0.1454
17550THY      O19514   9.157   6.061   1.564 -0.9112  0.0572  0.7135
17550THY     HO19515   9.155   6.119   1.485  2.0998 -1.1664 -0.6275
17550THY    CA119516   9.182   6.150   1.667  0.0799 -0.4412 -0.2764
17550THY    CA219517   9.212   6.101   1.797 -0.1368  0.3209 -0.0457
17550THY    CP119518   9.234   5.954   1.837 -0.4492 -0.3549  0.8238
17550THY    HP119519   9.210   5.888   1.753 -2.9994  0.4583  0.5931
17550THY    CP219520   9.123   5.913   1.934 -0.8803 -1.2732 -0.3063
17550THY    HP219521   9.136   5.809   1.967 -0.5756  0.7921  0.3458
17550THY    HP319522   9.024   5.931   1.890 -1.1134 -0.7272 -0.2251
17550THY    HP419523   9.130   5.979   2.021  1.7451 -0.6619 -1.2806
17550THY    CP319524   9.371   5.937   1.896  0.2353 -0.2320  0.1615
17550THY    HP519525   9.371   5.986   1.994 -2.4004 -0.5842  1.0032
17550THY    HP619526   9.443   5.996   1.839 -0.0939 -0.1520  0.6513
17550THY    HP719527   9.392   5.831   1.917  1.2859 -0.5362  0.3004
17550THY    CA319528   9.225   6.201   1.899  0.4125  0.3311 -0.0532
17550THY    HA319529   9.249   6.171   2.001  2.0076 -0.3202 -1.0991
17550THY    CA419530   9.193   6.335   1.868  0.4404  0.7699  0.1038
17550THY    HA419531   9.186   6.406   1.950  3.4574  1.1255  0.1393
17550THY    CA519532   9.177   6.378   1.736 -0.2179  0.6179 -1.0144
17550THY    CM119533   9.162   6.528   1.702 -0.0323 -0.4027  0.2878
17550THY    HM119534   9.176   6.546   1.595  1.8568 -0.2115  0.1923
17550THY    HM219535   9.239   6.587   1.753  2.7071 -2.8158 -0.9584
17550THY    HM319536   9.067   6.562   1.743  0.6003  1.8510 -0.4703
17550THY    CA619537   9.170   6.281   1.635  0.7519 -0.0496 -0.2775
17550THY    HA619538   9.157   6.316   1.533 -1.2050 -0.4714 -2.0035
17551THY      O19539   4.215   4.181   3.885 -0.7212  0.3805  0.0866
17551THY     HO19540   4.162   4.251   3.926 -0.0654  0.1832  0.7149
17551THY    CA119541   4.241   4.095   3.985  0.3183 -0.5415  0.0098
17551THY    CA219542   4.371   4.081   4.033 -0.6771  0.2225 -0.2452
17551THY    CP119543   4.486   4.176   3.991  0.4499  0.3037  0.2013
17551THY    HP119544   4.456   4.232   3.901 -0.4947  0.9408  0.7352
17551THY    CP219545   4.629   4.116   3.958  0.4091  0.0123 -0.2308
17551THY    HP219546   4.694   4.190   3.911  1.5509 -0.5075 -1.5241
17551THY    HP319547   4.609   4.033   3.889 -1.9266 -0.6083  0.7770
17551THY    HP419548   4.670   4.073   4.051 -0.8501  1.6743  1.9455
17551THY    CP319549   4.491   4.296   4.093 -0.4138 -0.3132  1.4100
17551THY    HP519550   4.515   4.257   4.193 -2.0755  0.1645  1.5114
17551THY    HP619551   4.390   4.340   4.094 -0.9242  2.0791  0.3876
17551THY    HP719552   4.556   4.371   4.049 -1.6716 -0.7199  2.2975
17551THY    CA319553   4.388   3.998   4.144 -0.2587  0.1349  0.2381
17551THY    HA319554   4.480   4.002   4.202  0.0164 -0.3503  1.1683
17551THY    CA419555   4.284   3.917   4.190  0.4251 -1.2673 -0.3986
17551THY    HA419556   4.310   3.842   4.264  1.0244  2.4882  3.1712
17551THY    CA519557   4.154   3.936   4.148 -0.7258  0.1193  0.1026
17551THY    CM119558   4.039   3.860   4.211 -0.1620 -0.1001 -0.1680
17551THY    HM119559   4.008   3.775   4.148  2.0646  1.7357 -2.5128
17551THY    HM219560   3.946   3.916   4.224 -1.4582 -1.3570 -1.9307
17551THY    HM319561   4.062   3.824   4.312 -1.3498  0.7565  1.3688
17551THY    CA619562   4.129   4.021   4.037 -0.3304 -0.0195 -0.0735
17551THY    HA619563   4.028   4.038   4.002 -1.0150  1.5514 -0.6947
17552THY      O19564   3.095   0.675   5.520 -0.4856  0.2486  0.5188
17552THY     HO19565   3.031   0.739   5.557 -2.1662 -2.7015  0.7310
17552THY    CA119566   3.063   0.674   5.385 -0.0125 -0.5184  0.3219
17552THY    CA219567   3.113   0.567   5.307  0.5646 -0.2253 -0.8275
17552THY    CP119568   3.203   0.458   5.359  0.2013  0.1066  0.6350
17552THY    HP119569   3.220   0.466   5.467  1.2606 -0.0514  0.6999
17552THY    CP219570   3.348   0.461   5.303  0.2195  0.1991 -0.3008
17552THY    HP219571   3.350   0.416   5.203  0.8345  0.0257  0.1119
17552THY    HP319572   3.414   0.405   5.370  2.8693 -1.3501  0.8089
17552THY    HP419573   3.379   0.565   5.292  0.2570  2.5569 -0.0203
17552THY    CP319574   3.133   0.325   5.321  0.1842  0.7442  0.4657
17552THY    HP519575   3.139   0.319   5.212 -0.0952  0.5914  2.4403
17552THY    HP619576   3.030   0.332   5.357 -0.3274 -0.9372  2.6283
17552THY    HP719577   3.184   0.238   5.364 -2.8831 -1.0391 -2.4485
17552THY    CA319578   3.089   0.567   5.173  0.2647  0.4115 -0.1676
17552THY    HA319579   3.140   0.495   5.108  0.3426  0.1046  0.1648
17552THY    CA419580   2.997   0.663   5.112 -0.1851  0.2563  1.0524
17552THY    HA419581   2.973   0.666   5.006  0.6739  0.0606  1.3475
17552THY    CA519582   2.935   0.756   5.195 -0.4653  0.3735 -0.3892
17552THY    CM119583   2.849   0.862   5.144 -0.5556  0.1560  0.4040
17552THY    HM119584   2.752   0.845   5.193  0.2912  1.1875 -1.8680
17552THY    HM219585   2.844   0.862   5.035 -1.2750  0.1797 -0.3510
17552THY    HM319586   2.892   0.962   5.161 -0.1507 -1.5595  0.5469
17552THY    CA619587   2.972   0.767   5.329  0.2779 -0.4911 -0.1034
17552THY    HA619588   2.929   0.842   5.395  1.8233  0.1138  0.2840
17553THY      O19589   0.421   5.924   6.090 -0.9265  0.4062  0.1181
17553THY     HO19590   0.327   5.909   6.069 -0.8341 -1.3277  1.6890
17553THY    CA119591   0.422   5.975   6.213  0.1364  0.0964 -0.2349
17553THY    CA219592   0.540   6.033   6.267  0.2104 -0.2196  0.5150
17553THY    CP119593   0.658   6.063   6.178 -1.1970  0.7112 -0.1285
17553THY    HP119594   0.664   5.995   6.092  3.2174  0.2585  0.5668
17553THY    CP219595   0.794   6.024   6.234 -0.4034 -0.0252 -1.6865
17553THY    HP219596   0.810   5.916   6.235 -0.9171 -0.3626 -1.7683
17553THY    HP319597   0.815   6.070   6.331  1.7073 -0.3565 -1.8380
17553THY    HP419598   0.874   6.064   6.170 -1.0014  1.1831  1.7575
17553THY    CP319599   0.653   6.211   6.131  0.3975 -0.2465  0.3372
17553THY    HP519600   0.565   6.219   6.066 -2.7691  3.0401 -3.2478
17553THY    HP619601   0.749   6.241   6.089 -0.7096 -1.8758  1.8003
17553THY    HP719602   0.633   6.280   6.214 -0.6225  0.0942 -0.3419
17553THY    CA319603   0.537   6.076   6.396  0.1527 -0.6709  0.3761
17553THY    HA319604   0.619   6.131   6.442  1.9131 -0.2595 -2.3927
17553THY    CA419605   0.425   6.055   6.476  0.1065 -0.5062 -0.3265
17553THY    HA419606   0.428   6.092   6.578  0.8813 -0.5719 -0.1725
17553THY    CA519607   0.315   5.996   6.427  0.0674 -0.1389 -0.5314
17553THY    CM119608   0.188   5.989   6.507  0.0080  0.5280  0.5978
17553THY    HM119609   0.157   5.885   6.515  1.3034 -1.4654  0.0088
17553THY    HM219610   0.108   6.043   6.455 -0.1710 -1.8251 -1.7646
17553THY    HM319611   0.216   6.021   6.608  3.2314 -0.2011  0.5059
17553THY    CA619612   0.317   5.955   6.291 -0.0017 -0.0032 -0.0600
17553THY    HA619613   0.228   5.901   6.260  0.5057 -0.7528 -0.4965
17554THY      O19614   3.557   2.898   4.523  0.4114 -0.2093 -0.3426
17554THY     HO19615   3.503   2.880   4.602 -1.3818 -1.8974 -3.0828
17554THY    CA119616   3.563   2.778   4.459  0.2266  0.1601  0.0694
17554THY    CA219617   3.682   2.735   4.400  0.3560 -0.3146 -0.1625
17554THY    CP119618   3.809   2.824   4.404  0.3553 -0.1427  0.0887
17554THY    HP119619   3.820   2.860   4.507  0.2286  0.1640 -0.7217
17554THY    CP219620   3.795   2.950   4.324 -0.0021  0.7085 -0.4143
17554THY    HP219621   3.897   2.987   4.311  0.3293  2.0538 -0.7810
17554THY    HP319622   3.728   3.022   4.374  0.1137 -1.5870  1.3869
17554THY    HP419623   3.749   2.934   4.226  0.1453  0.8175 -1.5702
17554THY    CP319624   3.935   2.749   4.362  0.7754  0.7469  0.1260
17554THY    HP519625   3.929   2.735   4.253  0.0027  0.8398 -0.3250
17554THY    HP619626   3.932   2.657   4.422 -0.4425  0.1081 -0.2723
17554THY    HP719627   4.030   2.802   4.379  0.5930 -2.4405  1.7235
17554THY    CA319628   3.672   2.613   4.326  0.4918 -0.2443 -0.2691
17554THY    HA319629   3.754   2.578   4.264  2.0471  1.5732 -0.0373
17554THY    CA419630   3.556   2.540   4.324  0.2040  0.1248 -0.2043
17554THY    HA419631   3.546   2.442   4.280 -4.3902  2.4373 -1.0779
17554THY    CA519632   3.443   2.587   4.392 -0.8835 -0.3592  0.5209
17554THY    CM119633   3.316   2.506   4.400 -0.2214  0.1361  0.2762
17554THY    HM119634   3.275   2.509   4.298  2.8418 -1.1882  0.2338
17554THY    HM219635   3.245   2.545   4.474 -0.0294  0.5119 -0.0836
17554THY    HM319636   3.335   2.401   4.424 -0.8278 -1.1769 -0.1565
17554THY    CA619637   3.442   2.713   4.449  0.5768 -0.5116  0.3060
17554THY    HA619638   3.349   2.756   4.485  0.4652 -0.4586  0.0261
17555THY      O19639   1.837   2.726   3.085  0.0720 -0.6177  1.0869
17555THY     HO19640   1.922   2.685   3.061 -0.5010  2.4729 -2.4832
17555THY    CA119641   1.825   2.698   3.220  0.0206 -0.0148 -0.2400
17555THY    CA219642   1.701   2.706   3.284  0.3319 -0.6474  0.7334
17555THY    CP119643   1.565   2.752   3.213 -0.8222 -0.2960  0.3378
17555THY    HP119644   1.594   2.808   3.123  1.3573 -0.5160 -1.0091
17555THY    CP219645   1.483   2.846   3.303 -0.4627 -0.9416  0.4407
17555THY    HP219646   1.408   2.914   3.262 -1.0608  0.9168  0.9754
17555THY    HP319647   1.544   2.911   3.367 -1.8436  1.8508 -0.8203
17555THY    HP419648   1.420   2.784   3.368  0.2090  1.4455  2.1276
17555THY    CP319649   1.475   2.640   3.175  0.6846 -0.7085  0.1521
17555THY    HP519650   1.377   2.663   3.132  0.5305 -0.0988  0.6472
17555THY    HP619651   1.452   2.583   3.266  3.4998 -0.5835 -0.9784
17555THY    HP719652   1.535   2.578   3.107  0.4392  0.7788 -1.8436
17555THY    CA319653   1.699   2.674   3.415  0.5378  0.1171 -0.3375
17555THY    HA319654   1.607   2.676   3.474  1.8303  2.2135  0.5333
17555THY    CA419655   1.806   2.623   3.479  0.6634  0.0242 -0.0156
17555THY    HA419656   1.790   2.580   3.578  0.8007 -0.8874 -2.3478
17555THY    CA519657   1.934   2.612   3.412  0.1939 -0.4841 -0.3073
17555THY    CM119658   2.050   2.564   3.493 -0.3385  0.3818 -0.4865
17555THY    HM119659   2.034   2.558   3.602  2.7438  1.1157  2.0065
17555THY    HM219660   2.127   2.640   3.479  1.4444  1.9719 -1.8777
17555THY    HM319661   2.092   2.472   3.451  1.8826 -0.7288  0.9522
17555THY    CA619662   1.942   2.652   3.277  0.9071 -0.5800  0.2628
17555THY    HA619663   2.034   2.643   3.221  1.8611  1.0595 -0.7482
17556THY      O19664   0.803   5.680   2.118  0.7569 -0.0507  0.2503
17556THY     HO19665   0.728   5.630   2.155  0.4762 -1.3771 -0.3718
17556THY    CA119666   0.758   5.707   1.993 -0.4525 -0.2022 -0.2560
17556THY    CA219667   0.836   5.714   1.880 -0.4646  0.2302  0.2617
17556THY    CP119668   0.990   5.721   1.897  0.8663 -0.6669  0.3073
17556THY    HP119669   1.027   5.726   2.001  0.2189 -0.3453 -1.0324
17556THY    CP219670   1.045   5.841   1.822 -0.0578 -0.5814 -0.1572
17556THY    HP219671   0.989   5.927   1.860 -0.7261  1.5795 -1.4647
17556THY    HP319672   1.045   5.825   1.714  0.8935 -0.4526 -1.2091
17556THY    HP419673   1.148   5.844   1.860 -0.0039 -0.5571 -1.5001
17556THY    CP319674   1.041   5.589   1.835  0.0309 -0.3772 -0.4170
17556THY    HP519675   1.060   5.592   1.727  1.7818 -0.0898 -0.0760
17556THY    HP619676   0.982   5.507   1.878  1.0582  5.2685  1.3815
17556THY    HP719677   1.145   5.579   1.869  0.1306 -1.3127 -3.7161
17556THY    CA319678   0.769   5.721   1.756  0.6161 -0.1252 -0.0871
17556THY    HA319679   0.823   5.718   1.661 -2.8065 -2.2526 -3.3076
17556THY    CA419680   0.630   5.740   1.751  0.3539  0.3016  1.2965
17556THY    HA419681   0.589   5.749   1.651 -0.9912  0.7150  0.1110
17556THY    CA519682   0.554   5.733   1.864  0.3214  0.0832  0.4551
17556THY    CM119683   0.403   5.738   1.862 -0.2251 -0.2297  0.4604
17556THY    HM119684   0.364   5.680   1.946  1.6374  0.7349  0.5527
17556THY    HM219685   0.378   5.686   1.768  0.8463 -0.0819 -0.3682
17556THY    HM319686   0.372   5.842   1.873 -0.6336 -0.2707  0.3444
17556THY    CA619687   0.620   5.711   1.988 -0.1927 -0.9882  0.3704
17556THY    HA619688   0.561   5.706   2.079 -0.5957 -1.1728  1.4422
17557THY      O19689   7.990   6.893   5.455  0.0718  0.1812  0.0670
17557THY     HO19690   8.078   6.853   5.463 -1.1457  0.0908 -2.8398
17557THY    CA119691   7.968   6.958   5.571  0.9765 -0.0486  0.2847
17557THY    CA219692   7.837   6.989   5.607  0.2050 -0.1049  0.0348
17557THY    CP119693   7.715   6.965   5.515 -0.4390 -0.5014 -0.6335
17557THY    HP119694   7.741   6.896   5.434  0.6257  1.2545 -2.3939
17557THY    CP219695   7.679   7.104   5.447  0.0000  0.0645  0.2859
17557THY    HP219696   7.639   7.181   5.514 -2.1309  0.6343 -1.2243
17557THY    HP319697   7.601   7.089   5.372  0.2690  0.2157 -2.3605
17557THY    HP419698   7.772   7.137   5.398 -0.3682 -1.2659 -0.5687
17557THY    CP319699   7.594   6.915   5.601  0.0969  0.3591 -0.1123
17557THY    HP519700   7.632   6.829   5.657  0.5362  0.6357  0.2559
17557THY    HP619701   7.514   6.879   5.536 -1.2249  0.4204  2.4787
17557THY    HP719702   7.550   6.974   5.682 -0.5773  0.0922 -0.2505
17557THY    CA319703   7.816   7.058   5.727  0.6017 -0.1583  0.3590
17557THY    HA319704   7.718   7.095   5.754  0.1348  0.3070 -1.1220
17557THY    CA419705   7.925   7.097   5.806  0.0612  0.7909  0.0879
17557THY    HA419706   7.907   7.147   5.901 -2.7377 -0.5135  1.8675
17557THY    CA519707   8.055   7.061   5.771 -0.3336 -0.5899  0.1515
17557THY    CM119708   8.178   7.103   5.852 -0.5711  0.0984  0.7526
17557THY    HM119709   8.262   7.129   5.786  0.7969  0.6500 -1.9264
17557THY    HM219710   8.223   7.017   5.903 -0.9658 -2.9962 -1.4527
17557THY    HM319711   8.169   7.176   5.933 -1.9986  2.5697 -1.9403
17557THY    CA619712   8.074   6.987   5.652  0.6206  0.6929 -0.2509
17557THY    HA619713   8.173   6.959   5.618  0.9263  1.0652  0.3808
17558THY      O19714   5.248   6.480   2.686 -0.1015  0.3271 -0.1752
17558THY     HO19715   5.225   6.464   2.593  0.4355  0.1772 -0.1029
17558THY    CA119716   5.194   6.600   2.702 -0.6841 -0.8423 -0.3088
17558THY    CA219717   5.256   6.704   2.785  0.4393 -0.0983  0.4320
17558THY    CP119718   5.393   6.681   2.855 -0.3745 -0.2464 -0.9466
17558THY    HP119719   5.422   6.576   2.856  0.2533 -0.1252 -0.7740
17558THY    CP219720   5.383   6.729   3.000 -0.1666 -1.0440  0.8017
17558THY    HP219721   5.381   6.839   3.004 -0.7920 -0.3869  0.7764
17558THY    HP319722   5.473   6.704   3.057 -0.7932 -0.6721 -0.6772
17558THY    HP419723   5.288   6.697   3.044 -1.3469 -2.9682  1.4813
17558THY    CP319724   5.495   6.762   2.783 -0.2235 -0.4723  0.0727
17558THY    HP519725   5.593   6.738   2.827  0.0958 -0.9176  0.5461
17558THY    HP619726   5.473   6.869   2.789 -3.1705  0.1338 -0.4940
17558THY    HP719727   5.502   6.735   2.677  2.4898 -0.7966  1.6263
17558THY    CA319728   5.189   6.827   2.783 -0.2564 -0.2509 -0.3633
17558THY    HA319729   5.231   6.910   2.839  0.9819 -0.7356 -0.6360
17558THY    CA419730   5.074   6.838   2.707  0.0568 -0.2614 -0.0703
17558THY    HA419731   5.011   6.927   2.706 -0.6051 -1.2582 -0.5396
17558THY    CA519732   5.019   6.734   2.643 -0.3824 -0.0393  0.6576
17558THY    CM119733   4.876   6.747   2.591  0.2803  0.2468  0.3432
17558THY    HM119734   4.880   6.777   2.486  1.7611 -0.7675 -2.9062
17558THY    HM219735   4.816   6.819   2.649 -1.2103  1.2249 -1.5936
17558THY    HM319736   4.816   6.656   2.601 -1.4512 -0.5025  1.3396
17558THY    CA619737   5.078   6.610   2.639  0.0668  0.1852  0.2442
17558THY    HA619738   5.045   6.522   2.585  4.6651 -0.9090 -1.0927
17559THY      O19739   8.753   3.542   6.102  0.4068 -0.0156  0.1184
17559THY     HO19740   8.836   3.538   6.051  0.2507 -0.2161 -1.0558
17559THY    CA119741   8.718   3.668   6.114  0.3237  0.5249 -0.5330
17559THY    CA219742   8.591   3.711   6.108  0.1999  0.6671 -0.5548
17559THY    CP119743   8.473   3.621   6.079 -0.2921  0.1148  0.8133
17559THY    HP119744   8.493   3.559   5.991 -2.3689  0.2516 -0.1243
17559THY    CP219745   8.337   3.692   6.036 -0.9307 -0.2012  0.0688
17559THY    HP219746   8.271   3.609   6.008 -1.0050  0.0395  0.0435
17559THY    HP319747   8.356   3.758   5.951 -1.3240 -1.2557 -1.1268
17559THY    HP419748   8.288   3.740   6.121  0.1896  0.6567 -0.2626
17559THY    CP319749   8.437   3.521   6.191  0.7508  0.2549 -0.3886
17559THY    HP519750   8.404   3.582   6.276 -1.6152 -0.4319 -0.6337
17559THY    HP619751   8.525   3.463   6.223  1.8491  0.9510  1.5695
17559THY    HP719752   8.372   3.441   6.153 -0.4045 -1.6816  1.3787
17559THY    CA319753   8.567   3.852   6.110 -0.3281  0.0284  0.6763
17559THY    HA319754   8.468   3.897   6.109 -0.4842  1.1371  0.3969
17559THY    CA419755   8.674   3.945   6.123  0.2791 -0.4513 -0.0184
17559THY    HA419756   8.657   4.051   6.135 -1.8287 -0.8395 -0.2824
17559THY    CA519757   8.809   3.892   6.118 -0.4115 -0.4584 -0.7744
17559THY    CM119758   8.927   3.981   6.163 -0.0171  0.0456 -0.4132
17559THY    HM119759   8.965   4.027   6.072  0.0540  0.7598  1.0061
17559THY    HM219760   9.013   3.942   6.219  1.8040 -1.3366  1.3596
17559THY    HM319761   8.875   4.060   6.219 -0.3247 -1.9144  0.8481
17559THY    CA619762   8.833   3.753   6.120  0.0027 -0.2543  0.0405
17559THY    HA619763   8.927   3.702   6.142  0.0397 -1.3000 -0.3571
17560THY      O19764   3.678   7.926   3.196 -0.1988 -0.2066  0.3967
17560THY     HO19765   3.745   7.924   3.125 -0.1541 -0.2256  1.6602
17560THY    CA119766   3.736   7.972   3.314  0.1515 -0.1141  0.1419
17560THY    CA219767   3.664   7.975   3.435 -1.8475 -0.3815  0.2726
17560THY    CP119768   3.519   7.943   3.433 -0.2051  0.2196 -0.8480
17560THY    HP119769   3.489   7.914   3.332  0.9298 -0.1157 -0.8970
17560THY    CP219770   3.426   8.060   3.470  0.5592 -0.2287 -0.5185
17560THY    HP219771   3.323   8.031   3.444  0.0358 -0.8301  1.7069
17560THY    HP319772   3.442   8.159   3.426 -2.0637 -1.6282 -0.6233
17560THY    HP419773   3.435   8.082   3.577  2.7187 -0.7761  1.7320
17560THY    CP319774   3.485   7.831   3.528 -0.0254  0.3385 -0.0640
17560THY    HP519775   3.380   7.806   3.504  0.1595 -1.5434  0.7624
17560THY    HP619776   3.489   7.846   3.636  0.3313  0.9486 -3.5695
17560THY    HP719777   3.555   7.749   3.509  0.9576 -1.6684  1.1704
17560THY    CA319778   3.733   7.994   3.554 -0.1271  0.6341  0.0821
17560THY    HA319779   3.678   7.990   3.647  2.1987  2.0617 -0.6408
17560THY    CA419780   3.870   8.018   3.560 -0.1447  0.4231 -0.4000
17560THY    HA419781   3.921   8.050   3.650 -1.1602  1.6247 -1.9883
17560THY    CA519782   3.939   8.026   3.437  0.0367  0.4484  0.2067
17560THY    CM119783   4.090   8.058   3.423 -0.6316  0.3889 -0.4807
17560THY    HM119784   4.154   8.041   3.511 -1.2326  0.6618 -1.4507
17560THY    HM219785   4.093   8.167   3.413 -1.9249  0.2860 -0.4386
17560THY    HM319786   4.137   7.999   3.343 -1.9739 -0.0797 -0.9601
17560THY    CA619787   3.875   7.999   3.317  0.0140 -0.7357 -0.8045
17560THY    HA619788   3.927   7.989   3.222  0.6553 -0.6522  1.2188
17561THY      O19789   3.659   8.103   2.344 -0.2170 -0.4021 -0.0268
17561THY     HO19790   3.669   8.126   2.438 -0.6267 -0.6557  1.2563
17561THY    CA119791   3.782   8.128   2.291  0.7209  0.0330 -0.0276
17561THY    CA219792   3.813   8.128   2.151  0.5522 -0.2450  0.1703
17561THY    CP119793   3.700   8.107   2.047  0.1421 -0.1435 -1.0418
17561THY    HP119794   3.607   8.086   2.100 -1.0227 -2.2432 -1.5020
17561THY    CP219795   3.712   7.983   1.963 -0.1564  0.3247 -0.5198
17561THY    HP219796   3.799   7.986   1.897  1.3505  2.2674 -0.2223
17561THY    HP319797   3.628   7.957   1.896 -1.0494  2.2347 -2.9686
17561THY    HP419798   3.716   7.897   2.031  0.4107  3.0507  1.5506
17561THY    CP319799   3.688   8.233   1.952 -0.1990 -0.6339  0.5426
17561THY    HP519800   3.605   8.219   1.882 -2.3185  1.5112  1.5845
17561THY    HP619801   3.783   8.254   1.902  0.8144  1.3841  0.9814
17561THY    HP719802   3.663   8.320   2.013  2.1618 -0.4185  1.1153
17561THY    CA319803   3.943   8.141   2.110 -0.1110 -0.4617  0.2048
17561THY    HA319804   3.968   8.143   2.005 -0.1786 -0.4774  0.2492
17561THY    CA419805   4.034   8.174   2.209 -0.3010  0.6854  0.0331
17561THY    HA419806   4.137   8.190   2.180  0.0946  1.6144 -0.7048
17561THY    CA519807   4.008   8.187   2.343  0.0080  0.5309 -0.3472
17561THY    CM119808   4.114   8.226   2.441  0.4230 -0.3172  0.0716
17561THY    HM119809   4.189   8.285   2.385  0.2411 -1.2675 -0.5700
17561THY    HM219810   4.152   8.132   2.481  2.8390  1.6377  1.7281
17561THY    HM319811   4.069   8.287   2.520  0.8065  0.5640 -0.7828
17561THY    CA619812   3.880   8.162   2.383 -0.0906 -0.5202  0.1200
17561THY    HA619813   3.858   8.168   2.489 -0.2879 -0.4756 -1.0678
17562THY      O19814   9.111   0.914   5.052 -0.2499  0.3609  0.0793
17562THY     HO19815   9.082   0.833   5.007  1.1974 -0.6075  0.0566
17562THY    CA119816   9.190   0.966   4.951  0.7558 -0.6368 -0.0333
17562THY    CA219817   9.299   1.048   4.980 -0.3702 -0.4311 -0.3230
17562THY    CP119818   9.298   1.118   5.117 -0.1853 -0.0113  0.1207
17562THY    HP119819   9.264   1.047   5.194 -1.7887  0.8472  1.7258
17562THY    CP219820   9.197   1.237   5.119 -0.1280 -0.1972  0.1056
17562THY    HP219821   9.114   1.213   5.051 -0.5576 -0.2398  1.6128
17562THY    HP319822   9.230   1.325   5.063  0.4481 -0.2694 -0.1497
17562THY    HP419823   9.163   1.262   5.220 -1.3565 -0.4772 -0.3629
17562THY    CP319824   9.437   1.167   5.163  0.5112 -0.8250  0.2070
17562THY    HP519825   9.518   1.097   5.142  1.1642 -1.6262  1.1760
17562THY    HP619826   9.423   1.190   5.269  0.0379 -0.8518  0.0601
17562THY    HP719827   9.480   1.259   5.122  0.0086 -0.7575  0.4751
17562THY    CA319828   9.371   1.097   4.867  0.6126  0.2549 -0.0569
17562THY    HA319829   9.438   1.182   4.872  1.2144 -0.5400 -0.4679
17562THY    CA419830   9.352   1.037   4.742 -0.0570  0.1650 -0.2678
17562THY    HA419831   9.404   1.088   4.662 -0.0981  0.0049 -0.4783
17562THY    CA519832   9.250   0.954   4.722 -0.1130  0.8772  0.0794
17562THY    CM119833   9.216   0.890   4.588  0.5450 -0.4050  0.7188
17562THY    HM119834   9.235   0.784   4.604 -2.0925 -0.4600  0.1618
17562THY    HM219835   9.268   0.936   4.503 -0.5371 -1.8406 -0.6069
17562THY    HM319836   9.109   0.888   4.565  0.7328 -1.8911  3.0714
17562THY    CA619837   9.171   0.918   4.825 -0.1511  0.5230 -0.0611
17562THY    HA619838   9.105   0.834   4.804 -0.0589  1.0744 -0.2811
17563THY      O19839   3.976   8.926   3.756 -0.3046  0.1356 -0.2809
17563THY     HO19840   3.937   8.843   3.789  0.1261  0.7449 -0.2460
17563THY    CA119841   3.904   8.967   3.645  0.0752 -1.0459  0.8474
17563THY    CA219842   3.957   9.053   3.548 -0.0078  0.4482 -0.0334
17563THY    CP119843   4.095   9.119   3.554 -0.9213 -0.3266 -0.5602
17563THY    HP119844   4.147   9.078   3.641  0.1331 -1.4933 -1.7895
17563THY    CP219845   4.101   9.271   3.574 -0.3159  0.5957  0.0163
17563THY    HP219846   4.058   9.305   3.669  0.3470  0.5653  0.9880
17563THY    HP319847   4.073   9.330   3.486 -0.2343 -0.8368 -1.9920
17563THY    HP419848   4.207   9.296   3.589  0.1779  1.2274 -2.2374
17563THY    CP319849   4.188   9.079   3.440 -0.4500  1.1405 -0.3778
17563THY    HP519850   4.139   9.109   3.346 -1.7776  0.9753 -2.7908
17563THY    HP619851   4.214   8.972   3.437  0.1399 -3.4688 -0.3119
17563THY    HP719852   4.284   9.130   3.448 -0.5134 -2.3669  0.5673
17563THY    CA319853   3.866   9.083   3.443 -0.1491 -0.0354 -0.3165
17563THY    HA319854   3.898   9.157   3.371  1.1099 -0.3505 -1.1566
17563THY    CA419855   3.737   9.030   3.435 -0.8868 -0.3171  0.4931
17563THY    HA419856   3.670   9.044   3.350 -3.0039  0.7449 -2.1384
17563THY    CA519857   3.692   8.948   3.545  0.5889 -0.7329 -0.0890
17563THY    CM119858   3.548   8.897   3.536  0.1340  0.1148 -0.5297
17563THY    HM119859   3.473   8.977   3.524  1.6648 -0.5650  0.8690
17563THY    HM219860   3.521   8.843   3.627 -1.2711 -0.1362 -0.2957
17563THY    HM319861   3.532   8.839   3.445 -0.5704 -0.4449  0.4968
17563THY    CA619862   3.782   8.908   3.640 -0.0032 -0.3462  0.4966
17563THY    HA619863   3.740   8.853   3.724  2.8787  0.1601 -1.1455
17564THY      O19864   4.771   2.452   7.291  0.2570 -0.1896  0.0629
17564THY     HO19865   4.829   2.507   7.346  1.9025 -1.7699  0.0039
17564THY    CA119866   4.846   2.393   7.194 -0.2518  0.0859 -0.0610
17564THY    CA219867   4.800   2.293   7.094 -0.3728  0.0377 -1.1629
17564THY    CP119868   4.651   2.261   7.085  0.7433  0.1171 -0.2483
17564THY    HP119869   4.595   2.297   7.172 -1.0569 -0.4134 -1.6094
17564THY    CP219870   4.625   2.115   7.089 -0.1522 -0.5287  0.0224
17564THY    HP219871   4.704   2.055   7.043  0.0819 -3.2476  2.2266
17564THY    HP319872   4.528   2.086   7.046  1.0708 -1.9808 -2.1178
17564THY    HP419873   4.619   2.075   7.191  1.4196 -1.4049 -2.6524
17564THY    CP319874   4.596   2.333   6.962  0.3176 -0.4147  0.5468
17564THY    HP519875   4.601   2.442   6.978  0.1901 -3.2142  1.0260
17564THY    HP619876   4.491   2.308   6.948  0.5980 -1.3999 -0.1281
17564THY    HP719877   4.651   2.290   6.878 -0.6465  0.2387 -2.1658
17564THY    CA319878   4.901   2.240   7.012 -0.3880  0.8470 -0.2266
17564THY    HA319879   4.873   2.157   6.946 -0.2221  0.0067  0.3700
17564THY    CA419880   5.041   2.273   7.022 -0.7341  0.2997  0.3715
17564THY    HA419881   5.117   2.233   6.955  0.2551 -0.8955  3.9101
17564THY    CA519882   5.076   2.367   7.113  0.0633 -0.8334 -0.1426
17564THY    CM119883   5.222   2.415   7.122 -0.0135  0.2795 -0.9255
17564THY    HM119884   5.264   2.409   7.021 -0.5371 -0.1750  1.7724
17564THY    HM219885   5.284   2.356   7.190  1.4702  1.8682  2.2123
17564THY    HM319886   5.238   2.515   7.165  2.6455 -1.4027 -0.4993
17564THY    CA619887   4.982   2.426   7.194 -0.6195 -0.7008  1.0512
17564THY    HA619888   5.025   2.491   7.270 -0.7285 -1.2086  1.7341
17565THY      O19889   8.289   7.964   2.602  0.4194  0.4543 -0.1338
17565THY     HO19890   8.247   7.878   2.586 -0.2099 -2.5050  0.6089
17565THY    CA119891   8.365   7.956   2.713  0.2742  0.2968 -0.7094
17565THY    CA219892   8.390   8.069   2.793  0.2870 -0.9534 -0.6231
17565THY    CP119893   8.323   8.202   2.758  0.4175  0.0111  0.0476
17565THY    HP119894   8.281   8.200   2.657  1.5524 -0.5330  1.3781
17565THY    CP219895   8.420   8.326   2.770  0.5787 -0.7571  0.4340
17565THY    HP219896   8.358   8.413   2.744 -0.4244  0.6853  0.1893
17565THY    HP319897   8.512   8.320   2.710  1.7673  0.7904  1.9407
17565THY    HP419898   8.444   8.337   2.877 -0.8997 -0.4187  0.5489
17565THY    CP319899   8.206   8.231   2.852  0.4085 -0.0438  0.6173
17565THY    HP519900   8.154   8.322   2.820 -1.9806 -0.7932 -0.9310
17565THY    HP619901   8.230   8.247   2.958  1.1872  0.2452 -2.0482
17565THY    HP719902   8.126   8.158   2.839  0.2671 -0.1837  0.7941
17565THY    CA319903   8.470   8.051   2.911 -0.0436  0.3490 -0.0098
17565THY    HA319904   8.483   8.139   2.973  0.7198 -1.6235  1.3447
17565THY    CA419905   8.515   7.923   2.949 -0.0742  0.0606  0.0592
17565THY    HA419906   8.578   7.908   3.036  1.1581 -1.0011 -1.1639
17565THY    CA519907   8.511   7.828   2.849  0.1202  0.6210  0.2355
17565THY    CM119908   8.590   7.704   2.862 -0.9354  0.2895  0.6153
17565THY    HM119909   8.693   7.711   2.825 -0.1024  1.9503 -1.5301
17565THY    HM219910   8.540   7.628   2.800 -0.9164  0.3995  0.5140
17565THY    HM319911   8.601   7.651   2.957 -0.8814 -0.6480 -1.1411
17565THY    CA619912   8.419   7.838   2.740  0.2692 -0.0829  0.5359
17565THY    HA619913   8.405   7.750   2.678  2.9473 -0.8106  0.5184
17566THY      O19914   5.200   7.002   3.930  0.4740  0.0849  0.1876
17566THY     HO19915   5.200   7.009   4.027  0.8660  0.2371 -1.4039
17566THY    CA119916   5.331   7.023   3.897  0.5169  0.2928  0.2376
17566THY    CA219917   5.389   7.008   3.770  0.5781 -0.3133 -0.3788
17566THY    CP119918   5.301   6.981   3.649  0.4883  0.2276 -0.0389
17566THY    HP119919   5.198   6.959   3.679  0.0058 -1.0887  0.3307
17566THY    CP219920   5.355   6.861   3.564  0.1406  0.8601  0.2498
17566THY    HP219921   5.452   6.881   3.518 -0.7821 -1.7493 -0.8649
17566THY    HP319922   5.293   6.834   3.478  0.0296  0.3869  1.9442
17566THY    HP419923   5.358   6.774   3.631  0.0457  1.3701  0.6366
17566THY    CP319924   5.282   7.103   3.561 -0.9452 -0.1156  0.5739
17566THY    HP519925   5.232   7.182   3.620 -2.4009 -0.3643 -0.1403
17566THY    HP619926   5.225   7.078   3.471 -0.3915 -0.2246 -0.3330
17566THY    HP719927   5.384   7.131   3.532 -1.4227 -2.0392  0.4607
17566THY    CA319928   5.530   7.024   3.762 -0.4582 -0.3199  0.3883
17566THY    HA319929   5.581   7.009   3.668 -1.6522 -1.4450  2.7822
17566THY    CA419930   5.601   7.046   3.876  0.5090 -0.4821  0.4767
17566THY    HA419931   5.708   7.050   3.861  0.5817 -0.9954 -1.8373
17566THY    CA519932   5.538   7.057   4.007 -1.2405  0.4066  0.0437
17566THY    CM119933   5.617   7.072   4.130 -0.6937 -0.0379  0.3632
17566THY    HM119934   5.607   6.981   4.191 -1.3231 -0.3277  0.2330
17566THY    HM219935   5.584   7.149   4.200  0.4822  0.7274  0.2067
17566THY    HM319936   5.725   7.061   4.114 -0.4488 -0.2609  2.6309
17566THY    CA619937   5.399   7.044   4.013 -0.4779 -0.2183  0.2485
17566THY    HA619938   5.351   7.057   4.109 -1.2469 -0.7517  1.5722
17567THY      O19939   1.022   8.189   4.374 -0.1956  0.5897 -0.4760
17567THY     HO19940   1.095   8.133   4.406  2.1940 -0.8733  1.5998
17567THY    CA119941   1.016   8.166   4.242 -0.2392  0.7049  0.0656
17567THY    CA219942   0.938   8.235   4.153  0.3488 -0.3942  0.1636
17567THY    CP119943   0.861   8.361   4.187 -0.2655 -0.2213 -0.4165
17567THY    HP119944   0.893   8.389   4.288  1.5912 -0.1985 -2.3160
17567THY    CP219945   0.715   8.342   4.194  0.0554  0.1789  0.5210
17567THY    HP219946   0.713   8.236   4.221  1.0594  1.2348  0.7652
17567THY    HP319947   0.674   8.363   4.094  0.6435  0.1731  1.7382
17567THY    HP419948   0.669   8.414   4.263 -1.1218 -1.0811  1.0344
17567THY    CP319949   0.886   8.482   4.096  0.0116  1.0561 -0.3845
17567THY    HP519950   0.819   8.566   4.120  0.9119 -0.4112  0.8161
17567THY    HP619951   0.867   8.455   3.991  3.3731  0.4275 -0.7404
17567THY    HP719952   0.989   8.517   4.112 -0.4751  1.3680  0.9772
17567THY    CA319953   0.931   8.197   4.013  0.1504 -0.1548 -0.7988
17567THY    HA319954   0.852   8.244   3.955 -0.1672  0.7935 -0.1260
17567THY    CA419955   1.013   8.086   3.970  0.4522  0.5646  0.4622
17567THY    HA419956   1.009   8.053   3.867  1.4377  0.9372 -0.9202
17567THY    CA519957   1.108   8.027   4.059  0.5026 -0.7159  0.0884
17567THY    CM119958   1.193   7.910   4.011  0.6655 -0.4302  0.0250
17567THY    HM119959   1.249   7.947   3.925  1.1886  0.3552  1.1284
17567THY    HM219960   1.131   7.825   3.978  1.8346  1.4700 -1.6503
17567THY    HM319961   1.257   7.881   4.095  0.9007  0.9032  3.8318
17567THY    CA619962   1.099   8.060   4.193 -0.2411 -0.0835 -0.4802
17567THY    HA619963   1.155   7.997   4.262  1.7160 -1.6359 -0.5378
17568THY      O19964   8.268   5.961   3.454  0.1562 -0.1097  0.1121
17568THY     HO19965   8.330   6.013   3.401  0.2575 -3.3234 -2.8869
17568THY    CA119966   8.225   6.044   3.554  0.9103  0.5228  0.1230
17568THY    CA219967   8.091   6.050   3.603  0.2309  0.1737 -0.3035
17568THY    CP119968   7.986   5.950   3.554 -0.0792  0.7206  0.0461
17568THY    HP119969   8.036   5.870   3.498  0.9875  1.3154  0.2772
17568THY    CP219970   7.872   6.009   3.472 -0.5779 -0.1397  0.2371
17568THY    HP219971   7.825   5.925   3.419  1.5899 -0.5636 -0.7703
17568THY    HP319972   7.906   6.072   3.388 -0.2278 -2.7620 -3.1721
17568THY    HP419973   7.804   6.062   3.540 -0.5833 -0.1385  0.2287
17568THY    CP319974   7.929   5.886   3.674  0.3013  0.6243 -0.0818
17568THY    HP519975   8.007   5.824   3.722  0.5089 -2.7218 -2.6698
17568THY    HP619976   7.845   5.821   3.648 -0.3344 -0.7530  1.2452
17568THY    HP719977   7.884   5.965   3.736 -0.1393  1.5071 -0.9897
17568THY    CA319978   8.059   6.158   3.693 -0.4952 -0.6711  0.2549
17568THY    HA319979   7.961   6.178   3.734 -0.3128 -0.7810  1.4574
17568THY    CA419980   8.159   6.249   3.720  0.6272 -0.3778 -0.4148
17568THY    HA419981   8.133   6.336   3.780  1.6504 -2.7696  1.6593
17568THY    CA519982   8.286   6.239   3.667 -0.6234 -0.0246  0.3085
17568THY    CM119983   8.391   6.329   3.705 -0.4081 -0.3792  0.0072
17568THY    HM119984   8.356   6.391   3.788 -1.1984 -0.3235 -0.5001
17568THY    HM219985   8.413   6.388   3.615 -0.8060 -0.8426 -0.5282
17568THY    HM319986   8.478   6.274   3.744 -1.3795  1.0086 -0.5839
17568THY    CA619987   8.317   6.131   3.588  0.5011  0.3821 -0.2050
17568THY    HA619988   8.421   6.122   3.556  0.8461  0.5240  2.4332
17569THY      O19989   1.946   0.923   4.190  0.2437  0.2847  0.0732
17569THY     HO19990   1.937   0.929   4.093 -1.5077  0.5160  2.1788
17569THY    CA119991   1.826   0.879   4.237  0.0606  0.3322 -0.3450
17569THY    CA219992   1.799   0.863   4.377  0.4142  0.0827 -0.0651
17569THY    CP119993   1.899   0.905   4.490 -0.2573  0.6683  0.5351
17569THY    HP119994   2.004   0.915   4.460 -0.1806  0.6710 -0.1859
17569THY    CP219995   1.905   0.797   4.600 -0.0363 -0.2467  0.4513
17569THY    HP219996   1.990   0.819   4.665 -1.1650  0.7943  1.9455
17569THY    HP319997   1.905   0.701   4.546 -4.7067  2.9395 -1.7849
17569THY    HP419998   1.810   0.802   4.655 -0.8958 -1.6341  0.0206
17569THY    CP319999   1.856   1.038   4.547 -0.1486  0.0334 -0.4400
17569THY    HP520000   1.936   1.081   4.608 -2.8637  0.7597  4.2852
17569THY    HP620001   1.778   1.024   4.623  1.6775  1.8677 -1.1761
17569THY    HP720002   1.837   1.115   4.472 -0.8990  0.0140 -0.6352
17569THY    CA320003   1.669   0.815   4.413 -0.0700  0.1324  0.6123
17569THY    HA320004   1.640   0.810   4.518 -1.0414 -0.1229  0.6473
17569THY    CA420005   1.579   0.773   4.318  0.2190  0.2848 -0.2710
17569THY    HA420006   1.484   0.731   4.349 -0.0502 -0.0834  0.0709
17569THY    CA520007   1.605   0.790   4.182 -0.2520 -0.0977 -0.3393
17569THY    CM120008   1.510   0.735   4.074  0.1259 -0.3219 -0.1824
17569THY    HM120009   1.406   0.749   4.105  0.0084  0.4524 -2.3371
17569THY    HM220010   1.513   0.629   4.046 -4.4338 -1.4376 -0.2227
17569THY    HM320011   1.523   0.784   3.977  0.6445 -0.6728 -0.9890
17569THY    CA620012   1.732   0.841   4.145 -0.8546  0.2033  0.3269
17569THY    HA620013   1.755   0.833   4.039 -1.7121 -0.0340  0.8595
17570THY      O20014   6.695   8.975   2.550 -0.4989 -0.2765 -0.1917
17570THY     HO20015   6.753   8.902   2.520  0.3070  1.8628 -0.4948
17570THY    CA120016   6.604   8.912   2.625  0.1802  0.5309  0.1463
17570THY    CA220017   6.510   8.967   2.709  0.2913  0.7711 -0.1943
17570THY    CP120018   6.505   9.117   2.719 -0.9374 -0.6841 -0.1388
17570THY    HP120019   6.557   9.168   2.638 -1.8784 -0.6063  1.0027
17570THY    CP220020   6.587   9.171   2.846  0.2199 -0.1445 -0.6143
17570THY    HP220021   6.554   9.135   2.944  1.2257  0.2256 -0.5555
17570THY    HP320022   6.589   9.280   2.842 -0.7662 -0.4598 -0.5998
17570THY    HP420023   6.692   9.139   2.841 -0.2897 -1.3747 -2.2411
17570THY    CP320024   6.364   9.185   2.715  0.0286  0.0994 -0.1066
17570THY    HP520025   6.306   9.177   2.622  0.7708 -0.3329 -0.5911
17570THY    HP620026   6.372   9.294   2.728 -0.7593  1.2330 -0.1716
17570THY    HP720027   6.293   9.150   2.790  1.0599 -0.1987 -3.0906
17570THY    CA320028   6.432   8.887   2.795  0.3735  0.1383 -0.2367
17570THY    HA320029   6.366   8.931   2.869 -0.6009  0.5319 -2.2597
17570THY    CA420030   6.443   8.748   2.788  0.1082 -0.2770  0.2730
17570THY    HA420031   6.387   8.680   2.851 -1.3598  0.5723  2.1827
17570THY    CA520032   6.530   8.692   2.705  0.5511  0.1541 -0.2428
17570THY    CM120033   6.537   8.547   2.689 -0.0721 -0.9427  0.8500
17570THY    HM120034   6.487   8.511   2.598  0.0367 -0.2236 -1.2883
17570THY    HM220035   6.491   8.494   2.773  1.1687 -0.2351  0.8610
17570THY    HM320036   6.640   8.510   2.682 -0.8275 -0.1652 -1.6005
17570THY    CA620037   6.611   8.776   2.623 -0.5117 -0.1164  0.3746
17570THY    HA620038   6.685   8.719   2.568 -0.1843  0.6403  0.0449
17571THY      O20039   3.430   0.883   3.331  0.1462 -0.2598 -1.0757
17571THY     HO20040   3.424   0.933   3.248  2.3173 -0.5122 -1.1478
17571THY    CA120041   3.357   0.951   3.433 -0.1736  0.0793 -0.1561
17571THY    CA220042   3.273   0.873   3.518 -0.4005 -0.1192 -0.4704
17571THY    CP120043   3.256   0.722   3.497 -0.0697 -0.6195  0.5896
17571THY    HP120044   3.307   0.688   3.405  1.6803  0.3321  0.5146
17571THY    CP220045   3.105   0.694   3.462  0.0622 -0.2297 -0.0479
17571THY    HP220046   3.092   0.728   3.359 -0.0138 -0.0921  0.3378
17571THY    HP320047   3.031   0.744   3.524  0.7452 -1.1845  2.2549
17571THY    HP420048   3.084   0.586   3.456 -0.3017 -0.6313  0.0430
17571THY    CP320049   3.297   0.616   3.604  0.5658 -0.1542  0.4621
17571THY    HP520050   3.212   0.602   3.672  1.0456  0.5690  1.0070
17571THY    HP620051   3.381   0.653   3.664 -0.8486  0.5544  2.7507
17571THY    HP720052   3.311   0.520   3.554 -0.7930 -1.3903  0.8668
17571THY    CA320053   3.211   0.940   3.622 -0.3207  0.0062  0.2578
17571THY    HA320054   3.164   0.879   3.699  0.2752 -0.1877 -0.4727
17571THY    CA420055   3.214   1.082   3.626  0.5969 -0.5316 -0.4391
17571THY    HA420056   3.170   1.133   3.711  1.1954 -1.1269  1.1457
17571THY    CA520057   3.292   1.156   3.536  0.7811  0.0083  0.4600
17571THY    CM120058   3.311   1.300   3.542 -0.3400 -0.8015  0.2031
17571THY    HM120059   3.219   1.359   3.553  0.5513 -0.3586  1.5681
17571THY    HM220060   3.351   1.344   3.450  2.3014  0.3174  0.2841
17571THY    HM320061   3.382   1.328   3.620 -0.2012  0.0404 -2.2439
17571THY    CA620062   3.366   1.089   3.439  0.0785 -0.4349  0.0765
17571THY    HA620063   3.431   1.144   3.371  1.9391  1.1049 -0.0912
17572THY      O20064   6.142   8.860   2.644  0.4206 -0.6271 -0.1276
17572THY     HO20065   6.228   8.903   2.630 -0.8310  0.8957  3.2497
17572THY    CA120066   6.154   8.755   2.558 -0.5819  0.6265  0.4646
17572THY    CA220067   6.052   8.660   2.527 -0.0683 -0.1774  0.1208
17572THY    CP120068   5.928   8.665   2.614 -0.1503  0.5094 -0.1867
17572THY    HP120069   5.890   8.767   2.626 -2.2131 -0.2520 -0.8212
17572THY    CP220070   5.952   8.603   2.752  0.1670  0.2963  0.1330
17572THY    HP220071   6.041   8.646   2.799 -0.4413 -0.0764  1.8799
17572THY    HP320072   5.970   8.496   2.739  0.2047  0.6262  0.0994
17572THY    HP420073   5.871   8.617   2.824 -0.5013 -0.4428  0.1192
17572THY    CP320074   5.814   8.593   2.552  0.2658 -0.0026 -0.7835
17572THY    HP520075   5.831   8.488   2.525 -2.1732  1.9155 -1.7901
17572THY    HP620076   5.796   8.641   2.456  0.3815  1.0295  1.4505
17572THY    HP720077   5.724   8.591   2.616  1.4530  1.7848 -3.8531
17572THY    CA320078   6.077   8.573   2.420 -0.4127  0.6269  1.1440
17572THY    HA320079   5.996   8.511   2.382  0.5517  0.2489  0.0618
17572THY    CA420080   6.206   8.571   2.353  0.5594 -0.4252 -0.1436
17572THY    HA420081   6.217   8.503   2.269  1.5439 -0.9412  0.6212
17572THY    CA520082   6.309   8.650   2.398 -0.2841  0.0444  0.2709
17572THY    CM120083   6.446   8.652   2.326  0.3253  0.3565  0.1168
17572THY    HM120084   6.489   8.752   2.320 -1.2268 -1.8789  0.7426
17572THY    HM220085   6.425   8.605   2.228 -0.2943  1.9099 -3.1511
17572THY    HM320086   6.506   8.575   2.376  1.2320 -0.2495  0.4012
17572THY    CA620087   6.278   8.751   2.487 -0.6900 -0.3438  0.5440
17572THY    HA620088   6.363   8.816   2.508  1.4139  0.0844 -2.1556
17573THY      O20089   5.275   0.394   5.198 -0.0533  0.3655 -0.3110
17573THY     HO20090   5.259   0.482   5.159  0.6499  0.3864 -0.1670
17573THY    CA120091   5.188   0.312   5.134 -0.0486  0.2897 -0.1872
17573THY    CA220092   5.234   0.216   5.042  0.0035  0.4292  0.4745
17573THY    CP120093   5.385   0.218   5.008  0.5694  0.3627 -0.5269
17573THY    HP120094   5.447   0.250   5.092 -2.2521  1.7383  1.8464
17573THY    CP220095   5.395   0.319   4.895  0.4696  0.2667  0.7770
17573THY    HP220096   5.502   0.338   4.881  0.9894  1.3010 -1.1319
17573THY    HP320097   5.361   0.412   4.943  2.6910  3.7504 -0.0043
17573THY    HP420098   5.326   0.308   4.811 -1.5618  2.0640 -1.4560
17573THY    CP320099   5.427   0.085   4.951 -0.4383  0.3637  0.4480
17573THY    HP520100   5.397   0.003   5.018  0.1065 -0.8354 -0.7789
17573THY    HP620101   5.537   0.079   4.947 -0.5039 -1.4380 -0.1800
17573THY    HP720102   5.394   0.063   4.849  1.1827  0.2849 -2.0893
17573THY    CA320103   5.136   0.125   4.986 -0.1469 -0.3435  0.0937
17573THY    HA320104   5.161   0.047   4.916  0.6632 -0.2472  0.2597
17573THY    CA420105   5.001   0.138   5.024  0.2578 -0.4082  0.6104
17573THY    HA420106   4.929   0.066   4.986 -0.7244  1.4141  0.5551
17573THY    CA520107   4.962   0.243   5.108 -0.1403  0.3067  1.0983
17573THY    CM120108   4.816   0.262   5.137 -0.0448  0.0810  0.0536
17573THY    HM120109   4.806   0.322   5.228 -0.7487  0.4284 -0.5741
17573THY    HM220110   4.766   0.168   5.161  0.2301 -0.3356 -0.2037
17573THY    HM320111   4.762   0.307   5.053 -1.3027 -0.5345 -2.3969
17573THY    CA620112   5.057   0.325   5.171 -0.2670  0.3085  0.0597
17573THY    HA620113   5.022   0.404   5.237  1.1828  0.5050  0.5775
17574THY      O20114   4.695   8.630   3.176 -0.1839  0.4441 -0.1606
17574THY     HO20115   4.631   8.652   3.106 -0.5188  0.4288 -1.1152
17574THY    CA120116   4.820   8.633   3.120  0.3537  0.0228  0.1831
17574THY    CA220117   4.935   8.638   3.198 -0.3496 -0.3422  0.6633
17574THY    CP120118   4.927   8.654   3.353 -0.1769  0.0146 -0.1040
17574THY    HP120119   4.822   8.679   3.372 -0.4942  0.0845 -1.3782
17574THY    CP220120   5.032   8.748   3.407  0.1505 -0.4275 -0.4888
17574THY    HP220121   5.022   8.841   3.351 -1.0023  1.2984  0.4747
17574THY    HP320122   5.133   8.713   3.384  1.6321  0.0832  3.0778
17574THY    HP420123   5.017   8.772   3.513 -0.0627 -0.6909  0.5638
17574THY    CP320124   4.946   8.520   3.423  0.5852 -0.3835  0.8097
17574THY    HP520125   4.871   8.445   3.394  2.4355  1.1261 -1.8003
17574THY    HP620126   4.933   8.539   3.530 -0.6497 -0.2528 -0.5714
17574THY    HP720127   5.046   8.481   3.400  0.7746  1.3063  0.2285
17574THY    CA320128   5.056   8.641   3.131  0.3601  0.2967 -0.1638
17574THY    HA320129   5.152   8.638   3.183  0.8704 -0.6231 -0.1682
17574THY    CA420130   5.057   8.636   2.993 -0.0646 -0.6283 -0.4601
17574THY    HA420131   5.153   8.646   2.943  0.0175 -0.0176  3.2710
17574THY    CA520132   4.939   8.642   2.915 -0.5163 -0.3195 -0.5760
17574THY    CM120133   4.940   8.645   2.761  0.3228  0.2024 -0.2684
17574THY    HM120134   4.847   8.604   2.722 -0.9667  0.9376  1.7821
17574THY    HM220135   5.028   8.581   2.744  0.3324  1.4606 -0.6254
17574THY    HM320136   4.947   8.748   2.724 -3.3209 -0.5390 -0.1507
17574THY    CA620137   4.823   8.633   2.985 -0.5128 -0.1672  0.3045
17574THY    HA620138   4.728   8.626   2.933 -0.2164 -0.5011 -3.3909
17575THY      O20139   5.207   4.233   5.996  0.3865  0.0127  0.0729
17575THY     HO20140   5.217   4.329   5.988  2.7422  1.4296  0.0260
17575THY    CA120141   5.283   4.189   5.891  0.2632  0.5774  0.4757
17575THY    CA220142   5.291   4.052   5.855 -0.1131  1.0402 -0.5154
17575THY    CP120143   5.226   3.942   5.939 -0.1790 -0.0912 -0.0724
17575THY    HP120144   5.160   3.988   6.013 -1.9188  0.2629 -2.8963
17575THY    CP220145   5.330   3.877   6.033 -0.8440  0.0530 -0.1439
17575THY    HP220146   5.399   3.819   5.970  1.5287  0.4306  2.1045
17575THY    HP320147   5.282   3.812   6.108 -1.4115 -1.4744 -1.5599
17575THY    HP420148   5.389   3.956   6.079  0.0191 -0.7658 -0.2957
17575THY    CP320149   5.154   3.849   5.841  0.4740 -0.2013 -0.1208
17575THY    HP520150   5.226   3.774   5.807 -1.1666 -2.7398 -0.6808
17575THY    HP620151   5.121   3.911   5.757 -1.8329  1.2755  0.7860
17575THY    HP720152   5.072   3.791   5.886  0.1213  0.8461  1.1523
17575THY    CA320153   5.381   4.018   5.749 -0.6079  0.7785 -0.1644
17575THY    HA320154   5.387   3.914   5.718 -2.5169  1.0225 -0.3876
17575THY    CA420155   5.438   4.115   5.667  0.4143  0.6387 -0.3813
17575THY    HA420156   5.487   4.098   5.572 -0.7903 -0.4328  1.6940
17575THY    CA520157   5.430   4.248   5.714 -0.3192 -0.9523  0.1940
17575THY    CM120158   5.471   4.359   5.622  0.5245 -0.2766  0.3317
17575THY    HM120159   5.561   4.407   5.663  0.0720  0.6911  0.3765
17575THY    HM220160   5.392   4.435   5.610  0.7270 -1.9735  0.3042
17575THY    HM320161   5.497   4.314   5.526 -1.7087 -0.7249 -0.1140
17575THY    CA620162   5.348   4.288   5.821 -0.4018  0.2407 -0.6499
17575THY    HA620163   5.331   4.392   5.846  2.3320  1.2273 -0.3541
17576THY      O20164   6.374   6.992   3.997 -0.5408  0.6316 -0.1219
17576THY     HO20165   6.428   6.990   3.917 -1.5027 -0.0472  0.1625
17576THY    CA120166   6.366   6.862   4.038 -0.0174 -0.2812 -0.3869
17576THY    CA220167   6.319   6.831   4.167  0.4370 -0.4566 -0.4720
17576THY    CP120168   6.289   6.942   4.263 -0.3648  0.5266 -0.5278
17576THY    HP120169   6.319   7.040   4.223  2.5366 -0.1627 -1.5852
17576THY    CP220170   6.349   6.932   4.407  0.3716  0.0882 -0.2052
17576THY    HP220171   6.370   6.827   4.429 -2.2918 -0.1798 -0.8451
17576THY    HP320172   6.279   6.981   4.475 -3.5008 -2.0646 -2.2988
17576THY    HP420173   6.446   6.984   4.409  0.2260 -0.4529  0.1036
17576THY    CP320174   6.139   6.950   4.276 -0.6417 -0.1437 -0.1108
17576THY    HP520175   6.091   6.949   4.177  1.4085 -1.3081 -4.2591
17576THY    HP620176   6.124   7.041   4.335  0.9057  0.9968 -0.5475
17576THY    HP720177   6.099   6.864   4.331 -0.0842 -1.0836 -1.0025
17576THY    CA320178   6.303   6.694   4.210  0.1272  0.6922 -0.1239
17576THY    HA320179   6.266   6.666   4.308 -0.3319  0.3045 -0.9202
17576THY    CA420180   6.349   6.598   4.115 -0.3665 -0.4449  0.4552
17576THY    HA420181   6.329   6.494   4.139  3.4553  1.2173 -0.0596
17576THY    CA520182   6.386   6.635   3.986 -0.3388 -0.3198 -0.0062
17576THY    CM120183   6.406   6.525   3.886  0.0398 -0.6160 -0.0166
17576THY    HM120184   6.513   6.508   3.868  0.1716 -0.0104  0.1249
17576THY    HM220185   6.368   6.556   3.788  0.5312 -0.2643  1.8140
17576THY    HM320186   6.353   6.434   3.917 -0.7616 -4.4179 -0.9910
17576THY    CA620187   6.395   6.764   3.950  0.0946  0.2213 -0.6774
17576THY    HA620188   6.425   6.790   3.848  3.4180  1.2526 -0.0203
17577THY      O20189   4.733   6.769   4.602 -0.4476  0.1245  0.0268
17577THY     HO20190   4.770   6.833   4.666 -0.1017  2.3444 -2.2278
17577THY    CA120191   4.828   6.671   4.593  0.2793 -0.4178  0.1535
17577THY    CA220192   4.793   6.542   4.572  0.4598  0.0452 -0.2291
17577THY    CP120193   4.647   6.501   4.559  1.4243 -0.8206  0.3067
17577THY    HP120194   4.590   6.586   4.598 -0.2202 -1.5470 -0.4156
17577THY    CP220195   4.613   6.369   4.627 -0.0095  0.5530 -0.6837
17577THY    HP220196   4.504   6.363   4.631 -0.0965  0.5637  0.5843
17577THY    HP320197   4.649   6.374   4.730  0.7764  0.2821 -0.5668
17577THY    HP420198   4.666   6.282   4.586  3.4296  1.7985  0.6676
17577THY    CP320199   4.616   6.502   4.407  0.0681  0.1286 -0.3067
17577THY    HP520200   4.687   6.436   4.356 -0.4055 -0.6285 -0.2475
17577THY    HP620201   4.629   6.601   4.361  1.8104 -0.5156 -0.7936
17577THY    HP720202   4.513   6.466   4.396 -1.5064  4.2368  2.1922
17577THY    CA320203   4.899   6.444   4.574  0.0371 -0.4736  0.0242
17577THY    HA320204   4.880   6.338   4.557  0.2012 -0.3071 -0.0323
17577THY    CA420205   5.035   6.477   4.598  0.5818 -0.1422  0.7474
17577THY    HA420206   5.118   6.407   4.591  0.7645 -0.6945  1.0085
17577THY    CA520207   5.065   6.615   4.616  0.4924 -0.2899  0.4456
17577THY    CM120208   5.204   6.668   4.632  0.5047  0.5391  0.1109
17577THY    HM120209   5.216   6.766   4.585  1.2580  0.3575 -0.0620
17577THY    HM220210   5.270   6.600   4.576 -2.2313  0.0401 -2.3163
17577THY    HM320211   5.243   6.678   4.734 -0.9186  0.8749  3.7138
17577THY    CA620212   4.965   6.708   4.605  0.2588 -0.4440  0.7981
17577THY    HA620213   4.998   6.811   4.619  3.1427  2.0109 -0.3211
17578THY      O20214   2.211   8.422   2.364  0.0550  0.0241 -0.7254
17578THY     HO20215   2.216   8.371   2.282 -0.1421  0.7898 -2.0215
17578THY    CA120216   2.332   8.476   2.390  0.0082 -0.3600  0.9476
17578THY    CA220217   2.368   8.514   2.519  0.8546  0.2805 -0.0368
17578THY    CP120218   2.265   8.488   2.632 -0.2538 -0.4834 -0.0598
17578THY    HP120219   2.166   8.457   2.594  0.4949 -0.8102 -2.2573
17578THY    CP220220   2.260   8.607   2.737  0.3736 -0.1194  0.2652
17578THY    HP220221   2.340   8.601   2.812 -1.4169  1.9448  0.7645
17578THY    HP320222   2.165   8.603   2.791 -1.5180 -3.2019  0.1133
17578THY    HP420223   2.269   8.701   2.682 -0.1512 -0.4925  0.0998
17578THY    CP320224   2.303   8.371   2.726 -0.4365  0.1380  0.3059
17578THY    HP520225   2.286   8.272   2.683  1.8957  1.1982 -0.6260
17578THY    HP620226   2.242   8.358   2.816 -0.9237  0.1129  2.0869
17578THY    HP720227   2.410   8.368   2.753 -0.5041  0.3306 -1.7677
17578THY    CA320228   2.492   8.585   2.534  0.1338  0.0228  0.1284
17578THY    HA320229   2.530   8.617   2.631  2.4858 -0.4662 -0.9749
17578THY    CA420230   2.579   8.594   2.423 -0.3517  0.3690  0.4162
17578THY    HA420231   2.683   8.619   2.442 -0.1513  1.8203 -1.3641
17578THY    CA520232   2.545   8.542   2.299 -0.0476 -0.1994 -0.0999
17578THY    CM120233   2.653   8.535   2.189 -1.0043 -0.1173  0.5889
17578THY    HM120234   2.670   8.639   2.159  1.5959  0.6964  0.4588
17578THY    HM220235   2.619   8.458   2.118 -3.0548  1.3142  0.0904
17578THY    HM320236   2.751   8.509   2.230 -0.5847  0.5447  2.9665
17578THY    CA620237   2.418   8.485   2.276  0.0720  0.0729 -0.6384
17578THY    HA620238   2.386   8.444   2.181 -0.7865  0.1315 -0.1267
17579THY      O20239   3.628   7.018   4.994  0.4584 -0.2833  0.1374
17579THY     HO20240   3.555   6.976   4.945 -0.3492 -0.4107  1.6125
17579THY    CA120241   3.741   6.951   4.986 -0.5097 -0.4957 -0.8116
17579THY    CA220242   3.851   6.991   5.056 -0.3168 -0.7214  0.0729
17579THY    CP120243   3.840   7.097   5.161 -0.2594 -0.3654 -0.6861
17579THY    HP120244   3.742   7.146   5.157  0.8314 -1.7656  1.5175
17579THY    CP220245   3.930   7.218   5.126  0.8980  0.2710 -0.5265
17579THY    HP220246   3.926   7.243   5.019  0.9319  0.3299 -0.2686
17579THY    HP320247   4.038   7.215   5.145  0.7069  1.6622  0.3999
17579THY    HP420248   3.883   7.308   5.168 -0.4329 -1.6324 -0.2602
17579THY    CP320249   3.867   7.046   5.307 -0.2066 -0.7954 -0.0180
17579THY    HP520250   3.970   7.012   5.323 -0.0240 -1.7392  0.0590
17579THY    HP620251   3.796   6.962   5.314  0.0545  0.8070 -0.1488
17579THY    HP720252   3.826   7.115   5.381  1.3066  0.5222 -0.4615
17579THY    CA320253   3.967   6.922   5.046  0.4272 -0.3339  0.3717
17579THY    HA320254   4.053   6.953   5.105  1.6643 -1.3479 -0.9892
17579THY    CA420255   3.972   6.812   4.963  0.0107  0.2038 -0.5631
17579THY    HA420256   4.066   6.756   4.960  0.5204 -2.2990  0.2929
17579THY    CA520257   3.865   6.778   4.889 -0.2056  0.5423  0.9978
17579THY    CM120258   3.878   6.644   4.816  0.2807  0.2687  0.1805
17579THY    HM120259   3.957   6.578   4.855 -1.0856  1.7238 -0.6721
17579THY    HM220260   3.899   6.664   4.711 -0.4715  0.3912  1.7423
17579THY    HM320261   3.780   6.594   4.820  1.1108  1.7812 -1.4400
17579THY    CA620262   3.744   6.840   4.905 -0.0038 -0.0076 -0.4444
17579THY    HA620263   3.656   6.811   4.849  0.0876  0.2741 -1.2948
17580THY      O20264   2.060   2.119   4.590  0.6629 -0.3504 -0.1936
17580THY     HO20265   2.033   2.058   4.520  0.7069 -0.8493  0.3571
17580THY    CA120266   2.125   2.224   4.541 -0.7859  0.4393  0.5921
17580THY    CA220267   2.223   2.288   4.615  0.1720  0.0014 -0.0194
17580THY    CP120268   2.246   2.276   4.769  0.1936 -0.6371  0.1428
17580THY    HP120269   2.187   2.195   4.814  0.0438  1.3772  1.3021
17580THY    CP220270   2.195   2.388   4.859 -1.1832 -0.1923 -0.0025
17580THY    HP220271   2.234   2.487   4.832 -0.8572 -2.1829 -0.6275
17580THY    HP320272   2.217   2.366   4.964  0.5972 -0.7685 -1.2135
17580THY    HP420273   2.088   2.409   4.847 -0.4874 -3.7727  2.4549
17580THY    CP320274   2.400   2.254   4.803  0.3879 -0.4733 -0.2674
17580THY    HP520275   2.447   2.187   4.730 -0.3521 -1.1369 -0.0758
17580THY    HP620276   2.414   2.216   4.905  0.6269 -0.6119 -0.5497
17580THY    HP720277   2.458   2.347   4.795  0.8368  0.9214 -0.4029
17580THY    CA320278   2.295   2.390   4.550 -0.4813  0.7870  0.5510
17580THY    HA320279   2.376   2.440   4.604  2.3271 -2.8832  0.3537
17580THY    CA420280   2.259   2.429   4.414 -0.5512 -0.3379  0.1940
17580THY    HA420281   2.297   2.519   4.367 -2.7827  2.2706  2.7105
17580THY    CA520282   2.166   2.353   4.347  0.1513 -0.0841  0.1064
17580THY    CM120283   2.115   2.396   4.210 -0.1062  0.3116 -0.4524
17580THY    HM120284   2.052   2.315   4.170 -0.3239  0.4889 -0.3736
17580THY    HM220285   2.197   2.418   4.140  2.1913  1.9414 -3.1878
17580THY    HM320286   2.045   2.480   4.219 -0.8143  1.8819 -1.1697
17580THY    CA620287   2.099   2.253   4.410  0.0450  0.1587 -0.2353
17580THY    HA620288   2.016   2.200   4.364 -0.6618  0.4504  0.5946
17581THY      O20289   2.548   5.260   5.788  0.0563 -0.1598  0.1006
17581THY     HO20290   2.482   5.189   5.796 -1.2361 -0.1234  1.2517
17581THY    CA120291   2.473   5.373   5.776 -0.8898 -0.8117 -0.2508
17581THY    CA220292   2.542   5.492   5.794 -0.3189  0.9451 -0.0930
17581THY    CP120293   2.694   5.490   5.807  0.2895 -0.5398  0.9184
17581THY    HP120294   2.731   5.387   5.822 -0.9208 -0.2093  0.5187
17581THY    CP220295   2.738   5.573   5.933  0.2681  0.0233 -0.0818
17581THY    HP220296   2.678   5.551   6.022 -1.7273 -1.0485  0.6993
17581THY    HP320297   2.737   5.679   5.904  1.0642  1.4202  0.3316
17581THY    HP420298   2.842   5.551   5.958  0.5138  0.3339  1.3296
17581THY    CP320299   2.769   5.539   5.682  0.4210  0.2067 -0.4298
17581THY    HP520300   2.873   5.570   5.697  0.2796 -0.6321  0.4832
17581THY    HP620301   2.723   5.632   5.647  0.1231 -2.4156 -1.4703
17581THY    HP720302   2.761   5.469   5.598  0.9127  0.3049 -0.6013
17581THY    CA320303   2.469   5.609   5.775  0.1559 -0.5078  0.0545
17581THY    HA320304   2.519   5.705   5.779 -1.7815 -2.5302  1.2505
17581THY    CA420305   2.329   5.597   5.758  0.1173 -0.3119  0.0933
17581THY    HA420306   2.277   5.692   5.759  0.9855  0.3685  0.5749
17581THY    CA520307   2.261   5.476   5.753 -0.0300 -0.5380  0.3595
17581THY    CM120308   2.112   5.472   5.758 -0.4633 -0.4493 -0.2273
17581THY    HM120309   2.072   5.569   5.727  0.4566  0.1061  0.3461
17581THY    HM220310   2.080   5.437   5.857  1.1778 -0.5868 -2.3235
17581THY    HM320311   2.075   5.393   5.692 -0.9686  0.8088 -1.0862
17581THY    CA620312   2.336   5.361   5.762  0.1530 -1.2237  0.1883
17581THY    HA620313   2.290   5.263   5.754 -0.9368 -1.2249  0.6783
17582THY      O20314   1.972   8.274   2.599  0.1277  0.3929 -0.4227
17582THY     HO20315   1.940   8.333   2.528  3.3128 -0.1630  0.8451
17582THY    CA120316   1.952   8.331   2.716  0.0625  0.1878  0.8498
17582THY    CA220317   1.949   8.254   2.835  0.1352 -0.2014  0.5371
17582THY    CP120318   1.998   8.115   2.836  0.4308  0.0210  0.3280
17582THY    HP120319   2.074   8.094   2.760  1.5552  2.2187 -5.1323
17582THY    CP220320   1.880   8.023   2.802 -0.1365  0.1230 -0.1875
17582THY    HP220321   1.837   8.048   2.704  0.5909 -0.5789 -1.5770
17582THY    HP320322   1.798   8.046   2.872 -0.5618 -1.0344  2.1325
17582THY    HP420323   1.910   7.918   2.806  0.4044  0.6424 -0.0169
17582THY    CP320324   2.054   8.066   2.970  0.6182  0.2549  0.1933
17582THY    HP520325   2.154   8.107   2.991  0.4684  1.3840 -0.0122
17582THY    HP620326   2.062   7.957   2.957  1.3854  0.6951  0.1872
17582THY    HP720327   1.994   8.085   3.059  2.0192  1.2448  0.1017
17582THY    CA320328   1.907   8.318   2.956 -1.1720  0.5587  0.3846
17582THY    HA320329   1.907   8.267   3.052 -2.7721  1.4430  1.9778
17582THY    CA420330   1.883   8.450   2.954 -0.5696 -0.1307 -1.2352
17582THY    HA420331   1.849   8.505   3.041 -1.1847 -1.6590  0.9868
17582THY    CA520332   1.884   8.527   2.838 -1.0370  0.3086 -0.3096
17582THY    CM120333   1.853   8.676   2.837 -0.2129 -0.1301 -0.1282
17582THY    HM120334   1.884   8.731   2.747  0.9134  0.8134  0.8221
17582THY    HM220335   1.915   8.727   2.912 -0.2394 -0.5534  0.5307
17582THY    HM320336   1.749   8.680   2.869  0.1113  1.0368 -0.7593
17582THY    CA620337   1.916   8.465   2.719  0.4092 -0.3581  0.1066
17582THY    HA620338   1.922   8.519   2.625  0.3977 -1.0978 -1.1312
17583THY      O20339   4.892   4.808   6.681  0.0900  0.3925 -0.2669
17583THY     HO20340   4.943   4.783   6.602 -0.6374  0.4518 -2.1740
17583THY    CA120341   4.845   4.695   6.725 -0.8958  0.2894  0.3358
17583THY    CA220342   4.845   4.662   6.863 -0.4170  0.7598 -0.4542
17583THY    CP120343   4.908   4.761   6.961 -0.4155 -0.3138  0.1900
17583THY    HP120344   4.893   4.868   6.940  1.3002  0.1783  0.5589
17583THY    CP220345   5.061   4.746   6.951 -0.0856  0.2069 -0.2097
17583THY    HP220346   5.116   4.827   7.002 -0.8237 -0.6764  0.8860
17583THY    HP320347   5.099   4.739   6.848  3.2245  1.3848 -1.6308
17583THY    HP420348   5.090   4.650   6.994  0.3574  0.3555 -0.0149
17583THY    CP320349   4.854   4.745   7.106 -0.6399  0.1464  0.0028
17583THY    HP520350   4.745   4.746   7.118 -0.6524  0.0109  0.4150
17583THY    HP620351   4.893   4.820   7.175  0.4998  2.1225 -2.2571
17583THY    HP720352   4.877   4.650   7.156  1.2682 -0.3287  0.1779
17583THY    CA320353   4.811   4.528   6.895  0.5666  0.2096 -0.4630
17583THY    HA320354   4.811   4.494   6.998 -1.7937  0.5070  0.2651
17583THY    CA420355   4.771   4.433   6.790  0.1296 -0.3694 -0.4607
17583THY    HA420356   4.762   4.328   6.814 -0.8099  3.3019  0.3363
17583THY    CA520357   4.776   4.472   6.659 -0.4270  0.1400  0.1739
17583THY    CM120358   4.739   4.382   6.546  0.4613  0.2788  0.6701
17583THY    HM120359   4.826   4.381   6.479  0.4813  0.3085 -0.3064
17583THY    HM220360   4.655   4.424   6.490 -0.3457  0.4990 -0.6215
17583THY    HM320361   4.722   4.277   6.573  2.1362 -0.7201  0.0961
17583THY    CA620362   4.809   4.602   6.633 -0.0798  0.3363 -0.1549
17583THY    HA620363   4.818   4.630   6.529 -1.6215  0.4913  1.0137
17584THY      O20364   4.661   7.344   3.410  0.0923 -0.6716  0.0876
17584THY     HO20365   4.598   7.393   3.354 -1.3415  1.0039  0.2928
17584THY    CA120366   4.590   7.305   3.522  0.2703 -0.4101  0.6407
17584THY    CA220367   4.651   7.264   3.644 -0.0494  0.1135  0.4770
17584THY    CP120368   4.798   7.294   3.674  0.0065 -0.0518 -0.5691
17584THY    HP120369   4.852   7.340   3.591 -0.3187  0.4776  0.8531
17584THY    CP220370   4.879   7.164   3.718  0.2823  0.3235 -0.2251
17584THY    HP220371   4.981   7.192   3.744  0.5651 -1.9956  1.2094
17584THY    HP320372   4.899   7.105   3.628  2.0535 -0.1384  0.9979
17584THY    HP420373   4.816   7.098   3.779 -2.3678 -2.7919 -0.8713
17584THY    CP320374   4.811   7.409   3.785  0.1354  0.1098  0.0469
17584THY    HP520375   4.915   7.414   3.820 -0.2480  1.5074 -1.1024
17584THY    HP620376   4.740   7.375   3.862  1.4880  0.8500 -1.2378
17584THY    HP720377   4.787   7.507   3.741  3.0977  0.1777  0.9163
17584THY    CA320378   4.569   7.222   3.754  0.3259  0.7510  0.2426
17584THY    HA320379   4.610   7.207   3.853 -2.4105  2.2146  1.7881
17584THY    CA420380   4.431   7.205   3.738 -0.5409  0.6112 -0.7098
17584THY    HA420381   4.370   7.180   3.824 -1.0933  0.7456  0.9211
17584THY    CA520382   4.373   7.257   3.618  0.3194 -0.2047  0.3754
17584THY    CM120383   4.218   7.236   3.590 -0.3253 -0.7916 -0.2151
17584THY    HM120384   4.177   7.320   3.532 -1.2087 -0.2157 -0.2367
17584THY    HM220385   4.153   7.218   3.676 -1.3653 -1.7910 -1.4029
17584THY    HM320386   4.206   7.154   3.519  0.2079 -1.3231  0.1523
17584THY    CA620387   4.453   7.302   3.513 -0.0650 -0.0708 -0.2247
17584THY    HA620388   4.412   7.326   3.415  2.1595 -0.9040  0.4499
17585THY      O20389   0.308   1.822   6.090 -0.7348  0.2778  0.1901
17585THY     HO20390   0.257   1.866   6.021 -0.8708  0.1994 -0.0860
17585THY    CA120391   0.332   1.903   6.200 -0.1998 -0.4731  0.8518
17585THY    CA220392   0.410   1.857   6.313 -0.5381  0.8616  0.2430
17585THY    CP120393   0.484   1.723   6.301 -0.4736 -0.1729 -0.5306
17585THY    HP120394   0.484   1.677   6.202 -1.1039 -0.2306 -0.4138
17585THY    CP220395   0.410   1.622   6.394  0.1654 -0.4677  0.8146
17585THY    HP220396   0.304   1.623   6.366 -0.2244  0.9186  0.3894
17585THY    HP320397   0.413   1.646   6.501 -2.3193 -0.2090  0.2425
17585THY    HP420398   0.445   1.519   6.384  0.1886  2.2138  0.4941
17585THY    CP320399   0.629   1.726   6.339  0.1472  0.5592  1.6373
17585THY    HP520400   0.636   1.750   6.446 -1.4209  0.9379  0.6227
17585THY    HP620401   0.684   1.799   6.280  0.5691  0.4599  1.2461
17585THY    HP720402   0.672   1.626   6.323 -0.2947 -1.4040  1.7391
17585THY    CA320403   0.419   1.936   6.422 -0.7369 -0.0638 -0.2833
17585THY    HA320404   0.486   1.906   6.502 -2.8315  2.1687  0.6570
17585THY    CA420405   0.374   2.070   6.415  0.8108  0.7388  0.2047
17585THY    HA420406   0.401   2.137   6.497  1.1813 -0.6786  1.8442
17585THY    CA520407   0.299   2.114   6.301  0.3400 -0.5177 -0.1078
17585THY    CM120408   0.248   2.254   6.308 -1.1275  1.2234 -0.2149
17585THY    HM120409   0.316   2.325   6.259  0.6980 -0.7446 -3.1056
17585THY    HM220410   0.219   2.275   6.412 -1.8578  0.5778  2.2896
17585THY    HM320411   0.156   2.257   6.248 -0.3992 -0.0378 -1.8342
17585THY    CA620412   0.283   2.031   6.194  0.0838 -0.0299 -0.0524
17585THY    HA620413   0.226   2.064   6.108  1.0170 -0.2151  1.1479
17586THY      O20414   1.474   4.106   4.844 -0.3897 -0.4539  0.2926
17586THY     HO20415   1.531   4.135   4.770 -1.3035 -1.4802 -0.4357
17586THY    CA120416   1.355   4.140   4.796  0.0692 -0.5974  0.0892
17586THY    CA220417   1.239   4.099   4.860  0.2834  0.3733  0.6452
17586THY    CP120418   1.244   4.015   4.981  0.2218  0.3691 -0.5175
17586THY    HP120419   1.331   3.949   4.989 -0.1945 -1.6722 -1.3923
17586THY    CP220420   1.135   3.903   4.976 -0.1744  0.2186 -0.3555
17586THY    HP220421   1.035   3.944   4.996 -1.1300  1.5203 -3.0794
17586THY    HP320422   1.161   3.831   5.055  0.6048  0.6913  0.4160
17586THY    HP420423   1.136   3.859   4.876 -2.9514 -0.8692  1.7774
17586THY    CP320424   1.218   4.094   5.109 -0.0728  0.0821 -0.1281
17586THY    HP520425   1.292   4.172   5.126 -0.9921  2.8068  0.2603
17586THY    HP620426   1.232   4.029   5.196 -2.4285 -0.4158 -1.4212
17586THY    HP720427   1.119   4.141   5.103  0.3777 -4.1372  0.6695
17586THY    CA320428   1.114   4.147   4.815 -0.2113  0.0603  0.5713
17586THY    HA320429   1.025   4.132   4.875  0.2639  0.6504  0.0473
17586THY    CA420430   1.120   4.239   4.717  0.4805  0.4406 -0.5002
17586THY    HA420431   1.031   4.292   4.685  1.3246  0.4033  0.9484
17586THY    CA520432   1.234   4.282   4.651  0.6931 -0.5263  0.0942
17586THY    CM120433   1.227   4.387   4.547 -1.0155  0.4510 -0.0047
17586THY    HM120434   1.225   4.339   4.448  3.1065  1.3046 -2.4070
17586THY    HM220435   1.308   4.461   4.555 -0.5345 -0.5519 -0.3983
17586THY    HM320436   1.138   4.450   4.557  0.6953  2.0030  2.3457
17586THY    CA620437   1.350   4.225   4.686 -0.1053 -0.0236 -0.5801
17586THY    HA620438   1.441   4.261   4.641 -0.6696  1.8901  3.9486
17587THY      O20439   9.209   3.319   3.162  0.1580  0.0779  0.3473
17587THY     HO20440   9.153   3.398   3.153 -1.0672 -0.0189 -0.4935
17587THY    CA120441   9.121   3.216   3.151 -0.1983  0.4021 -0.7519
17587THY    CA220442   9.171   3.091   3.105  0.0853  0.5380 -0.0512
17587THY    CP120443   9.328   3.074   3.075 -0.4412 -0.5129  0.3410
17587THY    HP120444   9.365   3.165   3.027  2.1006 -0.2247 -0.4577
17587THY    CP220445   9.356   2.959   2.970  0.2276 -0.3569 -0.7125
17587THY    HP220446   9.334   2.866   3.025 -1.4571  2.0499  0.9704
17587THY    HP320447   9.464   2.959   2.953  0.5745  1.5928  0.0688
17587THY    HP420448   9.297   2.956   2.878 -0.3732  0.0271 -2.2829
17587THY    CP320449   9.424   3.060   3.203  0.0806  0.0671 -0.7040
17587THY    HP520450   9.528   3.064   3.169  0.1038  0.1220  2.7104
17587THY    HP620451   9.395   2.983   3.275 -2.7521 -0.6238 -0.4226
17587THY    HP720452   9.419   3.152   3.263  1.2325  1.8710 -1.7751
17587THY    CA320453   9.083   2.979   3.107 -0.0116  0.2333  0.2247
17587THY    HA320454   9.123   2.882   3.079 -1.3341  0.5322 -0.4266
17587THY    CA420455   8.954   2.996   3.159  0.4429 -0.0924 -0.2989
17587THY    HA420456   8.887   2.910   3.163 -2.0634  0.8133  1.5614
17587THY    CA520457   8.900   3.124   3.177  0.0420 -0.7133  0.0570
17587THY    CM120458   8.753   3.139   3.203  0.9506 -0.0029  0.3351
17587THY    HM120459   8.693   3.128   3.112 -1.6049  1.7500 -1.3997
17587THY    HM220460   8.713   3.229   3.252  0.7512  0.4223  0.0154
17587THY    HM320461   8.736   3.061   3.278 -0.1149  1.5908  1.9935
17587THY    CA620462   8.983   3.236   3.171  0.6013  1.0562 -0.3360
17587THY    HA620463   8.936   3.333   3.185  0.4166 -1.2491 -0.0366
17588THY      O20464   3.030   2.851   5.935 -0.5055 -0.4239 -0.2793
17588THY     HO20465   2.999   2.773   5.983 -3.4436 -0.9750  0.4291
17588THY    CA120466   3.143   2.899   6.003  0.7683  0.0451  0.2648
17588THY    CA220467   3.191   3.033   5.981  0.0708  0.1321  0.4941
17588THY    CP120468   3.109   3.123   5.893 -0.0481 -0.3144  0.0220
17588THY    HP120469   3.006   3.088   5.877 -0.5870 -0.2706  1.5104
17588THY    CP220470   3.174   3.121   5.753  0.3795  0.1959 -0.4790
17588THY    HP220471   3.107   3.174   5.685 -0.6493  0.0417 -1.9403
17588THY    HP320472   3.195   3.020   5.717  0.1808  0.4884 -0.6271
17588THY    HP420473   3.271   3.172   5.750  0.0325  0.3896  0.2108
17588THY    CP320474   3.102   3.275   5.939 -0.1394  0.1302  0.2844
17588THY    HP520475   3.039   3.327   5.865  3.4896 -1.8245  2.2810
17588THY    HP620476   3.204   3.312   5.953  0.6903 -2.4538 -0.7697
17588THY    HP720477   3.062   3.286   6.040 -1.4438 -0.4598  1.2641
17588THY    CA320478   3.316   3.061   6.035  0.1201 -0.0301  0.0399
17588THY    HA320479   3.360   3.158   6.012 -0.7566 -0.3131  0.3790
17588THY    CA420480   3.384   2.968   6.116  0.0146  0.2645  0.1146
17588THY    HA420481   3.476   2.989   6.168  1.1009 -0.8250 -1.6901
17588THY    CA520482   3.319   2.842   6.146  0.1999  0.0714 -0.2925
17588THY    CM120483   3.392   2.741   6.231 -0.0531  0.1899 -0.0958
17588THY    HM120484   3.331   2.718   6.319 -1.1161 -0.4102  0.3010
17588THY    HM220485   3.493   2.777   6.250 -0.2184  1.9617 -0.4891
17588THY    HM320486   3.392   2.648   6.172  0.0155 -2.2967  1.3748
17588THY    CA620487   3.203   2.813   6.087 -0.9777  0.7461  0.9869
17588THY    HA620488   3.177   2.708   6.096 -0.6673  1.5475  0.9723
17589THY      O20489   5.100   6.355   6.626 -0.0787  0.0375 -0.0505
17589THY     HO20490   5.030   6.331   6.689 -0.7653 -1.0017 -0.8862
17589THY    CA120491   5.022   6.378   6.509 -0.5395  0.3829 -0.4920
17589THY    CA220492   5.088   6.390   6.383 -0.6548  0.2730 -0.0002
17589THY    CP120493   5.243   6.378   6.376 -0.0484 -0.1534  0.5526
17589THY    HP120494   5.276   6.324   6.465  0.7473 -0.5087  0.4277
17589THY    CP220495   5.310   6.510   6.366  0.2650 -0.9513  0.2658
17589THY    HP220496   5.280   6.571   6.451  0.4625 -0.8618  0.2388
17589THY    HP320497   5.267   6.571   6.286  0.4754 -1.1010  0.2177
17589THY    HP420498   5.419   6.517   6.363  0.2213 -1.7806  0.7045
17589THY    CP320499   5.280   6.285   6.263 -0.5494 -0.4192  0.8732
17589THY    HP520500   5.263   6.331   6.165  1.9503 -0.9573  0.8065
17589THY    HP620501   5.223   6.191   6.269 -2.5031 -1.0015  1.9674
17589THY    HP720502   5.385   6.254   6.265 -0.8625  0.3948 -0.2404
17589THY    CA320503   5.014   6.403   6.265 -0.0397 -0.0713 -0.3550
17589THY    HA320504   5.057   6.422   6.167 -1.6305 -0.4197  1.8061
17589THY    CA420505   4.880   6.397   6.276 -0.3175  0.1491  0.1930
17589THY    HA420506   4.823   6.405   6.183 -0.4943 -0.3287 -4.2870
17589THY    CA520507   4.815   6.378   6.396 -0.0373  0.2143  0.0226
17589THY    CM120508   4.662   6.356   6.400 -0.1709 -0.0575  0.6602
17589THY    HM120509   4.634   6.275   6.332  1.1985 -0.8917  0.8486
17589THY    HM220510   4.601   6.444   6.382 -0.8058  0.6676  0.3815
17589THY    HM320511   4.641   6.338   6.507  0.2466 -0.3666 -2.1887
17589THY    CA620512   4.886   6.359   6.514  0.3811  0.1372 -0.5318
17589THY    HA620513   4.833   6.325   6.603 -3.3217 -1.8252 -0.3817
17590THY      O20514   8.595   8.268   3.613 -0.2509  1.0790 -0.4360
17590THY     HO20515   8.582   8.360   3.642 -3.0748 -4.4807  1.4069
17590THY    CA120516   8.505   8.252   3.509 -0.0796 -0.3237 -0.3184
17590THY    CA220517   8.472   8.123   3.466  0.0119  0.6095 -1.4346
17590THY    CP120518   8.535   8.008   3.538 -0.1957  0.0430  0.7781
17590THY    HP120519   8.622   8.036   3.599 -0.7603  1.6038 -0.6861
17590THY    CP220520   8.581   7.898   3.429 -0.6721 -0.0970 -0.0453
17590THY    HP220521   8.504   7.878   3.354  0.0203 -0.9498  0.4127
17590THY    HP320522   8.622   7.810   3.480 -1.9616  1.5933  0.2600
17590THY    HP420523   8.671   7.936   3.380 -1.0263 -3.2473 -2.8724
17590THY    CP320524   8.432   7.945   3.627  0.6597  0.5440 -0.4404
17590THY    HP520525   8.330   7.970   3.596  0.8861  0.3589  0.2738
17590THY    HP620526   8.442   7.991   3.726 -0.1781  1.0120 -1.2264
17590THY    HP720527   8.439   7.836   3.634  1.7703 -0.0864 -0.4211
17590THY    CA320528   8.370   8.116   3.372 -0.2764  0.3255 -0.3613
17590THY    HA320529   8.342   8.020   3.329  2.8902  0.3758 -1.4115
17590THY    CA420530   8.324   8.227   3.311  0.0948  0.6198 -0.9110
17590THY    HA420531   8.245   8.214   3.238  1.4734 -0.7908 -1.6183
17590THY    CA520532   8.366   8.356   3.341 -0.8398  0.2500 -0.2685
17590THY    CM120533   8.308   8.471   3.268  0.0589  0.3200  0.2259
17590THY    HM120534   8.300   8.554   3.338  0.5819 -0.6993  1.1534
17590THY    HM220535   8.208   8.451   3.227  0.4723 -0.6968  0.1460
17590THY    HM320536   8.375   8.498   3.186 -0.0403 -0.1198 -0.7946
17590THY    CA620537   8.454   8.373   3.449  0.2879 -1.4638  0.1682
17590THY    HA620538   8.496   8.464   3.490  0.4121  1.2001 -0.9884
17591THY      O20539   0.947   2.327   3.429  0.5310  0.2649 -0.3918
17591THY     HO20540   0.896   2.246   3.447 -0.8794 -0.6417  0.2418
17591THY    CA120541   0.931   2.413   3.539  0.0391  0.1460 -0.0906
17591THY    CA220542   0.948   2.555   3.539 -0.9350  0.3816 -0.6394
17591THY    CP120543   0.984   2.622   3.402  0.0654  0.2083  0.0754
17591THY    HP120544   0.932   2.574   3.318  0.6249 -0.8983  1.3521
17591THY    CP220545   1.125   2.594   3.363 -0.1106  0.8315 -0.1602
17591THY    HP220546   1.195   2.625   3.441  0.6676 -0.0634  0.3917
17591THY    HP320547   1.160   2.660   3.283 -1.4431 -0.3158 -0.8010
17591THY    HP420548   1.149   2.489   3.344  2.9908  0.1796  0.5579
17591THY    CP320549   0.948   2.774   3.395 -0.6251 -0.4657  0.0378
17591THY    HP520550   0.954   2.812   3.292  0.1649 -0.0002  1.2407
17591THY    HP620551   1.026   2.828   3.451  2.7328 -1.7203 -3.0684
17591THY    HP720552   0.847   2.800   3.426  0.0110  3.3423 -1.4357
17591THY    CA320553   0.955   2.629   3.659  0.1771  0.0664  0.5643
17591THY    HA320554   0.995   2.730   3.660  1.4039  2.7701  0.1600
17591THY    CA420555   0.929   2.561   3.781  0.3460  0.1561 -0.3211
17591THY    HA420556   0.935   2.611   3.877  0.8267  0.1282 -0.3269
17591THY    CA520557   0.902   2.422   3.781  0.1739  0.4314 -0.4502
17591THY    CM120558   0.883   2.359   3.915 -0.0949 -0.3091  0.2122
17591THY    HM120559   0.787   2.309   3.931  0.2414 -0.6626 -0.5633
17591THY    HM220560   0.894   2.431   3.996 -0.8740  0.9737 -1.0643
17591THY    HM320561   0.957   2.281   3.936 -2.2496  0.4756 -1.7646
17591THY    CA620562   0.911   2.350   3.662 -0.0315  0.5509  0.8359
17591THY    HA620563   0.918   2.242   3.667 -0.3290 -1.2706  0.7027
17592THY      O20564   8.156   6.950   3.178  0.0983 -0.4483  0.6638
17592THY     HO20565   8.105   6.975   3.100  0.9192 -1.1532  0.1895
17592THY    CA120566   8.108   6.831   3.219 -1.2373 -0.2651  0.6328
17592THY    CA220567   8.144   6.779   3.343 -0.4038  0.2401 -0.0122
17592THY    CP120568   8.263   6.853   3.418  0.8471  0.2665 -0.1382
17592THY    HP120569   8.320   6.904   3.340 -0.7070 -1.1836 -0.5311
17592THY    CP220570   8.366   6.766   3.473  0.3081 -0.1641  1.0463
17592THY    HP220571   8.433   6.729   3.395  0.6842  0.8545 -0.5295
17592THY    HP320572   8.322   6.681   3.527  0.2442  0.1310  1.2662
17592THY    HP420573   8.421   6.809   3.558  0.3879 -0.4432  1.4986
17592THY    CP320574   8.202   6.950   3.523 -0.1747 -0.1033  0.5759
17592THY    HP520575   8.282   7.012   3.566 -1.1224  0.7365  1.2473
17592THY    HP620576   8.132   6.907   3.595 -0.1436 -0.6065 -0.3305
17592THY    HP720577   8.131   7.018   3.474 -2.1922  1.3038 -0.4207
17592THY    CA320578   8.089   6.664   3.387 -0.0061  0.1587  0.2330
17592THY    HA320579   8.123   6.624   3.482  1.4486  1.2998  3.7942
17592THY    CA420580   7.980   6.607   3.317 -0.9662  0.3256  0.4657
17592THY    HA420581   7.938   6.516   3.360  1.3213  0.8816 -0.4095
17592THY    CA520582   7.940   6.658   3.196 -0.6883 -0.1572 -0.8405
17592THY    CM120583   7.840   6.594   3.111  0.7814  0.3336  0.0907
17592THY    HM120584   7.773   6.665   3.062  1.0227  0.5529  0.4718
17592THY    HM220585   7.786   6.522   3.173  0.5731 -0.6387 -0.6103
17592THY    HM320586   7.893   6.521   3.048 -0.0387  0.7661 -0.8855
17592THY    CA620587   8.009   6.770   3.148 -0.3176  0.3187  0.5500
17592THY    HA620588   7.971   6.807   3.053 -0.2498  0.1814  0.2702
17593THY      O20589   6.157   3.753   5.557  0.9538  0.3104  0.6147
17593THY     HO20590   6.169   3.829   5.498  0.1533 -2.4594 -1.2540
17593THY    CA120591   6.027   3.711   5.547 -0.0106 -0.0150 -0.3856
17593THY    CA220592   5.998   3.585   5.487  0.4830  0.5000 -0.7533
17593THY    CP120593   6.104   3.478   5.464 -0.7270  0.1310 -0.1846
17593THY    HP120594   6.203   3.496   5.508 -1.4483  1.5621  0.4953
17593THY    CP220595   6.114   3.472   5.314  0.0700  0.5819 -0.4620
17593THY    HP220596   6.146   3.572   5.281 -2.1967 -1.9242 -0.4539
17593THY    HP320597   6.013   3.461   5.274  0.3920 -0.1957 -0.6477
17593THY    HP420598   6.178   3.388   5.285  3.7080  1.1798  1.8720
17593THY    CP320599   6.066   3.340   5.528 -0.6543 -0.8781  0.3924
17593THY    HP520600   5.998   3.282   5.465  3.2730 -2.3513 -3.1630
17593THY    HP620601   6.033   3.342   5.633  0.6545 -0.4289  3.1696
17593THY    HP720602   6.156   3.278   5.534  0.8618  0.4188  2.5779
17593THY    CA320603   5.857   3.566   5.457  0.1557  0.4617  0.3287
17593THY    HA320604   5.820   3.477   5.405 -1.5072  1.0540  0.6344
17593THY    CA420605   5.762   3.662   5.491 -0.0187 -0.4437 -0.0112
17593THY    HA420606   5.657   3.649   5.465 -0.8940  3.1244 -1.1389
17593THY    CA520607   5.797   3.786   5.545  0.6161  0.1458  0.1110
17593THY    CM120608   5.689   3.889   5.575 -0.6733 -0.3200 -0.3996
17593THY    HM120609   5.624   3.914   5.490  0.0070 -1.0587 -1.0667
17593THY    HM220610   5.730   3.985   5.608 -0.0540 -2.0573 -0.0214
17593THY    HM320611   5.633   3.837   5.653  1.2498  2.0024  0.7883
17593THY    CA620612   5.929   3.805   5.579 -0.3916  0.6419  0.3031
17593THY    HA620613   5.958   3.902   5.620  1.2482  2.0047 -0.7157
17594THY      O20614   1.149   7.286   4.331 -0.4554  0.1958 -0.1367
17594THY     HO20615   1.193   7.208   4.295  1.5073 -0.3777  1.1542
17594THY    CA120616   1.046   7.307   4.249 -0.3382 -0.9801  0.4566
17594THY    CA220617   1.016   7.432   4.202  0.0620  0.6021 -0.6941
17594THY    CP120618   1.099   7.558   4.234  0.3124 -0.4622 -0.3585
17594THY    HP120619   1.091   7.631   4.152  1.7080 -0.6908 -0.4289
17594THY    CP220620   1.249   7.535   4.225 -0.0598  0.0863 -0.9063
17594THY    HP220621   1.301   7.631   4.212  0.2062  0.2042 -1.0346
17594THY    HP320622   1.274   7.476   4.136 -0.2283 -0.8312  0.3402
17594THY    HP420623   1.282   7.484   4.316 -1.5943  0.3037 -1.5739
17594THY    CP320624   1.055   7.631   4.360  0.1082 -0.0491  0.0194
17594THY    HP520625   0.947   7.645   4.355 -0.4581 -1.3162 -3.6322
17594THY    HP620626   1.101   7.730   4.369 -0.5685  0.7593  0.2669
17594THY    HP720627   1.071   7.574   4.453 -0.2674  1.0701  1.6686
17594THY    CA320628   0.895   7.453   4.131 -0.0171 -0.3359 -0.1194
17594THY    HA320629   0.871   7.556   4.105  2.4546  1.7250  1.0932
17594THY    CA420630   0.818   7.345   4.103  0.3389  0.2416 -0.1566
17594THY    HA420631   0.727   7.353   4.045  1.1510 -0.9284  1.0560
17594THY    CA520632   0.851   7.220   4.151 -0.2379  0.8226 -0.0342
17594THY    CM120633   0.759   7.107   4.115 -0.6971  0.0641  0.1937
17594THY    HM120634   0.777   7.016   4.174 -0.9875  0.2411  0.2503
17594THY    HM220635   0.743   7.079   4.010  0.3146  0.4061 -1.8347
17594THY    HM320636   0.655   7.122   4.144 -0.3823  1.4442 -0.2103
17594THY    CA620637   0.962   7.199   4.224  0.7524 -0.0114  0.4299
17594THY    HA620638   0.984   7.097   4.255  2.0048 -1.5683  0.1884
17595THY      O20639   0.744   2.452   1.856  0.4193  0.7932  0.0047
17595THY     HO20640   0.675   2.507   1.816  1.4747  2.0435  2.4096
17595THY    CA120641   0.735   2.455   1.995  0.1239 -0.3054 -0.5536
17595THY    CA220642   0.851   2.468   2.074 -0.4563 -0.1640  0.0922
17595THY    CP120643   0.995   2.462   2.012 -0.1759  0.3045 -0.0156
17595THY    HP120644   1.005   2.378   1.942  0.4311  0.9573 -0.4992
17595THY    CP220645   1.105   2.431   2.112 -0.7781  0.3148 -0.6990
17595THY    HP220646   1.196   2.405   2.057 -0.0961 -1.0695  3.7221
17595THY    HP320647   1.067   2.362   2.189  0.9032  2.9361  1.1199
17595THY    HP420648   1.131   2.522   2.167  1.3928 -0.5284 -0.7515
17595THY    CP320649   1.033   2.596   1.939 -0.1401 -0.5213 -0.5132
17595THY    HP520650   0.960   2.623   1.862  0.6732 -0.9936  0.4000
17595THY    HP620651   1.130   2.596   1.888  0.6471  0.7668  2.5489
17595THY    HP720652   1.040   2.681   2.008  0.4014 -4.1088  2.6082
17595THY    CA320653   0.832   2.491   2.212 -0.1737 -0.0330  0.0284
17595THY    HA320654   0.920   2.493   2.276 -0.6235  0.5806  0.7898
17595THY    CA420655   0.703   2.502   2.271  0.6167  0.3405  0.5543
17595THY    HA420656   0.688   2.497   2.378 -0.5278  0.1237 -2.1239
17595THY    CA520657   0.595   2.500   2.187 -0.4794 -0.4589  0.2115
17595THY    CM120658   0.458   2.508   2.250 -0.0540  0.1266  0.2529
17595THY    HM120659   0.466   2.577   2.335 -2.5839  0.0215  0.7982
17595THY    HM220660   0.439   2.408   2.289  2.8699 -1.9045 -1.2339
17595THY    HM320661   0.380   2.539   2.179  0.4598 -0.2523  0.7051
17595THY    CA620662   0.610   2.478   2.049  0.0867 -0.1226  0.4740
17595THY    HA620663   0.519   2.472   1.991  0.6380 -0.9568  0.0076
17596THY      O20664   1.903   1.596   2.093 -0.3521 -0.2844  0.2936
17596THY     HO20665   1.923   1.540   2.017  2.2852  0.0073  0.7259
17596THY    CA120666   2.007   1.564   2.176  0.2995 -0.0813 -0.1086
17596THY    CA220667   2.038   1.629   2.296  1.0668  0.3415  0.0194
17596THY    CP120668   1.941   1.753   2.337 -0.3416  0.5975 -0.2805
17596THY    HP120669   1.920   1.809   2.245  1.1216  0.1954 -0.3391
17596THY    CP220670   2.014   1.849   2.434  0.1446 -0.0002 -0.2355
17596THY    HP220671   1.948   1.933   2.456  1.6743 -2.9901  1.9152
17596THY    HP320672   2.101   1.891   2.382  0.9518  0.9364 -0.7076
17596THY    HP420673   2.052   1.790   2.518 -0.2299  0.6888  0.4857
17596THY    CP320674   1.816   1.694   2.405 -0.1431 -0.8299 -0.4613
17596THY    HP520675   1.846   1.625   2.485  1.0677 -2.3122 -1.7469
17596THY    HP620676   1.760   1.627   2.338 -0.3541 -0.5117 -0.6050
17596THY    HP720677   1.741   1.768   2.436 -2.9603  0.4426 -3.5589
17596THY    CA320678   2.151   1.590   2.371  0.3406  0.3117 -0.3413
17596THY    HA320679   2.194   1.640   2.458  2.8136 -1.0826  0.0994
17596THY    CA420680   2.223   1.483   2.325 -0.3949  0.3282  0.0607
17596THY    HA420681   2.319   1.457   2.369  0.9200 -2.0921  0.5026
17596THY    CA520682   2.194   1.418   2.205  0.4877 -0.2239  0.3673
17596THY    CM120683   2.284   1.305   2.147 -0.1730 -0.2614 -0.3331
17596THY    HM120684   2.359   1.273   2.221 -1.1670  0.4548 -1.0609
17596THY    HM220685   2.330   1.341   2.054  2.3525  1.2115  0.5469
17596THY    HM320686   2.228   1.215   2.121  0.3782 -2.8036 -0.0058
17596THY    CA620687   2.077   1.449   2.139 -0.8428  0.5706  0.4825
17596THY    HA620688   2.064   1.404   2.041  0.3435  1.1622 -1.2228
17597THY      O20689   1.580   1.711   5.331 -0.2576 -0.0222  0.6088
17597THY     HO20690   1.586   1.780   5.264 -0.8768 -0.5257  0.1833
17597THY    CA120691   1.537   1.768   5.443 -0.0147 -0.0322 -0.7840
17597THY    CA220692   1.523   1.913   5.452  0.3334 -0.5872 -0.0847
17597THY    CP120693   1.583   2.001   5.350 -0.5123 -1.0922 -0.6203
17597THY    HP120694   1.647   1.945   5.281  0.7924  1.0835 -1.9626
17597THY    CP220695   1.672   2.109   5.404 -0.7646  0.3979  0.0188
17597THY    HP220696   1.750   2.058   5.462 -0.6022 -0.1617 -0.3754
17597THY    HP320697   1.624   2.183   5.469 -1.8121  0.4578 -0.6903
17597THY    HP420698   1.704   2.173   5.321 -1.1503  0.9283  0.9243
17597THY    CP320699   1.470   2.062   5.261  0.4726 -0.3585  0.8962
17597THY    HP520700   1.407   1.975   5.236  1.4022 -3.4488  0.9736
17597THY    HP620701   1.508   2.115   5.173 -2.1803 -0.7031  2.4409
17597THY    HP720702   1.408   2.122   5.329 -0.3668  0.3377 -0.7142
17597THY    CA320703   1.455   1.974   5.565 -0.2634  0.6566  0.2137
17597THY    HA320704   1.443   2.082   5.565  2.0306 -2.3039  0.5832
17597THY    CA420705   1.405   1.891   5.665  0.8570  0.3548 -0.0831
17597THY    HA420706   1.342   1.938   5.741  0.6878 -1.3955  2.7234
17597THY    CA520707   1.420   1.752   5.653 -0.0705  0.2275 -0.5157
17597THY    CM120708   1.352   1.667   5.753  0.1202  0.5420 -0.1857
17597THY    HM120709   1.385   1.691   5.855  1.6192  0.3181 -1.1239
17597THY    HM220710   1.377   1.560   5.747  1.3271  0.4817  0.0862
17597THY    HM320711   1.247   1.697   5.750  0.2495 -3.1352  0.3144
17597THY    CA620712   1.483   1.693   5.543  0.3817  0.4173  0.0622
17597THY    HA620713   1.472   1.586   5.537  0.6041 -1.4091  0.1118
17598THY      O20714   2.346   1.594   5.365  0.0227 -0.5257 -0.1626
17598THY     HO20715   2.396   1.655   5.308 -1.4864 -1.7918 -0.0309
17598THY    CA120716   2.214   1.616   5.347 -0.2072  0.3720 -0.2207
17598THY    CA220717   2.111   1.534   5.393  0.9278 -0.4413  0.1283
17598THY    CP120718   2.140   1.394   5.443 -0.1185 -0.6726  0.1898
17598THY    HP120719   2.208   1.344   5.373  1.7183  1.3619 -0.2870
17598THY    CP220720   2.017   1.299   5.455  0.0448 -0.2456  0.6320
17598THY    HP220721   2.049   1.197   5.480 -0.4542  0.0792  0.5501
17598THY    HP320722   1.961   1.283   5.362 -1.1683  0.6876 -0.8343
17598THY    HP420723   1.957   1.324   5.543 -2.1036 -1.5100  0.1688
17598THY    CP320724   2.214   1.392   5.576  0.7336 -0.0608  0.1550
17598THY    HP520725   2.152   1.436   5.655  0.7002 -0.1958  0.3537
17598THY    HP620726   2.304   1.454   5.578  0.1251  0.3201  1.0569
17598THY    HP720727   2.236   1.291   5.611  0.6341  0.6508  0.3740
17598THY    CA320728   1.978   1.587   5.400  0.0433  0.8178 -0.6447
17598THY    HA320729   1.899   1.523   5.437 -2.1143 -1.6948  0.3555
17598THY    CA420730   1.959   1.726   5.365 -0.2897 -0.6007  0.0262
17598THY    HA420731   1.857   1.764   5.361  0.2049 -1.3192  1.3669
17598THY    CA520732   2.061   1.801   5.308  0.8252 -0.2613  0.3325
17598THY    CM120733   2.024   1.943   5.274  0.4527  0.5683  0.5474
17598THY    HM120734   2.062   2.014   5.348  2.3203 -0.1904  0.3933
17598THY    HM220735   1.917   1.954   5.254  0.5410 -0.7635 -0.7312
17598THY    HM320736   2.061   1.966   5.174 -0.7795  0.1677  0.8645
17598THY    CA620737   2.191   1.752   5.301  0.0261 -0.4784 -0.1060
17598THY    HA620738   2.264   1.816   5.253  1.4232  1.7358  0.0618
17599THY      O20739   8.992   2.042   6.465 -0.1652  0.2936  0.2450
17599THY     HO20740   8.984   1.990   6.383  2.2517  1.0630 -1.5169
17599THY    CA120741   8.870   2.033   6.530 -0.1582 -0.0534 -0.4579
17599THY    CA220742   8.852   2.038   6.670 -0.5299 -0.1686 -0.2854
17599THY    CP120743   8.973   2.058   6.762  0.8426 -0.7418 -0.1272
17599THY    HP120744   9.042   2.125   6.708 -2.7597 -4.8312  0.7732
17599THY    CP220745   9.048   1.924   6.775  0.4537 -0.1345 -0.0294
17599THY    HP220746   9.141   1.930   6.831  1.8192 -2.3913  1.9123
17599THY    HP320747   9.089   1.899   6.677  2.8075  0.7371  0.2323
17599THY    HP420748   8.986   1.844   6.816  0.2439 -0.9173 -0.2830
17599THY    CP320749   8.942   2.110   6.907 -0.0349 -0.2385 -0.4282
17599THY    HP520750   8.914   2.023   6.969  1.0098  3.2904  1.5410
17599THY    HP620751   8.853   2.173   6.897 -0.2450  0.7979 -0.5307
17599THY    HP720752   9.033   2.145   6.957  1.5871 -2.5115 -1.2033
17599THY    CA320753   8.720   2.021   6.723 -0.3357 -0.1972  0.2970
17599THY    HA320754   8.716   1.996   6.829  0.4867  0.5359  2.9772
17599THY    CA420755   8.608   2.000   6.638  0.1265  0.6313  1.2841
17599THY    HA420756   8.515   1.974   6.685  0.6411  0.5897 -0.7577
17599THY    CA520757   8.624   1.981   6.499 -0.0894 -0.0395 -0.6556
17599THY    CM120758   8.511   1.944   6.406 -0.8217  0.2952  0.3446
17599THY    HM120759   8.478   2.031   6.348 -1.2335 -0.8787 -0.5692
17599THY    HM220760   8.422   1.911   6.459 -0.9790  0.8520  1.5866
17599THY    HM320761   8.554   1.872   6.335 -2.0648  0.9402 -1.0872
17599THY    CA620762   8.754   2.010   6.451 -0.1258  0.1835 -0.4146
17599THY    HA620763   8.764   2.009   6.342 -2.2740 -0.0565 -1.3189
17600THY      O20764   3.789   4.610   1.780 -0.3116  0.2265  0.2148
17600THY     HO20765   3.805   4.637   1.688  0.5362  0.1229 -0.5877
17600THY    CA120766   3.674   4.671   1.817  0.5174 -0.0533  0.3129
17600THY    CA220767   3.679   4.780   1.899  0.2794 -0.7504 -0.4372
17600THY    CP120768   3.821   4.830   1.945 -0.5914 -0.0692  0.5555
17600THY    HP120769   3.895   4.751   1.960  0.4120 -2.0501  1.0457
17600THY    CP220770   3.820   4.893   2.079  0.3378  0.2041 -0.1050
17600THY    HP220771   3.764   4.837   2.154  0.6993  0.5713  0.0215
17600THY    HP320772   3.761   4.984   2.067  0.7350 -0.6605  0.0523
17600THY    HP420773   3.920   4.923   2.113  2.6770 -2.1395 -4.3174
17600THY    CP320774   3.872   4.929   1.830  0.1126 -0.5507 -0.2278
17600THY    HP520775   3.783   4.980   1.791  0.1597  2.3572  2.3526
17600THY    HP620776   3.923   4.873   1.751  0.0159 -0.5632 -0.2986
17600THY    HP720777   3.930   5.013   1.872 -0.9366 -1.4767  1.0086
17600THY    CA320778   3.558   4.838   1.940 -0.0675 -0.4309  0.2092
17600THY    HA320779   3.549   4.927   2.001 -0.1789  0.6649 -0.5410
17600THY    CA420780   3.443   4.784   1.894 -0.3321 -0.3426  0.0869
17600THY    HA420781   3.347   4.831   1.911 -0.4385 -0.3033 -0.1403
17600THY    CA520782   3.442   4.667   1.814 -0.3821 -0.5995  0.3018
17600THY    CM120783   3.311   4.605   1.775 -0.1323  1.1955  0.3978
17600THY    HM120784   3.265   4.652   1.687  0.3365  0.7106 -0.0300
17600THY    HM220785   3.232   4.612   1.851 -1.9059 -0.3967 -1.0441
17600THY    HM320786   3.315   4.499   1.747  1.3626 -1.2485  1.0126
17600THY    CA620787   3.558   4.615   1.769 -0.3429 -0.1021 -0.4950
17600THY    HA620788   3.561   4.525   1.708 -2.9415 -1.3265  0.1701
17601THY      O20789   6.783   1.304   6.504  0.1052  0.0972  0.2266
17601THY     HO20790   6.788   1.320   6.600  2.7030 -0.0043  0.4718
17601THY    CA120791   6.652   1.275   6.479 -0.0710 -0.5124  0.7305
17601THY    CA220792   6.583   1.316   6.358 -0.2112 -0.3278  0.5779
17601THY    CP120793   6.661   1.396   6.248 -0.0905  0.1707 -0.0088
17601THY    HP120794   6.765   1.419   6.275  0.9408 -2.4422 -1.2933
17601THY    CP220795   6.587   1.523   6.220  0.5332 -0.1136 -0.2829
17601THY    HP220796   6.484   1.510   6.185 -0.6591  2.5831  0.9342
17601THY    HP320797   6.646   1.589   6.155  0.1434 -2.0775 -1.7930
17601THY    HP420798   6.568   1.572   6.317 -0.1740 -0.1037 -0.5574
17601THY    CP320799   6.682   1.321   6.116 -0.4238  0.3868 -0.0857
17601THY    HP520800   6.587   1.273   6.087 -0.2921 -0.1267 -0.0318
17601THY    HP620801   6.760   1.246   6.133 -1.1934 -0.7060 -1.1681
17601THY    HP720802   6.713   1.390   6.037  2.0042  2.6270  1.5869
17601THY    CA320803   6.443   1.283   6.349 -0.3784 -0.3184  0.2213
17601THY    HA320804   6.387   1.296   6.257 -0.9928 -0.1056 -0.8179
17601THY    CA420805   6.378   1.216   6.451  0.3708 -0.4858 -0.0196
17601THY    HA420806   6.271   1.199   6.438 -0.1909  1.8908  1.2237
17601THY    CA520807   6.449   1.174   6.566  1.3150 -0.2976  0.2759
17601THY    CM120808   6.377   1.092   6.682  0.3928 -0.0401 -0.4748
17601THY    HM120809   6.425   1.114   6.778 -1.3608  0.4075  1.7898
17601THY    HM220810   6.382   0.986   6.655 -0.9388 -2.4593  0.0105
17601THY    HM320811   6.274   1.127   6.672  0.6598 -2.6031 -0.1926
17601THY    CA620812   6.579   1.213   6.582  0.0711 -0.6782  0.0761
17601THY    HA620813   6.624   1.178   6.675 -0.1781 -0.4562  0.3305
17602THY      O20814   6.393   1.746   5.620  0.6279 -0.5565  0.0188
17602THY     HO20815   6.484   1.728   5.649 -0.0584  1.6040 -0.2543
17602THY    CA120816   6.368   1.681   5.503 -0.4902  0.0914  0.0564
17602THY    CA220817   6.237   1.656   5.457 -0.2147  0.9250 -0.2203
17602THY    CP120818   6.113   1.704   5.538 -0.0082  0.8288 -0.1552
17602THY    HP120819   6.133   1.736   5.641 -1.4325  1.1576 -0.2992
17602THY    CP220820   6.002   1.594   5.535 -0.3360  0.6377 -0.0874
17602THY    HP220821   5.955   1.581   5.437 -0.0699  0.5547 -0.4369
17602THY    HP320822   5.927   1.628   5.607  0.4380  1.7893 -0.7658
17602THY    HP420823   6.049   1.501   5.568  1.4871  1.7579  1.1554
17602THY    CP320824   6.049   1.826   5.457  0.1361  0.0003 -0.4873
17602THY    HP520825   5.944   1.831   5.488 -0.2389 -1.2534 -0.1761
17602THY    HP620826   6.040   1.810   5.349  0.3084  0.0401 -0.8674
17602THY    HP720827   6.098   1.923   5.472  0.8377  0.4160 -0.8978
17602THY    CA320828   6.221   1.599   5.326 -0.2289  0.9627 -0.4223
17602THY    HA320829   6.121   1.599   5.284 -0.2150  0.9091  0.6694
17602THY    CA420830   6.325   1.558   5.244 -0.6891 -0.0870 -0.1231
17602THY    HA420831   6.309   1.534   5.139 -2.2955  0.3606 -1.1693
17602THY    CA520832   6.459   1.567   5.298 -0.1238 -0.1528 -0.1528
17602THY    CM120833   6.569   1.527   5.213  0.0118 -0.0320  0.0062
17602THY    HM120834   6.664   1.549   5.264  0.4621 -1.2207  0.8521
17602THY    HM220835   6.581   1.587   5.123  1.8572  0.7713  0.9017
17602THY    HM320836   6.549   1.419   5.202 -2.0377 -3.4559  0.5948
17602THY    CA620837   6.482   1.631   5.425 -0.2911 -0.1059  0.2445
17602THY    HA620838   6.585   1.645   5.456 -0.1072  0.2360 -1.5615
17603THY      O20839   6.519   0.578   7.168  0.2963  0.5985 -0.0718
17603THY     HO20840   6.541   0.654   7.111  0.3945 -1.5830 -1.6387
17603THY    CA120841   6.551   0.625   7.290  0.1455  0.2855 -0.3579
17603THY    CA220842   6.476   0.594   7.400 -0.1053  0.2398 -0.0563
17603THY    CP120843   6.346   0.527   7.389 -0.0008  0.0730  0.0807
17603THY    HP120844   6.319   0.502   7.286 -1.6317  0.7370 -1.1042
17603THY    CP220845   6.233   0.600   7.462 -1.0107 -0.1519  0.2061
17603THY    HP220846   6.136   0.557   7.435 -0.4758  0.9165 -1.7663
17603THY    HP320847   6.228   0.706   7.433 -2.9837 -0.1162  0.1620
17603THY    HP420848   6.248   0.619   7.569 -0.5916 -0.4539  1.7564
17603THY    CP320849   6.360   0.383   7.458 -0.1670  0.3711  0.0973
17603THY    HP520850   6.446   0.323   7.426  0.1858 -1.5369  1.5224
17603THY    HP620851   6.265   0.329   7.450 -0.7662 -0.3017  1.2055
17603THY    HP720852   6.371   0.397   7.566 -2.2424  0.7167 -0.5108
17603THY    CA320853   6.517   0.641   7.527  0.0301  0.0300 -0.0056
17603THY    HA320854   6.464   0.598   7.612 -1.8554 -2.0653 -2.1169
17603THY    CA420855   6.632   0.724   7.544  0.0377 -0.6958  0.1932
17603THY    HA420856   6.670   0.753   7.641 -2.4204  0.4603 -0.2385
17603THY    CA520857   6.699   0.764   7.427 -0.2237  0.5682 -0.1656
17603THY    CM120858   6.835   0.827   7.435 -0.2686 -0.2302  0.2210
17603THY    HM120859   6.900   0.792   7.516 -0.3583 -0.6060 -0.8391
17603THY    HM220860   6.830   0.936   7.444 -1.7552 -1.1158  0.2525
17603THY    HM320861   6.895   0.802   7.346  0.9694  0.4331  0.7235
17603THY    CA620862   6.659   0.710   7.303  0.5078 -0.3098 -0.2300
17603THY    HA620863   6.724   0.736   7.220 -0.8427 -0.6920  2.2570
17604THY      O20864   4.230   6.197   2.357 -0.2803 -0.3438  0.5053
17604THY     HO20865   4.209   6.292   2.355 -0.0996 -1.0626  0.5428
17604THY    CA120866   4.107   6.123   2.368  0.5041  0.3880  0.2443
17604THY    CA220867   4.102   5.990   2.329  0.0417  0.1965 -0.0014
17604THY    CP120868   4.236   5.918   2.294 -0.5352 -1.0187  0.0796
17604THY    HP120869   4.330   5.974   2.304  0.7835  0.3924 -2.2057
17604THY    CP220870   4.240   5.850   2.154 -0.1453  0.6192 -0.1326
17604THY    HP220871   4.147   5.794   2.134 -0.9553 -2.2715  1.9762
17604THY    HP320872   4.329   5.788   2.145 -0.5217  2.1143 -0.9380
17604THY    HP420873   4.247   5.925   2.074 -2.9780 -1.5262 -1.9434
17604THY    CP320874   4.245   5.814   2.409 -0.6425  0.7869  0.8747
17604THY    HP520875   4.224   5.859   2.507 -1.8294  0.8542  0.2099
17604THY    HP620876   4.343   5.763   2.409 -0.6270 -3.9018  0.4713
17604THY    HP720877   4.164   5.740   2.401  0.5586 -1.3646 -0.3001
17604THY    CA320878   3.974   5.927   2.304  0.0319 -0.4801 -0.2053
17604THY    HA320879   3.970   5.831   2.255 -1.7146 -0.9216  0.0573
17604THY    CA420880   3.854   6.010   2.324  0.7231 -0.8581 -0.8690
17604THY    HA420881   3.757   5.962   2.310  1.2412 -0.1458 -2.1809
17604THY    CA520882   3.863   6.139   2.372 -0.2983 -0.0042  0.2653
17604THY    CM120883   3.742   6.226   2.407 -0.3742 -0.5740 -0.9745
17604THY    HM120884   3.654   6.173   2.444 -1.0432  1.6408  1.4540
17604THY    HM220885   3.710   6.268   2.310  0.1301 -0.6528 -0.7558
17604THY    HM320886   3.759   6.307   2.479  1.1814  0.8848 -2.5039
17604THY    CA620887   3.990   6.199   2.392  0.5608 -1.0210 -0.1121
17604THY    HA620888   3.992   6.301   2.427  0.1221  0.3414 -0.5527
17605THY      O20889   3.300   8.275   2.393  0.2262 -0.1948 -0.1097
17605THY     HO20890   3.352   8.194   2.385 -0.1573  0.5163 -0.4386
17605THY    CA120891   3.221   8.256   2.501  0.1989 -0.0722 -0.5520
17605THY    CA220892   3.130   8.356   2.545  0.2017  0.1510 -0.0285
17605THY    CP120893   3.106   8.476   2.450  0.4947 -0.3431  0.0720
17605THY    HP120894   3.117   8.435   2.349 -0.0979 -0.8140  1.0454
17605THY    CP220895   3.211   8.586   2.468  0.0542  0.0910  0.2710
17605THY    HP220896   3.222   8.650   2.380 -0.7322 -1.1770 -1.2715
17605THY    HP320897   3.308   8.537   2.480  0.9161 -1.0637  1.6380
17605THY    HP420898   3.206   8.633   2.568 -0.2908  0.3586 -0.3236
17605THY    CP320899   2.963   8.533   2.461 -0.0597 -0.4891 -0.3102
17605THY    HP520900   2.888   8.454   2.451 -0.5944 -3.0982  0.4452
17605THY    HP620901   2.955   8.606   2.379  1.7471 -0.3464  0.0863
17605THY    HP720902   2.957   8.585   2.558 -0.7643  0.1101 -1.4823
17605THY    CA320903   3.045   8.329   2.656  0.1527 -0.1889  0.7033
17605THY    HA320904   2.974   8.400   2.698  0.1820  3.6828 -1.2411
17605THY    CA420905   3.074   8.219   2.737 -0.2137 -0.6881  0.6747
17605THY    HA420906   3.020   8.195   2.828  1.7665 -0.0663 -1.9129
17605THY    CA520907   3.166   8.124   2.696 -0.7284 -1.1095  0.3596
17605THY    CM120908   3.210   8.007   2.782  0.6526 -0.0560 -0.3010
17605THY    HM120909   3.233   7.913   2.730 -1.1646 -0.4724 -0.5427
17605THY    HM220910   3.138   7.984   2.862  0.4115  0.4103  1.8350
17605THY    HM320911   3.303   8.045   2.826  1.2510 -1.7273  0.2486
17605THY    CA620912   3.241   8.146   2.581 -0.3597  0.1971  0.1707
17605THY    HA620913   3.323   8.075   2.569 -1.7938  2.2625 -1.9581
17606THY      O20914   5.619   7.721   6.542  0.3218 -0.4564  0.5180
17606THY     HO20915   5.595   7.785   6.611 -0.5909 -1.2615  1.0760
17606THY    CA120916   5.519   7.737   6.457  0.8175 -0.3459 -0.2359
17606THY    CA220917   5.509   7.659   6.340  1.0592 -0.2192 -0.2876
17606THY    CP120918   5.614   7.553   6.299  0.3080 -0.3735  0.1175
17606THY    HP120919   5.711   7.571   6.347  0.8478 -1.6921  0.8339
17606THY    CP220920   5.651   7.551   6.150  0.0155 -0.5660 -0.6500
17606THY    HP220921   5.641   7.654   6.115 -1.5399  1.2506 -0.1170
17606THY    HP320922   5.593   7.474   6.097 -1.6960 -0.1515  0.3020
17606THY    HP420923   5.758   7.531   6.137  1.2497  1.3783  3.5298
17606THY    CP320924   5.567   7.412   6.345 -0.2711 -1.1697  0.9888
17606THY    HP520925   5.490   7.376   6.276 -0.2274 -1.7785  2.0271
17606THY    HP620926   5.531   7.418   6.449  0.2673 -1.0455  2.4490
17606THY    HP720927   5.648   7.337   6.340 -0.8986 -1.7556  0.3317
17606THY    CA320928   5.406   7.689   6.245  0.8657 -0.3856 -0.6318
17606THY    HA320929   5.404   7.633   6.153  0.2947 -1.0543  0.4477
17606THY    CA420930   5.315   7.796   6.266  0.2111 -0.0635 -0.7251
17606THY    HA420931   5.226   7.819   6.208  0.5382  0.3872  1.9349
17606THY    CA520932   5.320   7.861   6.392  0.0979  0.2394 -0.4899
17606THY    CM120933   5.211   7.954   6.437  0.6022 -0.4027  0.0752
17606THY    HM120934   5.158   7.907   6.520  0.9573  0.5807  1.3470
17606THY    HM220935   5.141   7.980   6.357 -0.0193  0.8466  2.5287
17606THY    HM320936   5.254   8.050   6.467 -1.2436 -2.3761  1.6321
17606THY    CA620937   5.417   7.828   6.484 -1.0553 -0.6587  0.6410
17606THY    HA620938   5.416   7.883   6.577  0.2434  0.2778 -0.8385
17607THY      O20939   9.268   7.604   5.225 -1.0356  0.2814 -0.8377
17607THY     HO20940   9.314   7.633   5.305  2.8967 -1.8584 -0.4632
17607THY    CA120941   9.135   7.626   5.243 -0.1931 -0.1980 -0.8646
17607THY    CA220942   9.046   7.592   5.145  0.4213 -0.2464  0.3349
17607THY    CP120943   9.077   7.484   5.033  0.1795  0.1375 -1.4676
17607THY    HP120944   9.186   7.487   5.017 -0.0541 -1.4542  0.2010
17607THY    CP220945   9.019   7.523   4.896 -0.2339  0.7274 -1.0437
17607THY    HP220946   9.051   7.623   4.863 -3.5151 -1.2774 -0.4889
17607THY    HP320947   8.910   7.533   4.906 -0.0621  0.3235  3.8153
17607THY    HP420948   9.030   7.452   4.813  0.2373  0.2200 -0.3956
17607THY    CP320949   9.030   7.345   5.064  0.0411  0.4049  0.5490
17607THY    HP520950   9.068   7.277   4.987  0.5594  1.2528 -0.1533
17607THY    HP620951   8.921   7.330   5.072 -0.1487 -0.8420  1.1922
17607THY    HP720952   9.053   7.316   5.168 -2.0170  0.5842 -0.6794
17607THY    CA320953   8.914   7.636   5.161  0.3534 -0.4294 -0.1081
17607THY    HA320954   8.840   7.587   5.098  1.8486 -0.7527 -2.1011
17607THY    CA420955   8.873   7.714   5.272  0.1488  0.3681 -0.0345
17607THY    HA420956   8.769   7.738   5.287  0.5437  0.1142  1.9479
17607THY    CA520957   8.964   7.745   5.369 -0.1921  0.6760  0.1068
17607THY    CM120958   8.921   7.826   5.490 -0.0644  0.6719 -0.3697
17607THY    HM120959   8.855   7.767   5.555 -0.1512 -0.1591 -1.2126
17607THY    HM220960   8.858   7.910   5.458 -1.1251  1.4872 -0.8237
17607THY    HM320961   9.007   7.871   5.541 -0.6364  1.2832  0.0580
17607THY    CA620962   9.091   7.697   5.355 -0.1880 -0.0219  0.8425
17607THY    HA620963   9.168   7.723   5.426 -1.5056  2.4555 -1.5617
17608THY      O20964   4.206   4.751   3.763  0.0584 -0.2259  0.0946
17608THY     HO20965   4.295   4.744   3.800  0.3290 -0.7416  0.6831
17608THY    CA120966   4.202   4.875   3.727  0.0032 -0.6166 -0.9621
17608THY    CA220967   4.083   4.942   3.699 -0.5361 -0.0957 -0.3599
17608THY    CP120968   3.951   4.877   3.674  0.6806 -0.6441 -0.2295
17608THY    HP120969   3.955   4.771   3.702 -0.6117 -0.5937 -0.2796
17608THY    CP220970   3.916   4.881   3.525  0.5327 -0.3817  0.6345
17608THY    HP220971   3.821   4.829   3.509  0.0056  4.7428 -0.5954
17608THY    HP320972   4.000   4.845   3.464 -0.2392 -2.8964  2.8188
17608THY    HP420973   3.897   4.983   3.489  2.1672  1.7604  1.7984
17608THY    CP320974   3.837   4.951   3.759  0.2570 -0.3399  0.1356
17608THY    HP520975   3.877   4.949   3.861  0.4843 -0.4344 -0.2053
17608THY    HP620976   3.734   4.916   3.742  0.7217 -1.1367 -0.9057
17608THY    HP720977   3.843   5.056   3.731  0.0694 -0.0854  0.2164
17608THY    CA320978   4.102   5.081   3.672  1.0233  0.1368 -0.2347
17608THY    HA320979   4.014   5.144   3.664 -0.2588  1.4770 -1.7814
17608THY    CA420980   4.221   5.140   3.684  0.8179  1.2764  0.2208
17608THY    HA420981   4.227   5.247   3.671  0.1740 -2.7861 -0.0662
17608THY    CA520982   4.338   5.063   3.698  0.1071  0.5086 -0.1580
17608THY    CM120983   4.463   5.133   3.688  0.1630 -0.3139  1.4643
17608THY    HM120984   4.453   5.236   3.651  0.3237 -1.3952  1.0964
17608THY    HM220985   4.539   5.090   3.622 -0.0340  0.0073  0.6135
17608THY    HM320986   4.501   5.135   3.791 -0.1899 -0.1679  0.6542
17608THY    CA620987   4.326   4.930   3.728 -0.4772 -0.2029 -0.3138
17608THY    HA620988   4.411   4.869   3.757 -2.3621  2.3235 -1.9387
17609THY      O20989   9.085   3.797   2.794  0.0827 -0.2328  0.1208
17609THY     HO20990   9.097   3.884   2.752  2.5263 -0.9623 -0.4829
17609THY    CA120991   9.047   3.822   2.920  0.1545 -0.2713 -0.2218
17609THY    CA220992   8.936   3.763   2.984 -1.1795  0.2313 -0.3882
17609THY    CP120993   8.859   3.658   2.910 -0.6931  0.0332 -0.0582
17609THY    HP120994   8.912   3.643   2.815 -1.3565  0.0360 -2.8271
17609THY    CP220995   8.711   3.693   2.894  0.1583  0.4195 -0.1023
17609THY    HP220996   8.700   3.790   2.846 -1.5435  0.4038 -0.2734
17609THY    HP320997   8.663   3.683   2.992  1.1865  0.8453 -1.1564
17609THY    HP420998   8.662   3.623   2.826  0.7478  0.4633 -0.5677
17609THY    CP320999   8.870   3.525   2.989 -0.0520  0.2155  0.2360
17609THY    HP521000   8.940   3.536   3.073  1.8388 -1.1860 -0.5899
17609THY    HP621001   8.912   3.443   2.931  0.3292 -1.5404  1.6187
17609THY    HP721002   8.776   3.488   3.033 -0.3069 -0.0065  0.6052
17609THY    CA321003   8.900   3.804   3.117  0.8405 -0.1479  0.5634
17609THY    HA321004   8.814   3.754   3.162  0.7531 -0.7046  0.2032
17609THY    CA421005   8.984   3.887   3.180 -1.3375 -0.6418 -0.2364
17609THY    HA421006   8.959   3.926   3.278 -1.0074 -0.2133 -1.0796
17609THY    CA521007   9.098   3.940   3.119 -0.0722 -0.0135  0.0514
17609THY    CM121008   9.174   4.047   3.190 -0.0347  0.1499 -0.2999
17609THY    HM121009   9.110   4.124   3.235  0.1704  1.9457 -1.1053
17609THY    HM221010   9.252   4.081   3.121  0.2049 -0.2393 -1.6049
17609THY    HM321011   9.231   4.005   3.274 -0.6382  0.3303 -0.7696
17609THY    CA621012   9.132   3.905   2.996  0.0114 -0.0205 -0.3353
17609THY    HA621013   9.213   3.960   2.950 -1.5461 -1.0818  1.1839
17610THY      O21014   6.291   5.914   2.517  0.2495 -0.3680  0.1949
17610THY     HO21015   6.251   6.001   2.497 -2.5698 -0.5439 -1.0201
17610THY    CA121016   6.300   5.892   2.645  0.0754  0.3740  0.0168
17610THY    CA221017   6.374   5.786   2.701 -0.1400 -0.0039 -0.2127
17610THY    CP121018   6.456   5.698   2.603 -0.5145  0.3830  0.0516
17610THY    HP121019   6.424   5.715   2.500  0.2142  0.1666  0.1303
17610THY    CP221020   6.445   5.548   2.644 -0.6149  0.3086 -0.1683
17610THY    HP221021   6.521   5.519   2.718 -1.6494  0.9401 -1.3670
17610THY    HP321022   6.452   5.472   2.565 -0.6068  0.6021 -0.4739
17610THY    HP421023   6.343   5.535   2.681 -0.8805  1.0263  3.1519
17610THY    CP321024   6.604   5.732   2.587  0.1411 -0.7742  0.1669
17610THY    HP521025   6.621   5.840   2.580 -4.0969 -2.2514  0.9285
17610THY    HP621026   6.647   5.692   2.494 -0.6241 -0.5053 -1.3398
17610THY    HP721027   6.656   5.708   2.680 -1.8748  0.5485  0.6375
17610THY    CA321028   6.392   5.777   2.838  0.4039 -0.2639  0.2119
17610THY    HA321029   6.454   5.698   2.878 -0.3650  1.2107  0.3274
17610THY    CA421030   6.328   5.867   2.919 -0.6811  0.3199 -0.3056
17610THY    HA421031   6.332   5.847   3.026 -0.1662  0.2595 -0.5553
17610THY    CA521032   6.254   5.974   2.859  0.0843 -0.2496  0.0078
17610THY    CM121033   6.195   6.083   2.942  0.1376 -0.3602 -0.4836
17610THY    HM121034   6.166   6.176   2.893 -1.9162  1.7928  0.1026
17610THY    HM221035   6.256   6.098   3.032 -2.3326  1.5814 -1.3751
17610THY    HM321036   6.101   6.046   2.984 -0.0839 -0.6371 -0.2378
17610THY    CA621037   6.238   5.978   2.727 -0.6090  0.2479 -0.4068
17610THY    HA621038   6.169   6.055   2.695 -2.1335  4.2229  0.1009
17611THY      O21039   3.221   1.255   3.124 -0.1353  0.2608 -0.1762
17611THY     HO21040   3.287   1.295   3.066 -2.2489 -1.1297  1.4821
17611THY    CA121041   3.190   1.362   3.198 -0.3291 -0.0679  0.1783
17611THY    CA221042   3.079   1.352   3.288 -0.3496  0.1503 -0.4202
17611THY    CP121043   3.000   1.226   3.297 -0.5992 -0.2324  0.5684
17611THY    HP121044   3.079   1.150   3.308 -1.0891  0.5929  0.1639
17611THY    CP221045   2.913   1.196   3.171 -1.1391 -0.3685 -0.5798
17611THY    HP221046   2.898   1.089   3.155 -0.1929 -0.4528 -0.7107
17611THY    HP321047   2.964   1.239   3.084 -1.3225  0.8733  2.4392
17611THY    HP421048   2.813   1.241   3.173 -0.6321 -1.2484  0.6444
17611THY    CP321049   2.926   1.200   3.432 -0.0512 -0.5920  1.1033
17611THY    HP521050   2.872   1.105   3.426  0.6959  0.3611  0.5955
17611THY    HP621051   2.853   1.280   3.447 -0.0224  0.5452  0.9285
17611THY    HP721052   2.996   1.210   3.516 -0.7748 -0.1463  2.6689
17611THY    CA321053   3.050   1.468   3.366 -0.6192 -0.5922  0.5350
17611THY    HA321054   2.956   1.472   3.420 -1.0676 -1.3313  0.1041
17611THY    CA421055   3.142   1.573   3.377 -0.1306  0.0678  0.3219
17611THY    HA421056   3.115   1.655   3.443 -2.8493 -2.1761  1.4158
17611THY    CA521057   3.253   1.569   3.295 -0.5156 -0.0514 -0.5071
17611THY    CM121058   3.350   1.687   3.290  0.1809 -0.4005 -0.3235
17611THY    HM121059   3.336   1.746   3.382 -0.2411  0.8011 -2.2194
17611THY    HM221060   3.334   1.742   3.197 -1.4025 -0.5401 -0.9652
17611THY    HM321061   3.447   1.638   3.290 -0.9821 -0.7841 -2.7523
17611THY    CA621062   3.279   1.459   3.204  0.0736 -0.3854 -0.2165
17611THY    HA621063   3.365   1.459   3.138  1.2951  1.1306 -0.7564
17612THY      O21064   6.415   0.280   2.667 -0.4440  0.4107  0.0015
17612THY     HO21065   6.427   0.259   2.762  0.2218 -0.0688 -1.9658
17612THY    CA121066   6.438   0.414   2.650 -0.1847 -0.7190 -0.5900
17612THY    CA221067   6.426   0.474   2.524 -0.0357 -0.3036 -0.5182
17612THY    CP121068   6.390   0.390   2.403  0.1753 -0.3477  0.8042
17612THY    HP121069   6.352   0.292   2.431  1.2943  2.0921  0.9837
17612THY    CP221070   6.515   0.370   2.317  0.5258 -0.4312  0.1550
17612THY    HP221071   6.528   0.458   2.253 -0.5466 -0.7797  0.0788
17612THY    HP321072   6.493   0.295   2.239 -3.2522  0.9274 -0.3843
17612THY    HP421073   6.601   0.342   2.378  1.0132 -1.9878 -2.0136
17612THY    CP321074   6.278   0.459   2.329  0.2726  0.5847  0.8328
17612THY    HP521075   6.317   0.537   2.262 -2.7372 -2.7904 -0.2739
17612THY    HP621076   6.203   0.504   2.394 -3.0523 -2.3175 -0.0837
17612THY    HP721077   6.221   0.391   2.265  1.3953  0.5277 -0.0861
17612THY    CA321078   6.448   0.614   2.507 -0.2351  0.1619  0.6983
17612THY    HA321079   6.421   0.663   2.414 -2.6821 -0.1257 -1.0345
17612THY    CA421080   6.475   0.693   2.622  0.4597 -0.3161 -0.9958
17612THY    HA421081   6.477   0.802   2.615  1.2285 -2.9554 -1.1052
17612THY    CA521082   6.478   0.626   2.749 -0.6217  0.3008 -0.4799
17612THY    CM121083   6.510   0.706   2.871  0.6947  0.7524  0.2306
17612THY    HM121084   6.422   0.770   2.886  0.8592 -0.7374  0.8413
17612THY    HM221085   6.602   0.765   2.871  0.7101 -0.7484  0.2424
17612THY    HM321086   6.518   0.642   2.960 -0.1957  0.7973  0.1612
17612THY    CA621087   6.462   0.490   2.761  0.1433 -0.0437 -0.0077
17612THY    HA621088   6.479   0.444   2.859 -2.1241  1.3700  1.9397
17613THY      O21089   2.678   3.205   5.900  0.0770  0.2925  0.4411
17613THY     HO21090   2.672   3.127   5.842  0.7308  0.5454  0.1946
17613THY    CA121091   2.730   3.298   5.818  0.1842 -0.3868  0.2093
17613THY    CA221092   2.728   3.431   5.860 -0.3064 -0.2852  0.3341
17613THY    CP121093   2.656   3.469   5.989  0.2453 -0.8029  0.1511
17613THY    HP121094   2.670   3.401   6.073 -1.6778  0.2135  0.9364
17613THY    CP221095   2.505   3.476   5.977 -0.4737 -0.0747 -0.0695
17613THY    HP221096   2.468   3.497   6.078  1.3837  0.8640 -1.0520
17613THY    HP321097   2.481   3.375   5.941 -2.2239 -1.7209  0.8785
17613THY    HP421098   2.490   3.549   5.897  1.7995  0.2859  0.8820
17613THY    CP321099   2.697   3.602   6.048 -0.7340 -0.1584  0.3073
17613THY    HP521100   2.804   3.601   6.069 -0.5028 -1.3096 -0.2993
17613THY    HP621101   2.640   3.617   6.140 -0.4406 -0.0460  0.7623
17613THY    HP721102   2.679   3.687   5.981 -0.9976 -0.9251 -0.3367
17613THY    CA321103   2.779   3.539   5.776 -0.1733 -0.0270  0.2658
17613THY    HA321104   2.784   3.645   5.800 -1.3638  0.0434  0.3150
17613THY    CA421105   2.838   3.496   5.657 -0.3107 -0.4502  0.0428
17613THY    HA421106   2.892   3.565   5.593 -1.9260 -3.6046 -1.4149
17613THY    CA521107   2.840   3.360   5.621 -0.3744  0.5372  0.1367
17613THY    CM121108   2.894   3.311   5.489  0.2687  0.0158  0.0478
17613THY    HM121109   2.909   3.203   5.480  0.7674  1.9023 -0.0775
17613THY    HM221110   2.992   3.361   5.485  0.2317 -3.7107  0.0994
17613THY    HM321111   2.835   3.346   5.404  0.1103  0.1172  0.0248
17613THY    CA621112   2.784   3.260   5.702  0.6432  0.8150  0.1176
17613THY    HA621113   2.775   3.157   5.671 -0.6513 -0.8581  0.6892
17614THY      O21114   8.040   7.202   5.349  0.1996  0.4623  0.0227
17614THY     HO21115   8.028   7.106   5.358  0.5246 -0.7331 -0.1449
17614THY    CA121116   7.973   7.230   5.238 -0.0353 -0.3312  0.7540
17614THY    CA221117   7.888   7.346   5.231 -0.3973  0.4948 -0.1787
17614THY    CP121118   7.884   7.441   5.346 -0.4267 -0.5147  0.5259
17614THY    HP121119   7.916   7.394   5.440  0.4628  1.3770  4.5382
17614THY    CP221120   7.751   7.500   5.374  0.0377 -0.1775  1.0822
17614THY    HP221121   7.679   7.419   5.361  0.2660  2.0046  0.4459
17614THY    HP321122   7.733   7.584   5.307 -1.0968 -4.2137 -2.0742
17614THY    HP421123   7.737   7.543   5.474 -1.3828  1.3524 -2.5450
17614THY    CP321124   7.985   7.547   5.324  0.1022 -0.2313  0.2523
17614THY    HP521125   8.085   7.504   5.308  0.7455  2.5747  0.5090
17614THY    HP621126   8.001   7.609   5.413  0.4746  0.4349 -0.7701
17614THY    HP721127   7.965   7.593   5.226  0.2713 -0.7323 -0.7101
17614THY    CA321128   7.833   7.381   5.101 -0.8648  0.9933  0.6234
17614THY    HA321129   7.776   7.473   5.087  0.1435 -0.6862  1.0355
17614THY    CA421130   7.854   7.292   4.993  0.0097  0.0463 -0.2109
17614THY    HA421131   7.803   7.315   4.900 -1.0994  0.7413  0.2171
17614THY    CA521132   7.947   7.190   5.004 -0.2825 -0.3564  0.0309
17614THY    CM121133   7.994   7.116   4.884  0.7943 -0.2060 -0.3914
17614THY    HM121134   8.103   7.105   4.883  0.7752 -0.2588 -0.5895
17614THY    HM221135   7.976   7.152   4.783 -0.4654  0.4417  0.8878
17614THY    HM321136   7.955   7.013   4.881  0.4526 -0.4302 -0.2557
17614THY    CA621137   8.009   7.156   5.127  0.2094  0.1462 -0.4637
17614THY    HA621138   8.080   7.075   5.119 -0.3821 -3.3477 -0.8070
17615THY      O21139   1.935   2.091   6.324  0.3196 -0.7730  0.6598
17615THY     HO21140   1.881   2.013   6.302 -1.2593  1.8281  0.8884
17615THY    CA121141   2.054   2.048   6.372 -0.4133 -0.2479 -0.1629
17615THY    CA221142   2.159   2.136   6.418  0.0933  0.1756  0.3843
17615THY    CP121143   2.142   2.285   6.417  0.3013 -0.1331 -0.4971
17615THY    HP121144   2.056   2.305   6.352 -0.4342  0.7551 -0.7450
17615THY    CP221145   2.261   2.358   6.364 -0.4633  0.1033  0.4538
17615THY    HP221146   2.352   2.359   6.425  0.1863 -0.8241 -0.4004
17615THY    HP321147   2.238   2.464   6.351 -2.6451 -0.7316 -0.0715
17615THY    HP421148   2.279   2.313   6.266 -2.4887  0.2396 -0.7724
17615THY    CP321149   2.118   2.331   6.562 -0.2208  0.1286  0.7243
17615THY    HP521150   2.212   2.320   6.618 -0.1973 -0.3441 -2.4020
17615THY    HP621151   2.048   2.258   6.603 -0.1179 -2.1968 -0.7953
17615THY    HP721152   2.084   2.435   6.566  0.2988  3.4445  0.8531
17615THY    CA321153   2.284   2.079   6.466 -0.2414 -0.0484  0.5040
17615THY    HA321154   2.369   2.145   6.482  0.5975  0.6587 -0.7156
17615THY    CA421155   2.292   1.944   6.479 -0.5397  0.3473  0.7371
17615THY    HA421156   2.379   1.892   6.520 -0.0967 -1.7069 -0.2465
17615THY    CA521157   2.187   1.854   6.443  1.0030  1.1547 -0.2827
17615THY    CM121158   2.197   1.705   6.448  0.3637 -0.5352 -0.0091
17615THY    HM121159   2.302   1.674   6.444  1.6252  1.7506  3.4371
17615THY    HM221160   2.150   1.663   6.358  4.2590 -2.4617 -0.6747
17615THY    HM321161   2.155   1.653   6.535  1.3481 -0.2423 -0.3302
17615THY    CA621162   2.067   1.908   6.389 -0.1397 -0.4804 -0.3176
17615THY    HA621163   1.989   1.845   6.346 -1.0435  0.3963  0.1770
17616THY      O21164   5.823   4.508   4.714  0.0088 -0.5591  0.0159
17616THY     HO21165   5.749   4.509   4.776  0.0865 -0.3515 -2.2645
17616THY    CA121166   5.808   4.379   4.672  0.4902  0.1244  0.3262
17616THY    CA221167   5.912   4.299   4.622 -0.4788 -0.1899 -1.7406
17616THY    CP121168   6.053   4.363   4.613  0.4202 -0.1154  0.5308
17616THY    HP121169   6.053   4.469   4.640 -2.2232  2.7773 -0.0472
17616THY    CP221170   6.117   4.359   4.470 -0.2641  0.2740 -0.1756
17616THY    HP221171   6.222   4.388   4.477  0.0814  1.6281 -1.6254
17616THY    HP321172   6.065   4.410   4.388  0.1067  0.9336  1.3161
17616THY    HP421173   6.122   4.254   4.440 -0.7410  0.5463 -0.2794
17616THY    CP321174   6.145   4.285   4.718  0.8375  0.6693  0.6446
17616THY    HP521175   6.115   4.306   4.821 -0.1414  0.2539  1.4436
17616THY    HP621176   6.247   4.325   4.720  0.5867  0.8713  1.2990
17616THY    HP721177   6.140   4.176   4.711  1.0999  1.0506  0.6066
17616THY    CA321178   5.894   4.167   4.587  0.0899 -0.5322 -0.3378
17616THY    HA321179   5.972   4.105   4.543  0.3198  0.0887 -0.5022
17616THY    CA421180   5.765   4.114   4.607 -0.3086  0.3593 -0.0659
17616THY    HA421181   5.737   4.015   4.570  3.6804 -1.5083 -0.6942
17616THY    CA521182   5.662   4.188   4.662 -0.5178 -0.6796 -0.1807
17616THY    CM121183   5.524   4.143   4.678 -0.1282 -0.4006  0.4619
17616THY    HM121184   5.497   4.160   4.783 -0.3972  0.0581 -2.2684
17616THY    HM221185   5.523   4.034   4.663 -1.6626 -2.1793  0.6739
17616THY    HM321186   5.444   4.184   4.616 -2.0832  0.9851 -1.0145
17616THY    CA621187   5.687   4.321   4.696 -0.3072  0.3711  0.3645
17616THY    HA621188   5.601   4.376   4.733 -1.4024 -0.7241 -0.5537
17617THY      O21189   9.089   6.606   5.662 -0.2570 -0.1766  0.0333
17617THY     HO21190   9.076   6.512   5.640 -2.4460 -1.3150  0.5191
17617THY    CA121191   9.059   6.679   5.552 -0.3307 -0.5416 -0.1538
17617THY    CA221192   9.103   6.815   5.536 -0.4092 -0.0741  0.3119
17617THY    CP121193   9.141   6.898   5.661 -0.0459  0.4536  0.6933
17617THY    HP121194   9.147   6.843   5.756  0.9879  0.5321  0.9157
17617THY    CP221195   9.041   7.012   5.677  0.2122 -0.8187 -1.0178
17617THY    HP221196   8.937   6.977   5.688 -0.9718 -1.0160  2.1335
17617THY    HP321197   9.028   7.070   5.586 -0.6681 -0.3126 -0.3965
17617THY    HP421198   9.073   7.070   5.764 -1.2081 -0.6267 -0.4792
17617THY    CP321199   9.285   6.958   5.652  0.0088 -0.3371  0.0052
17617THY    HP521200   9.364   6.886   5.626  1.4203  1.0848  0.9831
17617THY    HP621201   9.317   6.999   5.749  1.0983  0.3389 -2.2803
17617THY    HP721202   9.285   7.046   5.586  0.3890  0.9308  0.9908
17617THY    CA321203   9.108   6.880   5.410  0.1533 -1.0441 -0.1179
17617THY    HA321204   9.130   6.986   5.404 -1.2705 -1.9237  0.1560
17617THY    CA421205   9.058   6.812   5.303 -0.4426 -0.2117 -0.4951
17617THY    HA421206   9.040   6.868   5.211 -1.7898  1.4540  2.0239
17617THY    CA521207   9.005   6.681   5.320  0.3402  0.1057  0.0338
17617THY    CM121208   8.951   6.609   5.193  0.4406 -0.1376 -0.0476
17617THY    HM121209   8.983   6.646   5.096  3.1402  0.8755  0.4740
17617THY    HM221210   8.842   6.619   5.183  0.3507  0.2367 -0.5693
17617THY    HM321211   8.977   6.503   5.198 -0.4696 -1.8772 -0.3889
17617THY    CA621212   9.006   6.615   5.443  0.0500 -0.2008  0.2100
17617THY    HA621213   8.979   6.510   5.450  1.3458  1.1154 -0.0765
17618THY      O21214   3.764   7.914   4.306 -0.0604  0.4678  0.7223
17618THY     HO21215   3.742   7.821   4.320  1.1829  1.9653  0.6163
17618THY    CA121216   3.861   7.934   4.393  0.3421 -1.0327 -0.4926
17618THY    CA221217   3.942   8.044   4.386  0.0399  0.0425 -0.9664
17618THY    CP121218   3.915   8.152   4.286  0.0793  0.2221 -0.9593
17618THY    HP121219   3.831   8.129   4.220  0.3111 -1.6435  2.7660
17618THY    CP221220   4.026   8.165   4.187 -0.7222  0.2748 -0.3751
17618THY    HP221221   4.046   8.066   4.146 -0.2099  0.4493 -0.3535
17618THY    HP321222   4.120   8.194   4.236 -0.8062  0.7494 -0.8856
17618THY    HP421223   4.002   8.236   4.107 -1.4456  0.3024 -0.5824
17618THY    CP321224   3.886   8.287   4.355 -0.0417  0.1048  0.0680
17618THY    HP521225   3.864   8.357   4.273 -1.8474  0.4238 -0.0684
17618THY    HP621226   3.974   8.321   4.410  0.0835  0.9019 -1.4714
17618THY    HP721227   3.804   8.269   4.425  0.3042  0.3286 -0.6636
17618THY    CA321228   4.052   8.052   4.475  0.0295  0.2870 -0.2319
17618THY    HA321229   4.121   8.136   4.475 -0.5537 -0.0136  0.2540
17618THY    CA421230   4.093   7.940   4.553  0.3997  0.5886  0.1501
17618THY    HA421231   4.188   7.936   4.606  0.7967 -0.1510 -1.4371
17618THY    CA521232   4.016   7.822   4.546 -0.1715 -0.5083  0.1972
17618THY    CM121233   4.054   7.695   4.614  0.0567  0.4293  0.1762
17618THY    HM121234   4.154   7.684   4.657  0.4237 -0.7178 -1.4013
17618THY    HM221235   4.059   7.615   4.539  1.0009  1.6198 -0.9190
17618THY    HM321236   3.978   7.659   4.685  0.0480  0.3181 -0.0291
17618THY    CA621237   3.903   7.826   4.465 -0.2094  0.1117  0.1151
17618THY    HA621238   3.850   7.731   4.461  0.4030 -2.0903 -0.1913
17619THY      O21239   2.171   4.973   2.095 -0.3046  0.0722  0.5092
17619THY     HO21240   2.255   4.960   2.047 -1.1254 -1.3162  0.0433
17619THY    CA121241   2.075   4.931   2.017  0.2097 -0.1209  0.7146
17619THY    CA221242   1.966   4.865   2.075  0.3918 -0.1275  0.2706
17619THY    CP121243   1.945   4.876   2.229 -0.5453 -0.2490 -0.7284
17619THY    HP121244   1.976   4.977   2.259 -0.0758 -0.1201 -0.9120
17619THY    CP221245   2.013   4.762   2.302 -0.0962 -0.6705  0.0371
17619THY    HP221246   2.117   4.740   2.272 -0.6303 -1.1099 -2.1163
17619THY    HP321247   1.948   4.675   2.288 -2.1910  1.1503  1.2114
17619THY    HP421248   2.006   4.769   2.411  0.1070 -0.5246 -1.5506
17619THY    CP321249   1.797   4.880   2.266 -0.1342 -1.2477 -0.3793
17619THY    HP521250   1.793   4.910   2.371 -0.3266 -1.4638  0.3801
17619THY    HP621251   1.743   4.787   2.245  1.9999 -0.9451 -1.7578
17619THY    HP721252   1.749   4.964   2.215  0.9069 -0.0521  0.9848
17619THY    CA321253   1.868   4.805   1.993  0.0585 -0.2399 -0.6521
17619THY    HA321254   1.779   4.758   2.033  0.6156  1.5683 -0.2735
17619THY    CA421255   1.900   4.796   1.860 -0.3688  0.5343  0.0285
17619THY    HA421256   1.833   4.732   1.803 -0.1798 -0.9543  1.1131
17619THY    CA521257   2.009   4.864   1.797 -0.1200  0.8992 -0.0614
17619THY    CM121258   2.022   4.851   1.645 -0.6287 -0.2198  0.0716
17619THY    HM121259   2.063   4.938   1.593 -0.7167 -0.1142  0.1766
17619THY    HM221260   1.923   4.825   1.604 -1.7533  1.5692  1.2684
17619THY    HM321261   2.090   4.768   1.623 -0.8119 -1.1543  0.1580
17619THY    CA621262   2.103   4.924   1.879 -0.4579  0.0065 -1.0769
17619THY    HA621263   2.196   4.970   1.845 -0.6576  0.6975 -0.1320
17620THY      O21264   8.048   7.019   2.934  0.0136 -0.2607 -0.1213
17620THY     HO21265   8.113   7.006   2.863 -0.2420 -0.1908 -2.1555
17620THY    CA121266   7.941   7.090   2.887 -0.5345  0.4550  0.0460
17620THY    CA221267   7.882   7.193   2.961 -0.5081  0.3019  0.7147
17620THY    CP121268   7.925   7.224   3.107 -0.3947 -0.6982 -0.9934
17620THY    HP121269   8.027   7.190   3.129 -0.8249 -0.0328 -1.8848
17620THY    CP221270   7.830   7.166   3.211  0.4887 -0.3831  0.0513
17620THY    HP221271   7.725   7.169   3.178  0.0591  0.6589 -1.7879
17620THY    HP321272   7.850   7.214   3.307  0.8029  0.2584 -1.3274
17620THY    HP421273   7.869   7.065   3.228  1.0834 -0.0494  0.3358
17620THY    CP321274   7.936   7.379   3.127 -0.0573  0.0011 -0.5237
17620THY    HP521275   8.007   7.429   3.060  1.0357  2.7345  1.8464
17620THY    HP621276   7.971   7.416   3.224 -1.8118  1.0885 -1.5806
17620THY    HP721277   7.839   7.425   3.105  0.6604 -0.4743  0.8136
17620THY    CA321278   7.775   7.265   2.900 -0.5249 -0.5880 -0.6021
17620THY    HA321279   7.733   7.352   2.950 -0.3804 -0.3738 -0.6546
17620THY    CA421280   7.747   7.245   2.766 -0.0390 -0.3676  0.7278
17620THY    HA421281   7.675   7.300   2.706  0.5024 -1.5751  0.1704
17620THY    CA521282   7.810   7.141   2.691  0.1512  0.5985 -0.2900
17620THY    CM121283   7.775   7.126   2.540  0.0034  0.0895  0.3878
17620THY    HM121284   7.669   7.099   2.529  0.0525  0.1810  0.1557
17620THY    HM221285   7.850   7.060   2.495  1.4135 -0.2567  2.1481
17620THY    HM321286   7.789   7.220   2.485  1.7632  0.8769  0.6297
17620THY    CA621287   7.901   7.058   2.757 -0.1721  0.7156 -0.0400
17620THY    HA621288   7.967   6.987   2.707  0.3677  0.0038  0.9384
17621THY      O21289   4.961   1.879   5.855 -0.0420  0.5160  0.5463
17621THY     HO21290   5.010   1.962   5.864  1.0451 -4.0773  0.6784
17621THY    CA121291   4.971   1.858   5.724  0.6251  0.0610 -0.7055
17621THY    CA221292   4.883   1.779   5.651  0.2513 -0.0626 -0.7805
17621THY    CP121293   4.751   1.730   5.714 -0.1337  0.2743  0.1859
17621THY    HP121294   4.762   1.748   5.822 -2.9806  0.1623  3.5788
17621THY    CP221295   4.716   1.584   5.708  0.3326  0.0293 -0.1272
17621THY    HP221296   4.615   1.566   5.747 -0.0597  0.3153  2.2716
17621THY    HP321297   4.789   1.538   5.775  0.3416  1.3085  1.6242
17621THY    HP421298   4.744   1.549   5.608  3.3341 -0.2467  2.5895
17621THY    CP321299   4.633   1.810   5.669  0.0690  0.1428 -0.0190
17621THY    HP521300   4.668   1.913   5.675  1.4282 -1.7508 -0.3050
17621THY    HP621301   4.541   1.792   5.726  0.9297  1.1718 -1.3042
17621THY    HP721302   4.609   1.790   5.564  1.0857 -0.8336  3.2695
17621THY    CA321303   4.894   1.765   5.504  0.5823 -0.5561 -0.6708
17621THY    HA321304   4.819   1.715   5.443 -0.5387  1.1323 -1.1425
17621THY    CA421305   5.006   1.834   5.449  0.4007 -0.3459  0.4340
17621THY    HA421306   5.026   1.831   5.342 -0.7822 -0.5698 -1.8932
17621THY    CA521307   5.099   1.898   5.526  0.3610 -0.1311  0.3954
17621THY    CM121308   5.217   1.947   5.461  0.5165 -0.1565  0.4665
17621THY    HM121309   5.247   2.024   5.533 -4.9089  0.8998  2.0117
17621THY    HM221310   5.207   1.989   5.360  0.8380 -0.9662 -1.3012
17621THY    HM321311   5.298   1.873   5.454  0.8232  0.8833  0.6907
17621THY    CA621312   5.084   1.912   5.660 -0.2458 -0.3329 -0.2485
17621THY    HA621313   5.164   1.951   5.722  0.6497  0.6229 -3.3102
17622THY      O21314   4.697   4.425   4.393  0.8910  0.7829  0.2158
17622THY     HO21315   4.655   4.486   4.331  0.1880  0.1468 -0.8830
17622THY    CA121316   4.766   4.323   4.328 -0.8176 -0.1150 -0.6915
17622THY    CA221317   4.754   4.191   4.364  0.4128  1.2526  0.1657
17622THY    CP121318   4.704   4.155   4.500  0.3046 -0.4130 -0.5251
17622THY    HP121319   4.722   4.236   4.571 -1.7040 -1.2585  0.7325
17622THY    CP221320   4.782   4.044   4.566  0.2101  0.4579  0.5399
17622THY    HP221321   4.889   4.064   4.577  0.5603  0.3855 -1.1052
17622THY    HP321322   4.761   3.950   4.513 -1.2039  0.9113  0.5650
17622THY    HP421323   4.734   4.036   4.664  0.0349  0.3097 -0.4749
17622THY    CP321324   4.554   4.134   4.505 -0.4863  0.5182 -0.3808
17622THY    HP521325   4.519   4.131   4.608  0.5244  0.9430  1.3992
17622THY    HP621326   4.548   4.039   4.450  1.9877 -0.7099  0.0772
17622THY    HP721327   4.505   4.217   4.453  0.1736 -2.9849 -1.9912
17622THY    CA321328   4.820   4.101   4.273  0.3844 -0.3490  0.4661
17622THY    HA321329   4.820   3.994   4.295  0.5289 -1.8532  0.1386
17622THY    CA421330   4.895   4.142   4.164 -0.6419 -0.3220  0.0131
17622THY    HA421331   4.946   4.073   4.097 -1.8683 -0.0136 -1.2531
17622THY    CA521332   4.904   4.278   4.133  0.2413 -0.1586  0.4676
17622THY    CM121333   4.981   4.324   4.014 -0.4049  0.2687  0.7689
17622THY    HM121334   4.940   4.414   3.967 -0.7710 -2.4614 -0.7050
17622THY    HM221335   4.968   4.246   3.938  0.9508  1.8044 -1.0223
17622THY    HM321336   5.088   4.326   4.035 -0.7208  2.1978 -0.5122
17622THY    CA621337   4.837   4.369   4.215 -0.5821  0.0778  0.7575
17622THY    HA621338   4.847   4.474   4.189 -2.6975 -1.4514  0.6482
17623THY      O21339   6.742   2.908   2.513  0.0370  0.1698  0.3075
17623THY     HO21340   6.768   2.850   2.585 -1.3779  1.7756  1.5595
17623THY    CA121341   6.668   2.993   2.582  0.5417  0.3406  0.7815
17623THY    CA221342   6.572   3.079   2.526 -0.1611  0.4967  0.3796
17623THY    CP121343   6.546   3.077   2.379  0.7087  0.8312  0.0180
17623THY    HP121344   6.619   3.012   2.328 -0.4951  0.0577 -0.7688
17623THY    CP221345   6.568   3.216   2.323  0.0962  0.3136 -0.1132
17623THY    HP221346   6.667   3.254   2.350  0.4184 -1.9578  0.8302
17623THY    HP321347   6.492   3.285   2.361 -0.5516 -2.2028  0.6863
17623THY    HP421348   6.558   3.222   2.214 -0.7715  0.4500  1.9960
17623THY    CP321349   6.404   3.031   2.343  0.2759 -0.1030  0.2223
17623THY    HP521350   6.404   2.923   2.359  0.6595  1.7603  0.4679
17623THY    HP621351   6.367   3.051   2.242 -0.7512 -0.3080 -2.3972
17623THY    HP721352   6.341   3.090   2.412  1.5666 -0.4775  2.1380
17623THY    CA321353   6.505   3.163   2.615  0.2573 -0.4327 -0.0447
17623THY    HA321354   6.430   3.234   2.580  0.3378 -0.5152 -0.0006
17623THY    CA421355   6.526   3.154   2.757 -0.1493  0.2258 -0.7091
17623THY    HA421356   6.473   3.220   2.825 -0.3792 -0.9871  0.4093
17623THY    CA521357   6.607   3.054   2.810 -0.6825  0.1926 -0.2118
17623THY    CM121358   6.616   3.018   2.953 -0.4841 -0.4899  0.0320
17623THY    HM121359   6.521   3.042   3.003  0.7163  1.2022  1.5326
17623THY    HM221360   6.692   3.072   3.010 -1.0523  1.4647 -1.1507
17623THY    HM321361   6.635   2.911   2.965 -4.2093 -0.4165 -0.7629
17623THY    CA621362   6.687   2.980   2.722  0.6395 -0.2374  0.7912
17623THY    HA621363   6.759   2.911   2.764  1.9967 -1.2676  1.5214
17624THY      O21364   7.296   6.668   2.362  0.0952  0.3256 -0.5615
17624THY     HO21365   7.384   6.675   2.322 -0.2233 -0.3570 -0.4560
17624THY    CA121366   7.231   6.561   2.321  0.3095 -0.0623 -0.1516
17624THY    CA221367   7.106   6.534   2.378 -0.0903  1.1095 -0.3700
17624THY    CP121368   7.043   6.626   2.488  0.3875  0.2155 -0.2371
17624THY    HP121369   7.099   6.712   2.527  0.4348  0.8352 -0.5489
17624THY    CP221370   7.012   6.541   2.614  0.0054  0.4135  0.6284
17624THY    HP221371   7.034   6.604   2.701  2.6089 -0.1981  0.6820
17624THY    HP321372   7.071   6.449   2.620 -2.1948 -1.8792 -1.0586
17624THY    HP421373   6.912   6.498   2.611  0.5914 -1.4255 -0.7495
17624THY    CP321374   6.906   6.693   2.447 -0.3233 -0.6417 -0.0001
17624THY    HP521375   6.915   6.778   2.378 -0.0565 -1.3131 -0.5648
17624THY    HP621376   6.872   6.739   2.540  1.1485  0.3357 -0.8152
17624THY    HP721377   6.824   6.624   2.424 -1.1690 -0.1286  0.8138
17624THY    CA321378   7.043   6.417   2.328  0.2409  0.1095 -0.5734
17624THY    HA321379   6.946   6.384   2.363  0.6226  0.3148 -1.5014
17624THY    CA421380   7.110   6.331   2.240  0.3545 -0.5190 -0.2353
17624THY    HA421381   7.059   6.243   2.203 -1.1362 -2.7152  1.4512
17624THY    CA521382   7.233   6.365   2.197 -0.0160 -0.1601  0.3998
17624THY    CM121383   7.300   6.262   2.117  0.6080 -0.7134 -1.0046
17624THY    HM121384   7.349   6.188   2.182  0.6934  0.9514  0.4245
17624THY    HM221385   7.374   6.312   2.053 -0.3547  0.2475  1.8963
17624THY    HM321386   7.232   6.223   2.041  1.4776 -1.8823 -0.2988
17624THY    CA621387   7.302   6.475   2.245 -0.2450 -0.1077 -0.3916
17624THY    HA621388   7.407   6.496   2.225 -0.6164 -0.3647  1.3932
17625THY      O21389   8.432   1.337   3.955  0.2000 -0.1579 -0.2679
17625THY     HO21390   8.351   1.392   3.951  0.6909 -2.7493  0.4367
17625THY    CA121391   8.529   1.378   3.871  0.5098 -0.1597  0.0076
17625THY    CA221392   8.646   1.309   3.836 -0.4740 -0.4018  0.2837
17625THY    CP121393   8.679   1.172   3.897  1.1612  0.2952 -0.0034
17625THY    HP121394   8.608   1.134   3.971  0.8213  1.0486  2.0301
17625THY    CP221395   8.819   1.181   3.954  0.6599 -0.5454  0.8853
17625THY    HP221396   8.852   1.084   3.992  2.8165 -0.6869  1.5136
17625THY    HP321397   8.819   1.254   4.035  0.2686  0.5972 -0.3431
17625THY    HP421398   8.888   1.216   3.876  1.1701  0.1295  1.3829
17625THY    CP321399   8.696   1.079   3.775  0.5109  0.5642  0.6774
17625THY    HP521400   8.612   1.106   3.709 -1.2215  2.1764 -0.4708
17625THY    HP621401   8.674   0.976   3.806  1.0192 -1.5980 -0.1266
17625THY    HP721402   8.793   1.079   3.725  1.2662  1.9634  0.9130
17625THY    CA321403   8.740   1.377   3.755  0.0811  0.1850  0.2481
17625THY    HA321404   8.824   1.325   3.710 -0.3216 -0.0411 -0.2171
17625THY    CA421405   8.710   1.504   3.700  0.3003 -0.4337  0.0918
17625THY    HA421406   8.778   1.558   3.635  1.7697  0.8746 -0.1112
17625THY    CA521407   8.592   1.569   3.746 -0.1475 -0.1036 -0.4718
17625THY    CM121408   8.575   1.717   3.715 -0.0279  0.1276  0.3682
17625THY    HM121409   8.662   1.768   3.672  0.2436 -3.6081 -2.7945
17625THY    HM221410   8.536   1.757   3.809 -2.2730  0.4505 -2.3024
17625THY    HM321411   8.494   1.727   3.643 -1.3939  1.0278 -2.7257
17625THY    CA621412   8.502   1.500   3.822  0.8114 -0.0171 -0.2992
17625THY    HA621413   8.410   1.548   3.853  0.5462 -1.6453  0.2817
17626THY      O21414   4.373   9.220   2.307  0.0519  0.4151  0.2291
17626THY     HO21415   4.366   9.249   2.399  1.3125  1.5739 -2.6641
17626THY    CA121416   4.256   9.166   2.266  0.2268  0.4175  0.0081
17626THY    CA221417   4.243   9.057   2.180  0.3857 -0.4676 -0.0629
17626THY    CP121418   4.380   8.978   2.157 -0.2150 -0.4502 -1.0198
17626THY    HP121419   4.464   9.049   2.152 -0.7263 -0.7022 -0.4166
17626THY    CP221420   4.376   8.891   2.025  0.2072  0.1802 -0.5815
17626THY    HP221421   4.309   8.804   2.035  1.1762 -0.2901 -1.3977
17626THY    HP321422   4.477   8.852   2.016 -0.0123  1.6943 -1.5986
17626THY    HP421423   4.344   8.937   1.931  0.8310 -0.5862 -1.6748
17626THY    CP321424   4.406   8.885   2.277 -0.2791  0.3762  0.3411
17626THY    HP521425   4.394   8.937   2.373  2.8996  1.2033 -0.2341
17626THY    HP621426   4.500   8.828   2.272 -1.3590 -0.7051 -1.4181
17626THY    HP721427   4.342   8.797   2.289  1.4531  0.8022 -0.9146
17626THY    CA321428   4.122   9.024   2.121 -0.2985 -0.1252 -0.1761
17626THY    HA321429   4.110   8.939   2.054 -1.4486 -0.4752  0.2436
17626THY    CA421430   4.011   9.096   2.159  0.1458  0.0572 -0.1266
17626THY    HA421431   3.913   9.060   2.128 -0.3292  0.2984  0.9281
17626THY    CA521432   4.017   9.198   2.256 -0.2084  0.1063 -0.1513
17626THY    CM121433   3.898   9.277   2.296  0.1182  0.6029  0.3058
17626THY    HM121434   3.927   9.345   2.377  0.7841  1.2541 -0.7256
17626THY    HM221435   3.814   9.219   2.337  1.8363  2.3913 -1.0453
17626THY    HM321436   3.862   9.340   2.215 -1.2714  2.4777  2.0720
17626THY    CA621437   4.139   9.237   2.302 -0.4366 -0.1593  0.7273
17626THY    HA621438   4.142   9.319   2.373 -0.1401 -1.4896  1.8974
17627THY      O21439   2.409   4.310   7.127  0.1844 -0.0439 -0.6409
17627THY     HO21440   2.482   4.359   7.084 -3.0577 -4.9141  0.6660
17627THY    CA121441   2.418   4.301   7.264  0.5750  0.8110  0.1141
17627THY    CA221442   2.373   4.184   7.329  0.4711  0.4113  0.2770
17627THY    CP121443   2.293   4.076   7.247 -0.0706  0.1936  0.0787
17627THY    HP121444   2.234   4.127   7.170 -1.7489  2.6472  2.1171
17627THY    CP221445   2.194   3.996   7.334  0.0537 -0.3011  0.0390
17627THY    HP221446   2.135   4.057   7.403  1.3372  1.0369 -0.1499
17627THY    HP321447   2.243   3.918   7.394  0.3943  0.9339  1.1765
17627THY    HP421448   2.124   3.942   7.269 -2.6485  2.6576 -0.3124
17627THY    CP321449   2.382   3.971   7.172 -0.4719 -0.1565 -0.0460
17627THY    HP521450   2.371   3.867   7.205  0.1346  1.0727  0.2572
17627THY    HP621451   2.485   4.007   7.178 -1.2606 -1.1078  2.6195
17627THY    HP721452   2.363   3.971   7.064  0.7742 -0.4088  1.4131
17627THY    CA321453   2.388   4.167   7.465  0.2725 -0.5047  0.6540
17627THY    HA321454   2.367   4.070   7.510  1.4761 -1.1294  0.0904
17627THY    CA421455   2.463   4.259   7.535 -0.4294 -0.0443  0.5331
17627THY    HA421456   2.477   4.244   7.642 -2.1144  0.0791 -0.5075
17627THY    CA521457   2.519   4.373   7.473  0.1831 -0.4501  0.1755
17627THY    CM121458   2.605   4.474   7.553  0.8210 -0.2209 -0.1642
17627THY    HM121459   2.681   4.426   7.616  1.0014 -0.5966 -0.3816
17627THY    HM221460   2.529   4.542   7.591 -0.0331 -3.4666  0.8955
17627THY    HM321461   2.657   4.542   7.484 -1.3268  0.0957  1.9219
17627THY    CA621462   2.497   4.393   7.338 -0.2281 -0.0308  0.0152
17627THY    HA621463   2.539   4.474   7.279 -2.1156  0.7178  1.6284
17628THY      O21464   5.943   1.046   1.986 -0.3930 -0.4086 -0.0680
17628THY     HO21465   5.885   1.067   1.912 -1.0469  0.3815  1.0193
17628THY    CA121466   5.869   0.970   2.065 -0.0107 -0.5794  0.2346
17628THY    CA221467   5.923   0.917   2.185 -0.2543  0.2241 -0.5106
17628THY    CP121468   6.066   0.953   2.229  0.4371 -0.1541 -0.6982
17628THY    HP121469   6.134   0.987   2.150  0.8646  0.7694  0.6618
17628THY    CP221470   6.146   0.831   2.277 -0.1229 -0.6061  0.0605
17628THY    HP221471   6.249   0.861   2.300 -0.6978  1.6497  0.4664
17628THY    HP321472   6.137   0.754   2.200 -0.0504 -1.2091  0.6443
17628THY    HP421473   6.110   0.782   2.368 -0.5953 -1.5699 -1.4301
17628THY    CP321474   6.069   1.062   2.338 -1.0351 -0.2022 -0.0337
17628THY    HP521475   6.177   1.069   2.357 -0.1850 -3.9980 -0.7254
17628THY    HP621476   6.010   1.042   2.428 -1.8880 -0.2262  2.0686
17628THY    HP721477   6.046   1.163   2.301  0.5806 -0.4106  0.2852
17628THY    CA321478   5.838   0.835   2.263 -0.0851 -0.2512  0.0551
17628THY    HA321479   5.876   0.785   2.352 -1.7464  0.0304 -0.7811
17628THY    CA421480   5.704   0.812   2.226 -0.3319 -0.6215  0.2152
17628THY    HA421481   5.651   0.741   2.290  3.1657  2.1900 -0.1368
17628THY    CA521482   5.656   0.870   2.110  1.0875 -0.4581  1.2803
17628THY    CM121483   5.511   0.850   2.075  0.8176 -0.1339 -0.0445
17628THY    HM121484   5.442   0.912   2.133 -0.3129 -0.1869 -1.2111
17628THY    HM221485   5.474   0.748   2.091 -1.7475  0.1898  0.8472
17628THY    HM321486   5.500   0.873   1.969  0.7582 -0.0450  0.3340
17628THY    CA621487   5.733   0.955   2.034  0.0546  0.1597  0.7863
17628THY    HA621488   5.699   0.991   1.938 -0.6736 -1.6281 -4.0452
17629THY      O21489   1.221   2.734   7.616  0.5324 -0.3721  0.1023
17629THY     HO21490   1.235   2.755   7.522 -0.7115 -0.7562 -0.6652
17629THY    CA121491   1.325   2.784   7.683 -0.2032 -0.3775 -0.2409
17629THY    CA221492   1.340   2.781   7.822  0.1652  0.2046 -0.3430
17629THY    CP121493   1.240   2.698   7.897 -0.2024  0.7913 -0.3233
17629THY    HP121494   1.203   2.622   7.827  1.1527 -1.7575  1.2262
17629THY    CP221495   1.108   2.771   7.942  0.2367 -0.2349  0.5391
17629THY    HP221496   1.054   2.812   7.856 -0.1464  0.1539  0.8587
17629THY    HP321497   1.118   2.858   8.008  1.4186  0.5487 -0.1495
17629THY    HP421498   1.039   2.694   7.980 -0.3077 -1.7994  0.2133
17629THY    CP321499   1.300   2.625   8.013 -0.0542  0.4728 -0.3092
17629THY    HP521500   1.400   2.585   7.991  0.1358 -0.0223  0.4183
17629THY    HP621501   1.232   2.545   8.044 -0.6050  0.3766  0.1133
17629THY    HP721502   1.319   2.689   8.100  0.0703  0.6355 -0.5694
17629THY    CA321503   1.444   2.850   7.879  0.2260 -0.3237 -0.2368
17629THY    HA321504   1.462   2.836   7.985  0.2127 -0.0817  1.3594
17629THY    CA421505   1.533   2.928   7.809  0.1916 -0.1745  0.0995
17629THY    HA421506   1.614   2.981   7.859  0.5427  0.8420 -1.3642
17629THY    CA521507   1.513   2.936   7.673 -0.2776  0.0919  0.3950
17629THY    CM121508   1.615   3.016   7.585  0.8832 -0.1401  0.0275
17629THY    HM121509   1.719   3.007   7.619  0.6937  0.1108 -1.5939
17629THY    HM221510   1.600   3.124   7.588  2.2254 -1.2995  0.2878
17629THY    HM321511   1.595   2.978   7.484 -1.6803  0.6719 -1.0117
17629THY    CA621512   1.416   2.857   7.611 -0.3430 -0.0773 -0.0017
17629THY    HA621513   1.408   2.851   7.503 -2.1603  0.0411 -0.2861
17630THY      O21514   1.967   5.151   7.749 -0.8052  0.7485 -0.0101
17630THY     HO21515   1.873   5.169   7.735  0.0144 -3.0603  2.3640
17630THY    CA121516   2.024   5.278   7.761  0.0745 -0.6128 -0.2365
17630THY    CA221517   2.157   5.310   7.788  0.1192  0.4452 -0.1496
17630THY    CP121518   2.255   5.192   7.786 -0.2647 -0.0147  0.0213
17630THY    HP121519   2.216   5.095   7.751 -0.8021  2.6253 -0.8109
17630THY    CP221520   2.285   5.154   7.938 -0.2779  0.1763  0.8749
17630THY    HP221521   2.326   5.238   7.995  1.0704 -2.0212  1.7848
17630THY    HP321522   2.345   5.063   7.951 -1.2671 -0.4304  0.1072
17630THY    HP421523   2.193   5.120   7.988 -0.2039  2.4745  3.6639
17630THY    CP321524   2.386   5.214   7.705  0.2042 -0.0089  0.1502
17630THY    HP521525   2.427   5.315   7.715 -0.1584  0.4218  0.2574
17630THY    HP621526   2.367   5.212   7.597 -1.0013  0.1583 -2.8710
17630THY    HP721527   2.463   5.139   7.724 -0.4051  0.1360 -0.4452
17630THY    CA321528   2.202   5.446   7.796  0.0797 -0.1834 -0.4307
17630THY    HA321529   2.304   5.462   7.831 -0.8905  2.4202  0.6466
17630THY    CA421530   2.117   5.553   7.771 -0.1017  0.4765  0.5631
17630THY    HA421531   2.156   5.654   7.763 -0.2369  0.6334  0.6278
17630THY    CA521532   1.983   5.519   7.743  0.2769  0.1252 -0.4466
17630THY    CM121533   1.870   5.621   7.731 -0.1824  0.2212 -0.0917
17630THY    HM121534   1.807   5.618   7.820  1.6141  1.5454 -0.4455
17630THY    HM221535   1.817   5.602   7.638  2.0789 -1.8921  2.9307
17630THY    HM321536   1.903   5.725   7.740  0.6891 -0.4130 -0.3009
17630THY    CA621537   1.937   5.388   7.741 -0.0736  0.2088  0.8125
17630THY    HA621538   1.833   5.363   7.722 -0.0538 -0.1870  1.0298
17631THY      O21539   7.308   3.756   6.704  0.4021  0.1907  0.2280
17631THY     HO21540   7.402   3.779   6.702  0.4584  0.7107  0.0464
17631THY    CA121541   7.245   3.877   6.715 -0.9737  0.8060  0.5091
17631THY    CA221542   7.108   3.890   6.683  0.1929 -0.0157 -0.2876
17631THY    CP121543   7.015   3.775   6.646 -0.0027 -0.4019  0.1553
17631THY    HP121544   7.065   3.680   6.670  2.1666 -1.5010  0.9480
17631THY    CP221545   6.999   3.778   6.493 -0.8547  0.0414 -0.0823
17631THY    HP221546   6.929   3.700   6.459  0.0239 -1.2311 -0.3349
17631THY    HP321547   7.094   3.773   6.439 -1.3043 -0.8810  1.0190
17631THY    HP421548   6.942   3.866   6.461  0.3234  0.8353  0.9896
17631THY    CP321549   6.872   3.783   6.717 -0.3453  0.1533 -0.0055
17631THY    HP521550   6.822   3.695   6.675  0.7379  1.4958 -1.3226
17631THY    HP621551   6.819   3.874   6.689  1.3357 -1.6241  0.4784
17631THY    HP721552   6.881   3.780   6.827 -1.6938  0.2539 -2.4174
17631THY    CA321553   7.056   4.016   6.700 -0.8652 -0.4639  0.1335
17631THY    HA321554   6.951   4.042   6.691 -0.7654 -2.6840 -0.0804
17631THY    CA421555   7.142   4.123   6.732  0.0546  0.2226  0.4003
17631THY    HA421556   7.085   4.211   6.758 -1.6913 -0.0304 -0.6025
17631THY    CA521557   7.278   4.113   6.745  0.2151 -0.0998 -0.0696
17631THY    CM121558   7.368   4.232   6.754  0.6048  0.1119  0.0207
17631THY    HM121559   7.364   4.284   6.658 -0.4196 -0.1056 -0.4507
17631THY    HM221560   7.472   4.209   6.783  0.6438 -0.1574 -0.1445
17631THY    HM321561   7.336   4.299   6.834  1.2084  1.4469 -1.2220
17631THY    CA621562   7.331   3.985   6.739 -0.1999 -0.0067  0.4740
17631THY    HA621563   7.439   3.972   6.741 -0.2832 -2.4098 -1.2840
17632THY      O21564   0.912   2.257   2.500 -0.0115 -0.3813 -0.4254
17632THY     HO21565   0.958   2.210   2.429 -0.7445  0.3028 -2.3055
17632THY    CA121566   0.889   2.174   2.604 -0.4081 -0.7235 -0.2818
17632THY    CA221567   0.760   2.174   2.671 -0.2665 -0.6517 -0.0646
17632THY    CP121568   0.645   2.251   2.619  0.0215 -0.3595 -0.0750
17632THY    HP121569   0.670   2.309   2.529  0.4204  0.2411  0.7106
17632THY    CP221570   0.596   2.350   2.727 -0.2208 -0.0511  0.0960
17632THY    HP221571   0.548   2.306   2.815  1.6488  0.5356 -0.8747
17632THY    HP321572   0.520   2.406   2.672  2.3976 -2.2832  1.7180
17632THY    HP421573   0.675   2.418   2.761 -2.1676  2.3530  1.3150
17632THY    CP321574   0.537   2.158   2.576  0.2445 -0.2971  0.2157
17632THY    HP521575   0.479   2.199   2.492  2.0779 -0.8972  1.7695
17632THY    HP621576   0.471   2.135   2.660 -0.9168 -1.0395  0.7742
17632THY    HP721577   0.579   2.063   2.542  0.1349 -0.5561  0.2585
17632THY    CA321578   0.761   2.100   2.794  0.6073 -0.0960  1.0220
17632THY    HA321579   0.667   2.094   2.849  1.0829  0.5549 -1.0214
17632THY    CA421580   0.875   2.033   2.853  0.7363  0.0989 -0.2303
17632THY    HA421581   0.864   1.960   2.933 -0.2728  0.4547  0.2850
17632THY    CA521582   0.990   2.023   2.775 -0.5136 -0.1792  0.3478
17632THY    CM121583   1.103   1.928   2.806 -1.0024 -0.2392 -0.1622
17632THY    HM121584   1.181   1.999   2.838 -0.4315 -1.8299 -0.0511
17632THY    HM221585   1.127   1.863   2.722  0.8351  0.7450 -0.8283
17632THY    HM321586   1.080   1.864   2.892  1.1144  0.4359 -0.1057
17632THY    CA621587   0.995   2.093   2.652  0.1009 -0.3551 -0.0985
17632THY    HA621588   1.093   2.092   2.606 -0.2914 -1.2389  1.0682
17633THY      O21589   2.049   8.439   3.425 -0.5586  0.0970 -0.0321
17633THY     HO21590   2.103   8.486   3.359  1.4971 -0.0739 -2.4458
17633THY    CA121591   2.040   8.515   3.533 -1.2429 -1.0029  0.3417
17633THY    CA221592   2.016   8.461   3.669  0.6249  0.7863 -0.6586
17633THY    CP121593   2.016   8.311   3.692  0.0933  0.2771 -0.0890
17633THY    HP121594   1.954   8.272   3.611 -1.5973  2.0596 -1.3045
17633THY    CP221595   1.934   8.254   3.807  0.6435 -0.3924 -0.6968
17633THY    HP221596   1.826   8.261   3.789  0.5322 -0.9103 -2.9316
17633THY    HP321597   1.955   8.281   3.911 -1.4483  0.1923 -1.0854
17633THY    HP421598   1.951   8.145   3.807  0.5857 -2.0282 -0.7229
17633THY    CP321599   2.148   8.235   3.669  0.0465  0.2404  0.2391
17633THY    HP521600   2.122   8.131   3.643 -1.4368 -3.5848  1.3846
17633THY    HP621601   2.219   8.245   3.752  0.3868 -0.1462  1.1947
17633THY    HP721602   2.198   8.276   3.580  1.7299  1.6906  1.5204
17633THY    CA321603   1.980   8.558   3.763  0.2653 -0.9099  0.0088
17633THY    HA321604   1.956   8.521   3.863  2.3355 -0.2256  0.3695
17633THY    CA421605   1.978   8.695   3.733 -0.0385 -0.4394 -0.5604
17633THY    HA421606   1.938   8.764   3.806 -2.1487 -0.8977 -1.2162
17633THY    CA521607   2.008   8.741   3.606 -0.2067  1.1351  0.0447
17633THY    CM121608   1.997   8.886   3.576 -0.5305 -0.0320 -0.1960
17633THY    HM121609   2.079   8.933   3.520 -0.4234 -0.3406 -0.7552
17633THY    HM221610   1.979   8.946   3.667  0.1986 -1.8581  3.0450
17633THY    HM321611   1.910   8.914   3.515 -0.2733 -0.9850 -1.4017
17633THY    CA621612   2.041   8.651   3.506 -0.1427  0.1594 -0.1270
17633THY    HA621613   2.055   8.693   3.407  0.0860  0.4941  0.6009
17634THY      O21614   7.419   1.942   4.732 -0.3828 -0.1966  0.0995
17634THY     HO21615   7.465   2.016   4.775 -0.4647  0.4558 -0.2178
17634THY    CA121616   7.425   1.832   4.810  0.1143 -0.4607  0.0888
17634THY    CA221617   7.345   1.718   4.793  0.4009  0.0592 -0.0248
17634THY    CP121618   7.244   1.728   4.678  0.4008 -0.0749  0.4889
17634THY    HP121619   7.282   1.801   4.606  0.9477 -1.4432 -1.0787
17634THY    CP221620   7.106   1.773   4.740  0.4975  0.3559 -0.3016
17634THY    HP221621   7.124   1.874   4.778 -0.9999 -0.5727  0.3505
17634THY    HP321622   7.078   1.702   4.819  1.7682 -0.5809 -1.9077
17634THY    HP421623   7.023   1.772   4.668 -0.6535  1.6036  0.9587
17634THY    CP321624   7.230   1.600   4.603  0.1489  0.4287  0.0154
17634THY    HP521625   7.326   1.556   4.572 -0.2478 -1.0388  0.1297
17634THY    HP621626   7.180   1.622   4.508 -0.3760  1.3357  3.1602
17634THY    HP721627   7.169   1.525   4.654 -0.4168 -2.3629 -1.6113
17634THY    CA321628   7.354   1.607   4.887 -0.3331  0.2913 -0.4561
17634THY    HA321629   7.294   1.517   4.874 -1.4585  0.5764  0.2378
17634THY    CA421630   7.446   1.613   4.991  0.0783 -0.8504  0.2914
17634THY    HA421631   7.443   1.526   5.056  2.9264 -1.2245 -0.1738
17634THY    CA521632   7.531   1.724   5.007  0.9080 -0.3272 -0.2258
17634THY    CM121633   7.639   1.732   5.104 -0.2377  0.2937 -0.7173
17634THY    HM121634   7.715   1.810   5.091  0.3871 -0.6233 -1.4574
17634THY    HM221635   7.693   1.637   5.112 -0.0262 -0.4988 -0.6707
17634THY    HM321636   7.597   1.751   5.204  1.2633  0.5863  1.3722
17634THY    CA621637   7.521   1.833   4.916 -0.0660  0.3984  0.3225
17634THY    HA621638   7.599   1.909   4.924 -0.2523  0.1359  0.5414
17635THY      O21639   0.663   6.868   6.836  0.3736  0.1309 -0.1444
17635THY     HO21640   0.714   6.818   6.770 -1.7794 -1.8383  0.0934
17635THY    CA121641   0.583   6.950   6.768  0.3557 -0.7110  0.1342
17635THY    CA221642   0.499   7.043   6.833 -1.1406  1.0244  0.4414
17635THY    CP121643   0.500   7.051   6.989 -0.3267  0.2488  0.5150
17635THY    HP121644   0.603   7.043   7.024 -0.8763  2.1521  1.0876
17635THY    CP221645   0.402   6.943   7.042  0.2800 -0.2567  0.1498
17635THY    HP221646   0.299   6.980   7.039 -0.3341 -0.2881 -1.4599
17635THY    HP321647   0.423   6.924   7.148  1.2867  0.0973  2.8068
17635THY    HP421648   0.406   6.855   6.977  2.0917 -0.0770  0.0608
17635THY    CP321649   0.462   7.185   7.046 -0.6541  0.2336 -0.6126
17635THY    HP521650   0.466   7.174   7.154  0.6123  0.3305  0.5013
17635THY    HP621651   0.363   7.226   7.022 -0.2144 -0.8561 -0.1252
17635THY    HP721652   0.523   7.274   7.025 -2.2881 -0.4094  0.4131
17635THY    CA321653   0.430   7.126   6.743  0.4023 -0.4027  0.2361
17635THY    HA321654   0.354   7.190   6.787 -0.2125  2.0860 -1.9999
17635THY    CA421655   0.441   7.124   6.605 -0.1901 -0.3446  0.3042
17635THY    HA421656   0.384   7.198   6.551 -0.9921  1.8968  1.4331
17635THY    CA521657   0.522   7.022   6.551 -0.1163 -0.2394 -0.0029
17635THY    CM121658   0.535   7.019   6.399  0.7002  0.7393  0.2435
17635THY    HM121659   0.451   6.958   6.365 -0.4432  0.7424  1.7548
17635THY    HM221660   0.626   6.966   6.371  0.5550 -1.1841  0.9594
17635THY    HM321661   0.536   7.119   6.354 -1.8869  0.3784  0.1777
17635THY    CA621662   0.585   6.930   6.633 -0.5467  0.2698 -0.1438
17635THY    HA621663   0.640   6.845   6.593  1.5493  1.6998  0.4641
17636THY      O21664   1.079   6.433   5.649  0.0680 -0.1081  0.1421
17636THY     HO21665   1.103   6.523   5.677  2.0502  1.0799 -0.6950
17636THY    CA121666   0.980   6.449   5.562  0.0353  0.5959  0.4771
17636THY    CA221667   0.874   6.361   5.541  0.3542  0.0758 -0.5725
17636THY    CP121668   0.851   6.243   5.636 -0.0331  0.4408  0.7543
17636THY    HP121669   0.939   6.234   5.701 -0.2147  0.9138  2.1737
17636THY    CP221670   0.840   6.115   5.556 -0.1822 -0.1003 -0.5275
17636THY    HP221671   0.803   6.034   5.620 -0.4162  0.5652  0.0863
17636THY    HP321672   0.934   6.095   5.504  0.4854  0.8336  0.0565
17636THY    HP421673   0.758   6.129   5.484  1.0557 -1.2672  1.1910
17636THY    CP321674   0.737   6.263   5.735  0.2769  0.5187  0.3145
17636THY    HP521675   0.751   6.357   5.789 -1.7050  0.8125  0.5024
17636THY    HP621676   0.732   6.183   5.810  0.3630 -2.6866 -2.9560
17636THY    HP721677   0.641   6.272   5.683  0.1595  0.8532  1.0833
17636THY    CA321678   0.773   6.385   5.443 -0.8689  0.0741  0.0163
17636THY    HA321679   0.686   6.321   5.430  0.1136 -1.1113 -1.1448
17636THY    CA421680   0.781   6.510   5.370 -0.5233  0.7507 -0.2369
17636THY    HA421681   0.713   6.527   5.287  0.0200 -0.2050 -2.3929
17636THY    CA521682   0.878   6.599   5.401 -0.2411  0.0983 -0.3781
17636THY    CM121683   0.876   6.729   5.331 -0.0637  0.2860 -0.3289
17636THY    HM121684   0.882   6.718   5.222  1.3068  0.3401 -0.3619
17636THY    HM221685   0.960   6.789   5.369 -1.1454  1.2898  0.5888
17636THY    HM321686   0.789   6.788   5.362  1.5094  1.6155  1.4267
17636THY    CA621687   0.980   6.567   5.489 -0.1896 -0.3076 -0.2573
17636THY    HA621688   1.061   6.637   5.506 -0.3708 -1.2541  0.1972
17637THY      O21689   7.946   2.681   7.342  0.1042  0.0660  0.1299
17637THY     HO21690   7.975   2.591   7.320 -0.9305 -0.3521 -0.1091
17637THY    CA121691   8.046   2.749   7.396 -0.0670 -0.1193 -0.3826
17637THY    CA221692   8.018   2.853   7.486 -0.0083 -0.2730 -0.4011
17637THY    CP121693   7.874   2.880   7.531 -0.0226  0.3680  0.0994
17637THY    HP121694   7.793   2.827   7.479 -2.8703  3.2698  1.2974
17637THY    CP221695   7.838   3.021   7.534 -0.0763 -0.6197  0.4981
17637THY    HP221696   7.879   3.077   7.619  1.9948 -1.8029  0.9029
17637THY    HP321697   7.732   3.048   7.533  0.0424 -0.1244  1.0180
17637THY    HP421698   7.864   3.059   7.435  0.7750 -1.1534 -1.3666
17637THY    CP321699   7.858   2.818   7.672 -0.0944 -0.2361  0.3564
17637THY    HP521700   7.883   2.712   7.666 -3.3253  1.6849 -0.6672
17637THY    HP621701   7.762   2.824   7.724  1.2858  2.7385 -1.3853
17637THY    HP721702   7.927   2.864   7.743  2.6420 -3.2287  1.2779
17637THY    CA321703   8.136   2.936   7.536  0.1027 -0.8880  1.0860
17637THY    HA321704   8.118   3.021   7.600  1.8364 -0.2562  1.0071
17637THY    CA421705   8.264   2.893   7.489 -0.0737  0.2995 -0.0235
17637THY    HA421706   8.349   2.946   7.531  1.3585 -0.1957 -1.8117
17637THY    CA521707   8.278   2.790   7.398 -0.1051 -0.0457 -0.4788
17637THY    CM121708   8.419   2.753   7.356  0.0069  0.4765 -0.0035
17637THY    HM121709   8.426   2.656   7.306 -1.7169  0.2757 -0.0512
17637THY    HM221710   8.482   2.731   7.443 -0.4757  0.7991 -0.1108
17637THY    HM321711   8.475   2.831   7.302  2.6732  1.7183 -0.9355
17637THY    CA621712   8.174   2.721   7.350  0.4315 -0.1410  0.2491
17637THY    HA621713   8.194   2.654   7.268  0.5334 -1.3191  1.6631
17638THY      O21714   0.574   5.994   4.488 -0.6478 -0.8988  0.3236
17638THY     HO21715   0.594   5.921   4.550  2.5091 -1.5073  0.5338
17638THY    CA121716   0.517   5.939   4.379 -0.1404 -0.3449  0.6290
17638THY    CA221717   0.392   5.984   4.339 -0.4861 -0.0181 -0.3843
17638THY    CP121718   0.309   6.093   4.407  0.0494  0.2995  0.2376
17638THY    HP121719   0.356   6.116   4.503  2.4899 -1.1308  1.6508
17638THY    CP221720   0.162   6.060   4.421  0.2988 -0.3385 -0.4551
17638THY    HP221721   0.154   5.961   4.467  1.7970  3.8516  1.1648
17638THY    HP321722   0.112   6.073   4.324 -0.6015  0.4432  3.1157
17638THY    HP421723   0.130   6.139   4.491  1.3970  0.1993 -0.4691
17638THY    CP321724   0.329   6.216   4.324  0.6900  0.8656  0.2070
17638THY    HP521725   0.276   6.304   4.364 -0.2296 -2.2324  1.1724
17638THY    HP621726   0.292   6.202   4.222 -1.1824  1.6747 -1.2648
17638THY    HP721727   0.437   6.234   4.321  0.8695  0.2877 -0.9047
17638THY    CA321728   0.336   5.916   4.227 -0.1132  0.2133 -0.3332
17638THY    HA321729   0.238   5.943   4.190  1.0107 -2.1587  0.8091
17638THY    CA421730   0.413   5.812   4.163  0.3707  0.4492  0.2858
17638THY    HA421731   0.383   5.760   4.072  3.5618 -0.8038  0.3905
17638THY    CA521732   0.544   5.774   4.210 -0.1315  0.1590  0.3322
17638THY    CM121733   0.627   5.663   4.148  0.4059  0.5176  0.0402
17638THY    HM121734   0.597   5.657   4.043  1.1412  0.3285 -0.3809
17638THY    HM221735   0.610   5.568   4.200  2.7873 -0.4201 -0.9832
17638THY    HM321736   0.734   5.684   4.153  0.1812  0.7883  1.1797
17638THY    CA621737   0.587   5.831   4.328 -0.4976 -0.2959  0.0483
17638THY    HA621738   0.676   5.800   4.381 -0.2057 -0.5589  0.4328
17639THY      O21739   7.101   3.047   5.363 -0.5260  0.0794 -0.3899
17639THY     HO21740   7.192   3.025   5.336  0.4646  2.0362  0.9522
17639THY    CA121741   7.081   2.956   5.459 -0.7478  0.2705  0.8217
17639THY    CA221742   6.978   2.966   5.553  0.8729 -0.1678  0.0865
17639THY    CP121743   6.891   3.099   5.552 -0.1081  0.3267 -0.2328
17639THY    HP121744   6.939   3.169   5.484  0.7392  0.0933 -1.0177
17639THY    CP221745   6.883   3.167   5.685 -0.1793 -0.3792  0.0928
17639THY    HP221746   6.967   3.139   5.750 -0.0673 -0.2507  0.7172
17639THY    HP321747   6.797   3.132   5.744  0.6819  0.5817 -0.4956
17639THY    HP421748   6.881   3.276   5.675  1.2958  1.2650  0.3205
17639THY    CP321749   6.756   3.082   5.487 -0.2376 -0.6068  0.6272
17639THY    HP521750   6.767   3.020   5.398 -0.2467  0.5928 -1.1802
17639THY    HP621751   6.715   3.177   5.453  0.4044 -1.2682  0.6756
17639THY    HP721752   6.688   3.035   5.559  1.0292  0.0285 -0.3196
17639THY    CA321753   6.952   2.855   5.642 -0.7585 -0.0993 -0.2031
17639THY    HA321754   6.867   2.860   5.710  0.5444  1.5913 -0.2452
17639THY    CA421755   7.041   2.748   5.641 -0.0105  0.0318 -0.1086
17639THY    HA421756   7.013   2.660   5.697 -1.9087  0.4136  0.6999
17639THY    CA521757   7.159   2.751   5.564 -0.3504  0.0567 -0.2041
17639THY    CM121758   7.261   2.641   5.584  0.5082 -0.0221 -0.4831
17639THY    HM121759   7.250   2.591   5.682  0.9625  0.8550  1.0918
17639THY    HM221760   7.364   2.679   5.579 -0.7359 -2.4874  3.0547
17639THY    HM321761   7.248   2.572   5.500 -0.3708 -0.8323  0.6405
17639THY    CA621762   7.173   2.852   5.468 -0.5623 -0.2181 -0.1346
17639THY    HA621763   7.256   2.860   5.398 -1.8018 -1.7825 -0.5839
17640THY      O21764   6.379   8.731   3.636 -0.2647 -0.3004  0.2588
17640THY     HO21765   6.385   8.680   3.554  1.3620  0.8055 -1.4600
17640THY    CA121766   6.429   8.655   3.735  0.5298  0.1571  0.0541
17640THY    CA221767   6.423   8.698   3.874 -0.4503 -0.7762 -0.5355
17640THY    CP121768   6.385   8.840   3.905  1.0423  0.9193  0.5239
17640THY    HP121769   6.421   8.902   3.822  0.6872 -0.3630 -0.9322
17640THY    CP221770   6.456   8.887   4.033 -0.1328 -0.7406 -0.6752
17640THY    HP221771   6.455   8.997   4.043 -2.0225  0.2132 -0.7488
17640THY    HP321772   6.564   8.867   4.031  0.0548  0.1666  0.1208
17640THY    HP421773   6.418   8.844   4.126 -1.2186 -1.0246 -0.3478
17640THY    CP321774   6.236   8.864   3.910  0.2918  0.3841 -0.0547
17640THY    HP521775   6.184   8.852   3.814 -1.7422  1.3184  0.7114
17640THY    HP621776   6.217   8.960   3.961 -1.9693 -0.4608  0.0232
17640THY    HP721777   6.187   8.788   3.971  0.5818  1.0161  0.2624
17640THY    CA321778   6.461   8.599   3.970 -0.7298 -0.7348 -1.3390
17640THY    HA321779   6.466   8.631   4.073 -1.3878 -0.7691 -1.1086
17640THY    CA421780   6.495   8.472   3.928 -0.5447 -0.5257 -0.9825
17640THY    HA421781   6.524   8.397   4.001  0.5002  0.4413  0.3087
17640THY    CA521782   6.509   8.434   3.798 -0.7605  0.0771 -0.0073
17640THY    CM121783   6.547   8.291   3.766  0.3190 -0.5560  0.6220
17640THY    HM121784   6.610   8.249   3.845 -1.2613  3.1519  4.4677
17640THY    HM221785   6.607   8.299   3.674  1.9768  0.5367  1.3393
17640THY    HM321786   6.460   8.227   3.744  1.9844 -0.4653 -1.8120
17640THY    CA621787   6.473   8.526   3.699 -0.5912  0.2406  0.0931
17640THY    HA621788   6.464   8.487   3.599 -1.1929  1.2271 -2.5165
17641THY      O21789   2.252   7.093   4.461  0.2856 -0.2253  0.3635
17641THY     HO21790   2.279   7.186   4.448  2.6763 -0.1904 -0.2536
17641THY    CA121791   2.159   7.078   4.555 -0.0951  0.0286 -0.6852
17641THY    CA221792   2.089   6.952   4.570  0.1102 -0.1082  0.5811
17641THY    CP121793   2.122   6.843   4.476  0.0734 -0.1985 -0.4185
17641THY    HP121794   2.227   6.852   4.447 -0.1136 -0.2737  2.2104
17641THY    CP221795   2.036   6.835   4.343 -0.2487 -0.1137  0.4387
17641THY    HP221796   2.037   6.733   4.303 -0.0089  1.4652 -0.2004
17641THY    HP321797   2.063   6.919   4.277  0.7815  2.4621  2.2380
17641THY    HP421798   1.939   6.861   4.387 -0.3280  0.0973 -0.1966
17641THY    CP321799   2.101   6.703   4.539  0.1352  0.6395  0.0086
17641THY    HP521800   2.137   6.624   4.471  0.4537  2.1439 -1.2047
17641THY    HP621801   1.995   6.682   4.554  0.6233  3.0850 -1.0830
17641THY    HP721802   2.151   6.692   4.636  0.7932  0.2385 -0.7086
17641THY    CA321803   1.993   6.936   4.679  0.2957 -0.2308  0.0496
17641THY    HA321804   1.954   6.836   4.691  0.2560 -0.3096  0.0552
17641THY    CA421805   1.948   7.053   4.747 -0.5223 -0.6795  0.9144
17641THY    HA421806   1.867   7.046   4.819 -0.5879 -0.3686  3.6955
17641THY    CA521807   2.024   7.176   4.742  0.3224 -0.2446  0.2379
17641THY    CM121808   1.991   7.298   4.817  0.2583  0.0146 -0.3881
17641THY    HM121809   2.038   7.379   4.760  2.1849  1.1334 -0.6694
17641THY    HM221810   2.029   7.286   4.919 -3.7725  1.7958  0.3467
17641THY    HM321811   1.882   7.312   4.828 -0.2323 -1.0341 -2.8526
17641THY    CA621812   2.126   7.184   4.640  0.1394  0.3209  0.2102
17641THY    HA621813   2.179   7.278   4.624 -1.6156  1.1043  1.3924
17642THY      O21814   2.319   7.079   7.247  0.6455  0.3557  0.6511
17642THY     HO21815   2.253   7.118   7.187 -0.8778  1.6527  0.1454
17642THY    CA121816   2.410   7.176   7.280  0.8052 -0.0832 -0.3640
17642THY    CA221817   2.508   7.158   7.372  0.1405 -0.2407  0.6617
17642THY    CP121818   2.523   7.025   7.443 -0.0740 -0.0989 -0.0334
17642THY    HP121819   2.468   6.948   7.387  1.0841 -0.4545 -0.6282
17642THY    CP221820   2.473   7.040   7.583  0.0876  0.3215  0.2521
17642THY    HP221821   2.519   7.129   7.627 -0.9544  0.7281  0.6041
17642THY    HP321822   2.495   6.956   7.650 -0.8532 -0.1032 -0.3509
17642THY    HP421823   2.364   7.058   7.587  0.0600  1.9649 -0.1237
17642THY    CP321824   2.665   6.980   7.443  0.0667  0.4615 -0.0819
17642THY    HP521825   2.681   6.883   7.492  0.0998 -0.3255 -0.4868
17642THY    HP621826   2.722   7.046   7.509  1.6234 -2.7013  2.0091
17642THY    HP721827   2.719   6.985   7.347 -0.7860  0.0334  1.1192
17642THY    CA321828   2.599   7.264   7.406 -0.2307  0.1914 -0.0916
17642THY    HA321829   2.674   7.265   7.484 -1.0877  1.0382  0.5876
17642THY    CA421830   2.579   7.386   7.346 -0.6406  0.6299  0.0826
17642THY    HA421831   2.641   7.473   7.365  0.2230 -0.6784 -0.2271
17642THY    CA521832   2.486   7.395   7.243 -0.1069 -0.8297  0.0548
17642THY    CM121833   2.470   7.521   7.160  0.5981  0.3156 -0.8498
17642THY    HM121834   2.381   7.575   7.193 -0.1402 -0.5812 -1.4886
17642THY    HM221835   2.471   7.498   7.053  1.7343 -1.2570  4.9747
17642THY    HM321836   2.556   7.589   7.170  0.7706  0.1241 -1.0381
17642THY    CA621837   2.389   7.299   7.223  0.3259 -0.2192 -0.1738
17642THY    HA621838   2.308   7.308   7.151 -0.6938  0.5729 -2.3185
17643THY      O21839   6.619   1.222   3.360 -0.6298  0.2841  0.1128
17643THY     HO21840   6.609   1.305   3.408 -0.0100  0.6657 -0.0293
17643THY    CA121841   6.645   1.275   3.236  0.2572 -0.0484 -0.1406
17643THY    CA221842   6.671   1.196   3.120 -0.1105 -0.4034  0.8085
17643THY    CP121843   6.653   1.044   3.126 -0.1484  0.8740 -0.1831
17643THY    HP121844   6.646   1.001   3.227 -2.5603  0.7549 -0.1804
17643THY    CP221845   6.770   0.966   3.067  0.4931  0.0472  0.9170
17643THY    HP221846   6.865   1.019   3.085  2.0070 -0.3677 -1.4991
17643THY    HP321847   6.775   0.955   2.958 -2.4481 -0.0119 -0.6487
17643THY    HP421848   6.784   0.876   3.128 -1.1526 -0.9535 -0.0780
17643THY    CP321849   6.528   0.997   3.051  0.1414  0.6829  0.7969
17643THY    HP521850   6.496   0.897   3.082 -1.4015 -0.5919  0.8677
17643THY    HP621851   6.534   0.998   2.942  2.2864  0.7584  1.4612
17643THY    HP721852   6.452   1.064   3.093  0.2854  1.3802  0.5328
17643THY    CA321853   6.696   1.268   2.996  0.5100 -0.5944  0.2548
17643THY    HA321854   6.712   1.227   2.896  1.0741 -1.4462  2.3799
17643THY    CA421855   6.711   1.409   2.994 -0.6673 -0.2538 -0.1362
17643THY    HA421856   6.730   1.460   2.900 -0.9122 -0.1854  0.0844
17643THY    CA521857   6.697   1.480   3.113 -0.1268 -0.3841 -0.2308
17643THY    CM121858   6.721   1.625   3.112 -0.0610  0.4111 -0.5930
17643THY    HM121859   6.823   1.657   3.136 -0.0105  0.4123 -0.7520
17643THY    HM221860   6.663   1.663   3.196  0.6155  0.6436 -0.0479
17643THY    HM321861   6.685   1.672   3.020 -0.3711  0.6332 -0.3933
17643THY    CA621862   6.665   1.410   3.233 -0.0381  0.1530 -0.9962
17643THY    HA621863   6.670   1.462   3.328  0.2260 -0.8651  0.9209
17644THY      O21864   8.233   5.707   3.328 -0.0778 -0.1160  0.3827
17644THY     HO21865   8.240   5.802   3.350 -1.2117  3.6357 -0.2358
17644THY    CA121866   8.221   5.693   3.192  0.9162 -0.8544 -0.1218
17644THY    CA221867   8.206   5.563   3.139  0.2068  0.4304 -0.6254
17644THY    CP121868   8.197   5.439   3.231  0.3960 -0.4059  0.9378
17644THY    HP121869   8.213   5.469   3.335 -0.6116  0.3695 -1.0795
17644THY    CP221870   8.294   5.327   3.193  0.3826  0.3621  0.4662
17644THY    HP221871   8.387   5.380   3.169  0.7980  0.5833 -0.1482
17644THY    HP321872   8.256   5.272   3.107 -0.0273  0.7274  0.1704
17644THY    HP421873   8.313   5.249   3.268  1.5136 -1.4555 -1.0931
17644THY    CP321874   8.053   5.393   3.228 -0.2460 -0.4448 -0.3172
17644THY    HP521875   7.984   5.471   3.263  0.2412  2.0367 -0.9000
17644THY    HP621876   8.046   5.295   3.278  1.3795 -0.3357 -0.4134
17644THY    HP721877   8.022   5.364   3.127 -2.0319 -0.0262  0.0214
17644THY    CA321878   8.218   5.551   3.003  0.6665 -0.6315  0.2600
17644THY    HA321879   8.200   5.454   2.958  1.7120  0.1578 -0.3275
17644THY    CA421880   8.238   5.663   2.929  0.2912  0.6572  0.6323
17644THY    HA421881   8.240   5.643   2.822  0.0386  0.1808  2.8963
17644THY    CA521882   8.247   5.796   2.981 -0.0856  0.0454  0.4444
17644THY    CM121883   8.266   5.912   2.894  0.0496  0.5505 -0.4021
17644THY    HM121884   8.248   5.902   2.786  2.1396  0.0548  0.6198
17644THY    HM221885   8.366   5.951   2.917  0.7520 -0.9690 -1.1966
17644THY    HM321886   8.196   5.989   2.929 -0.6896  2.7362 -1.9723
17644THY    CA621887   8.237   5.807   3.120 -0.2147  0.4275 -0.1353
17644THY    HA621888   8.259   5.905   3.161 -0.9230 -0.0370  0.2319
17645THY      O21889   3.209   2.433   3.069 -0.0248 -0.1264 -0.3213
17645THY     HO21890   3.211   2.529   3.058 -2.0696  1.2404 -0.0564
17645THY    CA121891   3.100   2.392   2.991 -0.1609  0.4874 -0.1454
17645THY    CA221892   3.078   2.255   2.957 -1.4782  0.0865 -0.6206
17645THY    CP121893   3.184   2.152   3.013 -0.5323 -0.2512  0.8815
17645THY    HP121894   3.281   2.199   3.033 -0.4270 -0.9510  0.9749
17645THY    CP221895   3.206   2.020   2.926 -0.5833  0.0546 -0.4490
17645THY    HP221896   3.107   1.977   2.912 -1.0617  1.9840 -0.0854
17645THY    HP321897   3.272   1.946   2.973 -0.8244  2.3982  0.7308
17645THY    HP421898   3.246   2.052   2.829  1.4267  0.5880 -1.1963
17645THY    CP321899   3.140   2.114   3.147  0.5395  0.5366 -0.1992
17645THY    HP521900   3.153   2.203   3.210 -0.9296  0.5073  0.0487
17645THY    HP621901   3.192   2.023   3.180 -0.6110  0.5958 -0.8545
17645THY    HP721902   3.034   2.087   3.150  0.0467 -1.9379  1.1607
17645THY    CA321903   2.967   2.220   2.878  0.3580 -0.1758 -0.5810
17645THY    HA321904   2.944   2.114   2.864  2.2458 -0.0022 -1.0440
17645THY    CA421905   2.880   2.321   2.829 -0.6803 -0.3567  0.6684
17645THY    HA421906   2.799   2.289   2.764 -0.5164 -0.1057 -0.2822
17645THY    CA521907   2.901   2.459   2.861  0.2324 -0.4487  0.0194
17645THY    CM121908   2.808   2.558   2.792 -0.2859 -0.1959 -0.9327
17645THY    HM121909   2.798   2.652   2.848 -1.2129  0.8066 -1.6106
17645THY    HM221910   2.705   2.520   2.792 -0.3424  2.1762 -0.9297
17645THY    HM321911   2.843   2.591   2.694 -1.2134 -0.5167 -0.8868
17645THY    CA621912   3.010   2.492   2.951 -0.5655  0.3197 -0.0378
17645THY    HA621913   3.015   2.598   2.971 -0.6912  2.3532 -0.3595
17646THY      O21914   3.526   3.133   2.939 -0.2063 -0.0344 -0.1455
17646THY     HO21915   3.508   3.140   2.843  1.9694 -0.5308 -0.5790
17646THY    CA121916   3.660   3.151   2.934 -0.1017 -0.1255  0.5113
17646THY    CA221917   3.750   3.077   3.013 -0.2242  0.1527 -0.5301
17646THY    CP121918   3.700   2.980   3.124 -0.2429 -0.0946 -0.4326
17646THY    HP121919   3.596   2.996   3.153  0.6774  2.1993  2.3606
17646THY    CP221920   3.771   3.009   3.258 -0.9223 -0.1616 -0.4522
17646THY    HP221921   3.759   3.115   3.286  1.1806 -3.0234  0.6953
17646THY    HP321922   3.878   2.989   3.243 -0.9501 -0.7409 -0.1912
17646THY    HP421923   3.732   2.940   3.333  0.6007  0.5085 -0.6402
17646THY    CP321924   3.720   2.829   3.091 -0.4777 -0.9564  0.1904
17646THY    HP521925   3.673   2.808   2.994  1.0454 -1.3634 -1.6093
17646THY    HP621926   3.675   2.768   3.170  0.8343 -0.1449  0.2292
17646THY    HP721927   3.825   2.801   3.077  0.3218  2.2393  1.2659
17646THY    CA321928   3.892   3.088   2.989  0.1907 -0.7308 -0.1262
17646THY    HA321929   3.955   3.045   3.066  0.2764 -1.3853 -1.1966
17646THY    CA421930   3.936   3.162   2.881  0.0395  0.0559  0.0057
17646THY    HA421931   4.043   3.172   2.872 -0.0577 -0.6086  0.4917
17646THY    CA521932   3.841   3.225   2.796  0.0525 -0.0286 -0.2063
17646THY    CM121933   3.893   3.301   2.681  0.0927 -0.1389 -0.1007
17646THY    HM121934   3.876   3.252   2.585  1.2803 -0.7269  0.6004
17646THY    HM221935   3.996   3.334   2.696 -0.7917  2.3833  1.8376
17646THY    HM321936   3.831   3.392   2.677  1.2448 -1.7687  0.6740
17646THY    CA621937   3.703   3.214   2.817 -0.7461 -0.1929 -0.9115
17646THY    HA621938   3.629   3.263   2.754 -0.0059 -1.4863 -1.4100
17647THY      O21939   9.068   4.610   6.953  0.1228 -0.0365 -0.2456
17647THY     HO21940   9.087   4.568   7.039  0.4301  0.0265  0.0160
17647THY    CA121941   8.939   4.633   6.931 -0.6379  0.0223 -0.0366
17647THY    CA221942   8.890   4.734   6.846  0.0928 -0.2451  0.2593
17647THY    CP121943   8.988   4.822   6.765  0.6857  0.0439  0.0606
17647THY    HP121944   9.060   4.755   6.715  0.3679 -1.1750  0.5926
17647THY    CP221945   9.065   4.924   6.853 -0.0101  0.2456  0.0212
17647THY    HP221946   9.148   4.968   6.797 -2.2094 -0.8062  3.1593
17647THY    HP321947   9.094   4.858   6.936 -0.4005  1.2922  1.1267
17647THY    HP421948   8.997   5.000   6.892 -0.7293  1.2716 -1.1088
17647THY    CP321949   8.921   4.886   6.644 -0.3382  0.8801 -0.6540
17647THY    HP521950   8.862   4.976   6.664  1.3029  0.7022  0.5050
17647THY    HP621951   8.853   4.818   6.591  0.2110 -1.9802  0.8819
17647THY    HP721952   8.992   4.928   6.572 -0.4086  1.9260  1.3548
17647THY    CA321953   8.752   4.748   6.838  0.4893 -0.0071 -0.5224
17647THY    HA321954   8.713   4.824   6.771  3.0200 -0.2072  0.6945
17647THY    CA421955   8.665   4.663   6.908 -0.2330 -0.6847 -0.5630
17647THY    HA421956   8.557   4.673   6.906 -0.3101 -1.3891 -1.3931
17647THY    CA521957   8.725   4.564   6.993  0.5680  0.3563  0.1604
17647THY    CM121958   8.633   4.479   7.077 -0.1688 -0.2809 -0.7593
17647THY    HM121959   8.680   4.396   7.131  0.4494  1.3107  0.5816
17647THY    HM221960   8.548   4.438   7.022  0.7085  0.3158 -3.5795
17647THY    HM321961   8.585   4.540   7.154  0.4446  0.5743 -1.3412
17647THY    CA621962   8.858   4.552   6.997 -0.5017 -0.3422  0.8583
17647THY    HA621963   8.898   4.476   7.064 -2.8492  1.9760  1.5213
17648THY      O21964   2.481   4.687   3.710  0.2776  0.2031 -0.2130
17648THY     HO21965   2.425   4.645   3.642  0.4182 -1.1611  1.6546
17648THY    CA121966   2.482   4.820   3.685 -0.0653 -1.3332  0.4678
17648THY    CA221967   2.519   4.912   3.789 -0.0859  0.2488 -0.2578
17648THY    CP121968   2.577   4.863   3.922  0.4203  0.2610  0.3158
17648THY    HP121969   2.622   4.764   3.906  0.9295  0.1933  0.5516
17648THY    CP221970   2.467   4.853   4.027 -0.5030  0.6101  0.7638
17648THY    HP221971   2.434   4.952   4.061  0.2278 -1.6000  1.8488
17648THY    HP321972   2.499   4.793   4.113 -2.8299  0.2579 -1.1060
17648THY    HP421973   2.383   4.798   3.984 -0.0434 -0.3522  0.7872
17648THY    CP321974   2.696   4.948   3.967 -0.1748 -0.0453 -0.3923
17648THY    HP521975   2.764   4.893   4.034  0.1018  0.9236  1.0782
17648THY    HP621976   2.665   5.047   4.002  0.3549  0.1655 -0.2987
17648THY    HP721977   2.748   4.955   3.870 -0.4003 -0.2389 -1.2336
17648THY    CA321978   2.518   5.043   3.758 -0.0222 -0.1362 -0.6089
17648THY    HA321979   2.547   5.118   3.831  2.3339 -0.6958 -0.8763
17648THY    CA421980   2.459   5.090   3.638  0.1304  0.2976  0.1722
17648THY    HA421981   2.445   5.194   3.610 -0.5153 -2.7657 -0.6316
17648THY    CA521982   2.412   4.995   3.537 -0.6589 -0.8696  0.2540
17648THY    CM121983   2.364   5.031   3.401  0.1307 -0.5704  0.3070
17648THY    HM121984   2.336   5.137   3.401 -1.4615 -1.7429 -0.0800
17648THY    HM221985   2.279   4.971   3.369 -0.1714  0.9634 -0.1310
17648THY    HM321986   2.436   5.029   3.318  0.4401 -0.3182 -2.3446
17648THY    CA621987   2.431   4.862   3.566  0.1143  0.2505  0.3813
17648THY    HA621988   2.387   4.790   3.497 -1.9496  1.5556  0.3026
17649THY      O21989   6.100   1.897   3.050 -0.3973  0.1384 -0.0009
17649THY     HO21990   6.071   1.872   3.140 -2.3968 -0.7528 -1.1734
17649THY    CA121991   6.186   1.803   3.015 -0.2205 -0.8327 -0.1954
17649THY    CA221992   6.221   1.775   2.883 -0.4111  0.3532 -0.2848
17649THY    CP121993   6.157   1.858   2.775  0.2041 -0.6658 -0.2279
17649THY    HP121994   6.114   1.946   2.824 -0.8823 -0.9140 -0.6055
17649THY    CP221995   6.045   1.777   2.715 -0.1197  0.2280  0.3425
17649THY    HP221996   6.070   1.673   2.693 -2.4542  4.5616 -1.3743
17649THY    HP321997   6.004   1.827   2.626 -1.0855  0.8738  0.7152
17649THY    HP421998   5.970   1.772   2.794 -1.5366 -1.0498  0.6154
17649THY    CP321999   6.248   1.911   2.664  0.8073 -0.4543  0.2996
17649THY    HP522000   6.185   1.969   2.596 -0.1164  1.7286  2.0056
17649THY    HP622001   6.273   1.818   2.612 -0.3729 -1.1300  0.3487
17649THY    HP722002   6.334   1.963   2.707 -0.2832  1.9742  0.2242
17649THY    CA322003   6.318   1.678   2.850  0.1736  0.5028  0.0512
17649THY    HA322004   6.344   1.662   2.746 -0.2836  0.0645  1.8914
17649THY    CA422005   6.372   1.607   2.955 -0.2565  0.4001 -0.0426
17649THY    HA422006   6.436   1.524   2.929 -1.8980 -2.4834 -0.5456
17649THY    CA522007   6.328   1.624   3.085 -0.1240 -0.4894 -0.5146
17649THY    CM122008   6.365   1.542   3.205 -0.4558  0.1035 -0.0555
17649THY    HM122009   6.280   1.488   3.250  0.5989  0.4236 -1.4838
17649THY    HM222010   6.432   1.600   3.270  0.5508 -0.3633 -0.6760
17649THY    HM322011   6.423   1.456   3.171 -0.0175 -0.1417  0.3319
17649THY    CA622012   6.241   1.729   3.117 -0.1019  0.7585 -0.5891
17649THY    HA622013   6.209   1.746   3.219 -0.0596  0.6378  0.2349
17650THY      O22014   8.177   0.636   2.229 -0.1641 -0.0440 -0.0583
17650THY     HO22015   8.246   0.589   2.280 -0.4214 -0.5965 -1.0610
17650THY    CA122016   8.100   0.546   2.167 -0.1099  0.2419 -1.1399
17650THY    CA222017   8.005   0.584   2.071 -0.4416  0.1103 -0.0840
17650THY    CP122018   7.980   0.731   2.030 -0.0202 -0.1862  0.4338
17650THY    HP122019   8.077   0.782   2.025  0.0153 -1.7204  0.2720
17650THY    CP222020   7.881   0.803   2.116  0.3535 -0.0521 -0.8253
17650THY    HP222021   7.798   0.734   2.135 -0.9133  0.3211  0.7372
17650THY    HP322022   7.840   0.892   2.067  0.2980  1.2503 -0.1111
17650THY    HP422023   7.930   0.837   2.208 -1.6808  0.8819 -0.3100
17650THY    CP322024   7.924   0.738   1.893 -0.3638  0.1993  0.3778
17650THY    HP522025   7.982   0.673   1.827 -0.1691  0.6754  0.0603
17650THY    HP622026   7.943   0.838   1.852  2.3326 -0.9599 -0.5262
17650THY    HP722027   7.815   0.730   1.891 -0.6077  0.8982  2.6675
17650THY    CA322028   7.935   0.472   2.014 -0.0310  0.0145 -0.3717
17650THY    HA322029   7.858   0.481   1.938  1.4348 -1.4719  0.1452
17650THY    CA422030   7.970   0.337   2.042 -0.0753 -0.2601 -0.0185
17650THY    HA422031   7.916   0.251   2.002  0.9217  2.0149 -1.8054
17650THY    CA522032   8.067   0.312   2.137 -0.4854  0.5452  0.0192
17650THY    CM122033   8.084   0.164   2.179 -0.2502  0.3856 -1.0855
17650THY    HM122034   7.991   0.124   2.220 -0.0637  0.7849 -1.1218
17650THY    HM222035   8.165   0.141   2.250  1.1390 -0.6164  0.4478
17650THY    HM322036   8.114   0.118   2.084  0.9712  0.3419 -0.2599
17650THY    CA622037   8.139   0.413   2.191  0.4326 -0.8346 -0.0452
17650THY    HA622038   8.212   0.392   2.269 -0.8269  1.1113  2.2146
17651THY      O22039   1.031   5.449   3.168 -0.2899 -0.1732  0.2234
17651THY     HO22040   1.020   5.443   3.264  2.5468  0.3037  1.0809
17651THY    CA122041   1.105   5.341   3.121 -0.0899  0.1190 -0.6611
17651THY    CA222042   1.168   5.337   2.989  0.3334  0.2713  0.3863
17651THY    CP122043   1.183   5.454   2.903  0.7316 -0.5284 -0.0656
17651THY    HP122044   1.160   5.535   2.974 -0.4811  0.3513 -1.1535
17651THY    CP222045   1.079   5.459   2.791 -0.1705 -1.3671  0.4755
17651THY    HP222046   1.073   5.554   2.738 -1.2782 -2.5681 -0.2265
17651THY    HP322047   0.981   5.436   2.833 -1.1621 -2.6585  2.1663
17651THY    HP422048   1.106   5.389   2.710 -2.0270 -0.5695 -1.2577
17651THY    CP322049   1.318   5.492   2.838 -0.2671  0.1783  0.4598
17651THY    HP522050   1.395   5.468   2.912  1.1893 -2.1788 -2.9580
17651THY    HP622051   1.322   5.601   2.823  0.5946  0.2091  0.4431
17651THY    HP722052   1.344   5.429   2.753  0.6884  0.8135 -0.0326
17651THY    CA322053   1.244   5.216   2.959  0.3317  0.3883  0.3943
17651THY    HA322054   1.302   5.204   2.868  0.6535  0.7865 -1.3869
17651THY    CA422055   1.242   5.113   3.059  0.2049  0.1601 -0.3982
17651THY    HA422056   1.304   5.025   3.042  1.5197 -1.8772  0.8352
17651THY    CA522057   1.179   5.125   3.178  0.5192 -0.4032  0.2252
17651THY    CM122058   1.173   5.015   3.276  0.2542  0.0143 -0.3144
17651THY    HM122059   1.272   4.989   3.316 -0.2943  1.3714 -0.3876
17651THY    HM222060   1.118   4.928   3.240  1.5743 -2.3958 -0.2438
17651THY    HM322061   1.120   5.047   3.366  0.4936 -0.1593  0.6098
17651THY    CA622062   1.105   5.241   3.211  0.6518  0.5727  0.7407
17651THY    HA622063   1.042   5.243   3.299 -1.3591 -0.7716  0.0049
17652THY      O22064   5.964   7.708   3.624 -0.6793 -0.2654  0.1858
17652THY     HO22065   6.015   7.648   3.680 -1.3229  1.5324  1.2161
17652THY    CA122066   5.837   7.697   3.661  0.4855  1.1544  0.1108
17652THY    CA222067   5.732   7.783   3.622 -0.1345 -0.4089  0.2526
17652THY    CP122068   5.783   7.908   3.558 -0.3093  1.1896 -0.1767
17652THY    HP122069   5.869   7.885   3.493 -0.3184  0.9556  0.4203
17652THY    CP222070   5.820   8.018   3.664 -0.3747  0.1106  0.4235
17652THY    HP222071   5.859   8.109   3.618 -0.5408  2.8584  1.9621
17652THY    HP322072   5.907   7.977   3.717 -1.0654  0.7172 -0.2955
17652THY    HP422073   5.739   8.044   3.734 -0.2268  0.4909 -0.1226
17652THY    CP322074   5.677   7.978   3.466  0.1330 -0.5450  0.7210
17652THY    HP522075   5.694   8.084   3.441  0.0082  1.1407  1.1602
17652THY    HP622076   5.577   7.977   3.510  0.0816 -0.5447 -2.1784
17652THY    HP722077   5.678   7.930   3.367 -1.1384 -0.4610  0.4996
17652THY    CA322078   5.596   7.762   3.661 -0.1071 -0.0926  0.0128
17652THY    HA322079   5.514   7.829   3.638 -1.7343  0.8732 -1.5567
17652THY    CA422080   5.579   7.650   3.742 -0.1119  0.4723 -0.2239
17652THY    HA422081   5.481   7.629   3.783  0.4032  1.8944  0.0760
17652THY    CA522082   5.683   7.562   3.782  0.0632 -0.5463 -0.3091
17652THY    CM122083   5.649   7.447   3.875  0.1958  0.9694  0.4558
17652THY    HM122084   5.710   7.459   3.966  1.6685 -0.0695  1.2171
17652THY    HM222085   5.680   7.353   3.829  0.8010  1.3811  0.4446
17652THY    HM322086   5.542   7.433   3.892 -0.0077 -0.7566 -0.3806
17652THY    CA622087   5.815   7.582   3.736  1.0115 -0.2301  0.2533
17652THY    HA622088   5.899   7.517   3.760 -0.3497  1.1971 -1.0793
17653THY      O22089   6.147   0.319   4.667  0.2295 -0.1860  0.2578
17653THY     HO22090   6.204   0.284   4.737 -0.6582  0.5020  0.1431
17653THY    CA122091   6.016   0.288   4.686 -0.0071  0.5509  0.2256
17653THY    CA222092   5.922   0.308   4.584 -0.2876 -0.3353 -0.9654
17653THY    CP122093   5.978   0.343   4.440  0.0619 -0.5003  0.0407
17653THY    HP122094   6.081   0.379   4.435  0.3016 -1.9675 -0.7748
17653THY    CP222095   5.892   0.443   4.364 -0.4023 -0.1469  0.5317
17653THY    HP222096   5.833   0.507   4.431 -0.5416 -0.9042  1.2112
17653THY    HP322097   5.813   0.399   4.303 -0.3479 -0.8609  1.3870
17653THY    HP422098   5.959   0.495   4.294  1.3902  1.4611  0.5262
17653THY    CP322099   5.974   0.212   4.359  0.1177 -0.2555 -0.2830
17653THY    HP522100   6.050   0.145   4.402  1.9005 -2.6371  0.0610
17653THY    HP622101   5.997   0.224   4.252 -2.9735 -0.8175  1.7664
17653THY    HP722102   5.876   0.166   4.376 -0.2852 -2.4241 -0.3504
17653THY    CA322103   5.790   0.295   4.621  0.3885 -0.5636  0.3285
17653THY    HA322104   5.716   0.310   4.543 -0.3318 -0.4052 -2.0215
17653THY    CA422105   5.751   0.244   4.743 -0.2486  0.0640  0.5400
17653THY    HA422106   5.647   0.220   4.762  0.0350 -0.2543 -1.0404
17653THY    CA522107   5.844   0.215   4.840  0.8732 -0.2423  0.0575
17653THY    CM122108   5.803   0.175   4.975  0.0832 -0.6547  0.4110
17653THY    HM122109   5.729   0.244   5.018 -0.5696 -2.9647  1.2166
17653THY    HM222110   5.889   0.177   5.044  0.6085 -1.2006 -1.4407
17653THY    HM322111   5.760   0.075   4.972 -1.9352  0.5130  1.1759
17653THY    CA622112   5.979   0.237   4.810  0.0652 -0.5030 -0.1921
17653THY    HA622113   6.057   0.215   4.882 -0.1402 -0.6190 -1.3775
17654THY      O22114   6.328   0.495   6.820  0.3212  0.2178  0.2320
17654THY     HO22115   6.365   0.442   6.893  1.6528  0.8084  1.8908
17654THY    CA122116   6.345   0.420   6.703  0.0674  0.3575 -0.1861
17654THY    CA222117   6.270   0.449   6.587  0.0639 -0.3287  0.7409
17654THY    CP122118   6.190   0.571   6.577  0.0083 -0.2605  0.2632
17654THY    HP122119   6.214   0.633   6.664  1.9870  1.2045 -2.3272
17654THY    CP222120   6.037   0.552   6.586 -0.5491  0.2822  0.6527
17654THY    HP222121   5.992   0.502   6.499 -0.2823 -0.7932  2.2232
17654THY    HP322122   5.989   0.648   6.606  1.6106 -1.8565  2.3009
17654THY    HP422123   6.016   0.492   6.675 -0.0117 -0.5207 -0.8130
17654THY    CP322124   6.233   0.655   6.454  0.5916 -0.1745  1.0871
17654THY    HP522125   6.199   0.605   6.363 -0.7464  0.6928  0.3606
17654THY    HP622126   6.342   0.667   6.458  0.3717  0.4059  3.3678
17654THY    HP722127   6.188   0.755   6.449 -0.1342 -1.1601  0.7311
17654THY    CA322128   6.283   0.367   6.478  0.8412 -0.4760  0.3093
17654THY    HA322129   6.224   0.391   6.390 -0.2376  0.2957  0.5937
17654THY    CA422130   6.367   0.255   6.482  0.0552  0.0934 -0.3224
17654THY    HA422131   6.384   0.191   6.395  2.6516  0.6125 -0.4772
17654THY    CA522132   6.449   0.234   6.592  0.4613  0.0751  0.5716
17654THY    CM122133   6.555   0.118   6.596 -0.7883  1.1349  0.3492
17654THY    HM122134   6.526   0.030   6.654 -2.0786  1.9864  1.3059
17654THY    HM222135   6.645   0.145   6.653  1.9964 -0.6782 -3.9740
17654THY    HM322136   6.598   0.095   6.498 -2.5946 -0.0965  1.8991
17654THY    CA622137   6.437   0.320   6.704  0.1208  0.0715 -0.4672
17654THY    HA622138   6.508   0.311   6.786  2.5812 -1.6585  1.5009
17655THY      O22139   6.518   7.067   3.780 -0.1839 -0.9968  0.3380
17655THY     HO22140   6.471   7.068   3.695 -1.0496 -0.5748 -0.9407
17655THY    CA122141   6.607   7.162   3.775 -0.1545 -0.1702 -0.3326
17655THY    CA222142   6.729   7.149   3.838 -0.0457 -0.3618  0.6221
17655THY    CP122143   6.764   7.024   3.922  0.1024  0.3924  0.2824
17655THY    HP122144   6.682   6.953   3.904  0.8876 -1.8007 -0.1386
17655THY    CP222145   6.787   7.063   4.071  0.2774 -0.3360  0.4821
17655THY    HP222146   6.695   7.108   4.111 -0.5226  0.1786 -1.5309
17655THY    HP322147   6.878   7.124   4.072  1.6500  1.4419 -1.4353
17655THY    HP422148   6.801   6.972   4.130 -1.1490  0.5496  0.7969
17655THY    CP322149   6.886   6.954   3.865 -0.3706 -0.0932  0.3146
17655THY    HP522150   6.907   6.868   3.929  0.8131  0.1358  0.7566
17655THY    HP622151   6.980   7.010   3.872 -0.4920 -1.4453  0.7404
17655THY    HP722152   6.876   6.921   3.761 -2.5558  0.3815 -0.7431
17655THY    CA322153   6.828   7.251   3.824 -0.4365 -0.0617 -0.0854
17655THY    HA322154   6.926   7.245   3.871 -0.4897  0.0552 -0.0458
17655THY    CA422155   6.792   7.361   3.757  0.4502  0.3765  0.9988
17655THY    HA422156   6.863   7.442   3.741  1.4897 -3.8004 -0.4379
17655THY    CA522157   6.677   7.364   3.681  0.2365 -0.4399  0.0285
17655THY    CM122158   6.642   7.487   3.590 -0.6444 -1.2571 -0.2326
17655THY    HM122159   6.533   7.497   3.595 -0.4246  0.1254  2.3445
17655THY    HM222160   6.669   7.465   3.486  1.6745 -0.9432  0.8027
17655THY    HM322161   6.687   7.581   3.624  0.3522  0.6866 -1.3505
17655THY    CA622162   6.587   7.261   3.682 -0.1450  0.1838  0.3264
17655THY    HA622163   6.502   7.256   3.615 -1.3011  1.5526  1.0647
17656THY      O22164   9.049   3.216   4.132  0.5259 -0.0727  0.0589
17656THY     HO22165   9.008   3.279   4.194 -0.8591  0.1401 -0.9911
17656THY    CA122166   9.036   3.095   4.195  0.8537 -0.2545  0.5467
17656THY    CA222167   8.937   3.004   4.164  0.2636  0.6358  0.0068
17656THY    CP122168   8.825   3.042   4.064 -0.5498 -0.3001  0.4605
17656THY    HP122169   8.853   3.134   4.012 -0.0518  1.7589  1.5537
17656THY    CP222170   8.689   3.066   4.142  0.6482  0.4428  0.2798
17656THY    HP222171   8.679   2.980   4.209  1.1071 -0.4372 -0.4855
17656THY    HP322172   8.609   3.079   4.068  0.8067  0.1709 -0.2600
17656THY    HP422173   8.708   3.155   4.203 -1.0415  1.6276 -0.1147
17656THY    CP322174   8.810   2.933   3.956 -0.2318 -0.1173  0.3766
17656THY    HP522175   8.751   2.970   3.872  0.9403 -1.2438 -0.2045
17656THY    HP622176   8.763   2.839   3.987  0.6658  0.2309  0.0253
17656THY    HP722177   8.908   2.916   3.910  0.4381  1.1641  0.6609
17656THY    CA322178   8.923   2.880   4.232 -0.0856  0.0998  0.1129
17656THY    HA322179   8.836   2.817   4.216  0.8492  0.8187 -1.4364
17656THY    CA422180   9.019   2.843   4.325 -0.1145  0.1446  0.0986
17656THY    HA422181   9.008   2.748   4.377 -1.4114  0.9005  0.6333
17656THY    CA522182   9.124   2.933   4.355  0.0553  0.3519  0.4984
17656THY    CM122183   9.215   2.899   4.463 -0.4277 -0.5381 -0.4574
17656THY    HM122184   9.159   2.862   4.549 -1.1310  0.3456  2.4612
17656THY    HM222185   9.267   2.990   4.495 -2.4299  1.6553 -0.0065
17656THY    HM322186   9.287   2.820   4.436  0.1703 -1.7101  0.4417
17656THY    CA622187   9.133   3.059   4.299  0.4694  0.4955  0.6241
17656THY    HA622188   9.226   3.113   4.315  2.0615 -1.2671 -1.4284
17657THY      O22189   0.714   5.030   5.942 -0.1224 -0.1676  0.6071
17657THY     HO22190   0.677   4.980   6.016  1.7627 -0.9415 -2.2278
17657THY    CA122191   0.833   4.972   5.919  0.4398 -0.6426 -0.0736
17657THY    CA222192   0.892   4.962   5.792  0.4880  0.7382 -0.3935
17657THY    CP122193   0.821   5.023   5.670 -0.3361  0.5156 -0.2114
17657THY    HP122194   0.746   5.089   5.716 -0.7933 -0.6021  0.0697
17657THY    CP222195   0.761   4.914   5.570 -0.6503  0.0530  0.6893
17657THY    HP222196   0.705   4.958   5.486  0.5853 -1.2633 -0.1686
17657THY    HP322197   0.706   4.836   5.624  0.6424 -1.0203 -1.0525
17657THY    HP422198   0.833   4.845   5.525 -0.5271 -0.2410  1.0096
17657THY    CP322199   0.918   5.112   5.597  0.2515 -0.1396 -0.2035
17657THY    HP522200   0.865   5.191   5.542 -2.0133  2.0295 -0.0800
17657THY    HP622201   0.987   5.053   5.535  0.4589 -1.0667  0.9845
17657THY    HP722202   0.980   5.172   5.665 -0.0792 -0.1871  0.1975
17657THY    CA322203   1.005   4.893   5.771 -0.4318 -0.4542 -0.0513
17657THY    HA322204   1.037   4.871   5.669 -0.2117 -0.5557  0.7113
17657THY    CA422205   1.074   4.838   5.883  0.1404  0.1561 -0.5342
17657THY    HA422206   1.164   4.782   5.861 -0.3668 -1.3761 -0.8165
17657THY    CA522207   1.024   4.858   6.009  0.0066 -0.2703 -0.6216
17657THY    CM122208   1.101   4.807   6.132  0.4777  0.5178 -0.1990
17657THY    HM122209   1.045   4.787   6.225 -0.5663 -0.0026  0.2471
17657THY    HM222210   1.172   4.883   6.167  3.0197 -1.8472 -1.3254
17657THY    HM322211   1.152   4.713   6.107  0.6312  1.7534 -0.4694
17657THY    CA622212   0.904   4.931   6.030 -0.0356  0.4779 -0.5952
17657THY    HA622213   0.875   4.943   6.134  0.3604  0.5617 -0.3451
17658THY      O22214   7.729   0.805   5.480  0.2403  0.0302 -0.5081
17658THY     HO22215   7.738   0.737   5.410  0.9425  0.3261 -0.7281
17658THY    CA122216   7.642   0.904   5.458 -0.0089 -0.2929 -0.2795
17658THY    CA222217   7.641   1.040   5.504 -0.6808  0.4018 -0.1422
17658THY    CP122218   7.733   1.085   5.613 -0.4995  0.4107  0.3978
17658THY    HP122219   7.830   1.033   5.610 -1.2576  0.0715 -1.0459
17658THY    CP222220   7.666   1.063   5.755  0.2265 -0.2747 -0.5754
17658THY    HP222221   7.652   0.955   5.767  0.1557 -0.4160 -0.5816
17658THY    HP322222   7.574   1.117   5.780  0.8590 -0.8892  0.8433
17658THY    HP422223   7.740   1.090   5.831  1.5770 -1.8103  0.1837
17658THY    CP322224   7.776   1.231   5.603  0.1519  0.4830  0.3160
17658THY    HP522225   7.689   1.293   5.628  2.4111  4.5313  2.2710
17658THY    HP622226   7.816   1.252   5.503 -0.2115  0.4033  0.6493
17658THY    HP722227   7.856   1.257   5.674  2.5451 -2.7403  2.5741
17658THY    CA322228   7.532   1.125   5.478  0.1077  0.4766 -0.8770
17658THY    HA322229   7.517   1.225   5.518 -0.8895 -2.0614  0.0645
17658THY    CA422230   7.437   1.076   5.391  0.3919 -0.5708 -0.4225
17658THY    HA422231   7.344   1.128   5.368  0.6150  1.1768  0.8495
17658THY    CA522232   7.436   0.947   5.339  0.2085  0.3653 -0.3863
17658THY    CM122233   7.323   0.889   5.261  0.2607 -0.1916 -0.1983
17658THY    HM122234   7.234   0.954   5.258  0.2447 -0.0595 -0.2147
17658THY    HM222235   7.292   0.793   5.304  0.0539  0.8920  0.3395
17658THY    HM322236   7.356   0.865   5.159 -3.3114 -1.6613  0.3605
17658THY    CA622237   7.536   0.862   5.377 -0.1393 -0.0192  0.3044
17658THY    HA622238   7.531   0.759   5.343  1.9377 -0.9839  0.4750
17659THY      O22239   8.868   8.987   5.119 -0.0187  0.6579  0.6002
17659THY     HO22240   8.923   9.012   5.043  2.2619  1.3062 -1.9391
17659THY    CA122241   8.944   9.001   5.235  0.1404 -0.0558  0.2877
17659THY    CA222242   8.911   8.933   5.356 -0.0409  0.4961  0.8159
17659THY    CP122243   8.778   8.844   5.352  0.3722  0.4036 -0.1335
17659THY    HP122244   8.709   8.872   5.272  0.6103  0.5462  0.9104
17659THY    CP222245   8.705   8.864   5.488  1.0129 -0.3465  0.8565
17659THY    HP222246   8.620   8.794   5.484  0.8778 -0.1641  1.0068
17659THY    HP322247   8.672   8.966   5.514  0.2380  2.8855 -0.0975
17659THY    HP422248   8.773   8.821   5.561 -0.0773  0.5100  0.5277
17659THY    CP322249   8.815   8.699   5.337 -0.0850 -0.3342  0.2636
17659THY    HP522250   8.868   8.660   5.425  0.4571 -0.6481  0.2844
17659THY    HP622251   8.884   8.691   5.252  0.2426  0.0182 -0.7753
17659THY    HP722252   8.732   8.639   5.296 -1.0393 -0.1114  1.3796
17659THY    CA322253   8.994   8.959   5.470  0.5839 -0.4643  0.3844
17659THY    HA322254   8.963   8.919   5.566  1.0520 -1.3075 -2.1538
17659THY    CA422255   9.098   9.051   5.458  0.1593 -0.3019 -0.8885
17659THY    HA422256   9.154   9.076   5.548 -1.9138  1.3007 -1.6268
17659THY    CA522257   9.126   9.117   5.339  0.3862 -0.7562 -0.0940
17659THY    CM122258   9.230   9.224   5.338 -0.0365 -0.9959 -0.2910
17659THY    HM122259   9.317   9.191   5.280  0.2145  0.2168 -1.8841
17659THY    HM222260   9.265   9.237   5.441  0.2133 -1.2841  1.5877
17659THY    HM322261   9.179   9.311   5.296 -0.0320  1.8678  1.2006
17659THY    CA622262   9.045   9.099   5.228 -0.1180  0.4171 -0.9840
17659THY    HA622263   9.074   9.161   5.143  1.7197  0.9224 -1.0795
17660THY      O22264   2.050   6.642   6.151  0.2537  0.8105 -0.2591
17660THY     HO22265   2.028   6.570   6.089  1.9364  0.3512 -0.4306
17660THY    CA122266   2.089   6.752   6.075  0.4370 -0.0790 -0.4427
17660THY    CA222267   2.082   6.884   6.128 -0.2670 -0.0067  0.2360
17660THY    CP122268   2.036   6.902   6.273 -0.4015 -0.3567 -0.2997
17660THY    HP122269   2.039   6.815   6.340 -4.0354  0.4564  0.0097
17660THY    CP222270   1.884   6.932   6.271 -0.3083 -0.0582 -0.0773
17660THY    HP222271   1.833   6.938   6.368 -0.0698  0.0774 -0.2601
17660THY    HP322272   1.825   6.868   6.205  0.0831  1.2329 -1.8207
17660THY    HP422273   1.868   7.037   6.241  0.2805 -0.8026 -0.1910
17660THY    CP322274   2.122   7.016   6.340  0.2858 -0.5001  0.0922
17660THY    HP522275   2.095   7.115   6.302 -2.2653 -0.0615 -0.3593
17660THY    HP622276   2.229   6.995   6.341 -0.2851  3.1230 -3.9219
17660THY    HP722277   2.095   7.024   6.446 -0.0736 -0.5782 -0.0875
17660THY    CA322278   2.104   6.990   6.037 -0.3069  0.1736 -0.6413
17660THY    HA322279   2.093   7.092   6.073 -0.6673  2.7520 -1.5132
17660THY    CA422280   2.142   6.969   5.905 -0.3814 -0.0653  0.6448
17660THY    HA422281   2.160   7.053   5.839  0.2080 -0.2100  0.4127
17660THY    CA522282   2.154   6.836   5.857 -0.2377 -0.0769  0.2340
17660THY    CM122283   2.197   6.815   5.718 -0.5266  0.2277  0.1417
17660THY    HM122284   2.195   6.709   5.692 -1.8954  3.1025 -0.6105
17660THY    HM222285   2.297   6.860   5.711 -1.5283  1.3124  2.7217
17660THY    HM322286   2.129   6.864   5.648  0.9839 -0.8807  0.7673
17660THY    CA622287   2.116   6.735   5.941 -0.5674  0.5376 -0.7924
17660THY    HA622288   2.121   6.634   5.901  0.7990  1.0588 -0.9433
17661THY      O22289   5.933   7.040   4.870  0.5703 -0.5394  0.8944
17661THY     HO22290   6.007   7.057   4.930  2.2881 -1.9553 -1.1698
17661THY    CA122291   5.939   6.909   4.842  0.1246 -0.4397 -1.0678
17661THY    CA222292   5.843   6.845   4.762 -0.1172 -0.0755  0.2086
17661THY    CP122293   5.735   6.928   4.696 -0.0618 -0.8883 -0.3974
17661THY    HP122294   5.726   7.019   4.757 -0.7561 -2.1271  0.3884
17661THY    CP222295   5.595   6.876   4.696  0.7214 -0.2857  0.0723
17661THY    HP222296   5.579   6.780   4.645  2.8419 -1.0748  0.0667
17661THY    HP322297   5.524   6.948   4.655 -1.5521  0.3576 -1.7043
17661THY    HP422298   5.570   6.870   4.802 -0.2396 -0.4827  0.4100
17661THY    CP322299   5.781   6.974   4.558  0.5325 -0.0732 -0.0263
17661THY    HP522300   5.783   6.887   4.491 -2.6848 -1.1016  0.5385
17661THY    HP622301   5.883   7.008   4.540  1.0825 -0.1920 -1.6601
17661THY    HP722302   5.705   7.041   4.517  0.4233  0.2228  0.0291
17661THY    CA322303   5.844   6.701   4.747  0.0842 -0.1599  0.2861
17661THY    HA322304   5.763   6.651   4.694  0.4208 -0.7923  0.3960
17661THY    CA422305   5.939   6.630   4.815 -0.8783 -0.5078  0.6495
17661THY    HA422306   5.945   6.521   4.816 -0.0221  1.5782  0.6674
17661THY    CA522307   6.042   6.695   4.891  0.2605 -0.4930 -0.1591
17661THY    CM122308   6.140   6.613   4.971 -0.1202  0.4974 -0.5204
17661THY    HM122309   6.088   6.523   5.006  0.4760 -1.6390 -1.7692
17661THY    HM222310   6.180   6.670   5.055 -1.7159  0.2656  1.0032
17661THY    HM322311   6.218   6.589   4.898 -0.6994 -0.9696  1.7673
17661THY    CA622312   6.045   6.832   4.895  0.3575 -0.4530  0.8209
17661THY    HA622313   6.130   6.871   4.951  0.3174  0.3750 -0.2387
17662THY      O22314   2.551   8.020   6.554 -0.2660 -0.0031 -0.2149
17662THY     HO22315   2.618   8.085   6.526  0.5598 -0.0473 -1.0656
17662THY    CA122316   2.598   7.946   6.649  0.1961 -0.0345 -0.1082
17662THY    CA222317   2.512   7.878   6.742  0.2655 -0.1098  0.8465
17662THY    CP122318   2.349   7.888   6.751 -0.2251 -0.0938  0.0245
17662THY    HP122319   2.312   7.924   6.654  0.5920  0.3298  2.1770
17662THY    CP222320   2.296   7.992   6.849 -0.2750  0.6945 -0.3373
17662THY    HP222321   2.187   8.000   6.846 -0.3115  3.1686  1.1167
17662THY    HP322322   2.331   8.091   6.819 -1.2058  2.3596  0.5424
17662THY    HP422323   2.331   7.968   6.950 -0.2547  0.9122  0.5987
17662THY    CP322324   2.260   7.761   6.780 -0.2648  0.4549 -0.2368
17662THY    HP522325   2.279   7.689   6.700  0.3211 -2.6368  3.0874
17662THY    HP622326   2.155   7.790   6.774 -0.5349 -2.7846 -1.4622
17662THY    HP722327   2.293   7.724   6.878  0.7573 -0.4010 -1.7335
17662THY    CA322328   2.583   7.810   6.839 -0.2698 -0.1381  0.0758
17662THY    HA322329   2.527   7.753   6.913 -2.3977 -2.0549 -0.4390
17662THY    CA422330   2.718   7.795   6.847 -0.1204  0.9581 -0.2709
17662THY    HA422331   2.760   7.730   6.923  0.2183  0.5084 -0.5856
17662THY    CA522332   2.793   7.863   6.750  0.1488  0.2106 -0.1801
17662THY    CM122333   2.935   7.810   6.730 -0.6449  0.0192 -0.2755
17662THY    HM122334   2.986   7.778   6.822  0.6876 -1.1989 -1.7809
17662THY    HM222335   2.994   7.895   6.692 -2.4161  0.6381  1.3035
17662THY    HM322336   2.946   7.721   6.668 -1.1901  1.1361 -1.1526
17662THY    CA622337   2.734   7.943   6.654 -0.2341 -0.5589 -0.2673
17662THY    HA622338   2.785   7.988   6.569 -1.5811 -0.7848  0.9225
17663THY      O22339   6.588   2.357   3.065  0.4323 -0.6592 -0.4737
17663THY     HO22340   6.647   2.419   3.112 -0.1360  0.2532 -0.5990
17663THY    CA122341   6.657   2.254   3.029 -0.5438  0.4767 -0.3016
17663THY    CA222342   6.594   2.134   2.978  0.4642 -0.1697 -0.0657
17663THY    CP122343   6.446   2.119   2.962  0.1072  0.5235  0.1186
17663THY    HP122344   6.425   2.024   2.912  0.2606 -0.5270  0.6163
17663THY    CP222345   6.401   2.224   2.860  0.7376 -0.1429  0.3642
17663THY    HP222346   6.292   2.215   2.860  0.7155 -0.5929  0.6198
17663THY    HP322347   6.429   2.218   2.755 -2.1842 -0.9856 -0.2421
17663THY    HP422348   6.409   2.326   2.900  2.2704  1.2987 -0.2861
17663THY    CP322349   6.366   2.115   3.095  0.5002  0.8100 -0.5971
17663THY    HP522350   6.371   2.019   3.147 -0.7778 -0.6209 -1.4818
17663THY    HP622351   6.263   2.122   3.060  1.3252 -1.9203 -0.9776
17663THY    HP722352   6.390   2.196   3.166  0.2991 -1.3418  1.4644
17663THY    CA322353   6.684   2.029   2.943 -0.1857 -0.4086 -0.0840
17663THY    HA322354   6.652   1.930   2.910 -0.8591  0.5980 -0.2171
17663THY    CA422355   6.817   2.035   2.968 -0.9483 -0.1122 -0.1188
17663THY    HA422356   6.884   1.952   2.956 -0.3216 -0.4191  0.4245
17663THY    CA522357   6.881   2.149   3.018 -0.0676  0.2609 -0.6198
17663THY    CM122358   7.021   2.146   3.055  0.2714 -0.0587 -0.3329
17663THY    HM122359   7.038   2.058   3.119 -1.0089  1.3680  0.3860
17663THY    HM222360   7.049   2.232   3.118  1.8828  2.0197 -2.2609
17663THY    HM322361   7.074   2.125   2.962 -2.4450 -1.2387 -2.7871
17663THY    CA622362   6.800   2.257   3.039  0.3304 -0.7409  0.1638
17663THY    HA622363   6.842   2.349   3.079  0.5358 -2.2547  0.7680
17664THY      O22364   6.422   3.639   4.126 -0.0230 -0.0347 -0.2339
17664THY     HO22365   6.325   3.641   4.119  0.0494 -1.8779 -0.9818
17664THY    CA122366   6.456   3.517   4.092 -1.0228  0.1290  0.9119
17664THY    CA222367   6.591   3.480   4.071 -0.3120  0.4786 -0.4388
17664THY    CP122368   6.704   3.566   4.109 -0.5421 -0.1445 -0.0673
17664THY    HP122369   6.674   3.665   4.148  0.4006  0.6621 -0.0902
17664THY    CP222370   6.798   3.595   3.988  0.3113  0.2396 -0.1085
17664THY    HP222371   6.738   3.647   3.911 -3.7529 -0.1665 -4.6526
17664THY    HP322372   6.848   3.508   3.944  1.3021  0.0902  0.5180
17664THY    HP422373   6.881   3.650   4.032  2.1052  0.3716 -2.7709
17664THY    CP322374   6.784   3.514   4.227 -0.1496 -0.0543  0.3906
17664THY    HP522375   6.837   3.602   4.264  1.3206 -0.1338 -0.4386
17664THY    HP622376   6.865   3.445   4.202 -0.3444  0.0920  0.1047
17664THY    HP722377   6.721   3.478   4.309 -1.6548 -0.7069  1.4188
17664THY    CA322378   6.622   3.355   4.024 -0.2296 -0.2634  0.2748
17664THY    HA322379   6.725   3.320   4.019  0.0546  1.1079  0.8668
17664THY    CA422380   6.521   3.257   4.009  0.2761 -0.6257  1.0046
17664THY    HA422381   6.539   3.154   3.978 -0.1348  2.4173 -0.1028
17664THY    CA522382   6.388   3.295   4.031  0.0654 -0.0049 -0.1505
17664THY    CM122383   6.276   3.201   4.006 -0.3448 -0.9538 -0.1341
17664THY    HM122384   6.257   3.197   3.898 -0.2952 -0.9167 -2.0454
17664THY    HM222385   6.186   3.230   4.063  1.3282  2.1960 -0.6508
17664THY    HM322386   6.286   3.097   4.040 -0.8656 -2.4635 -0.6940
17664THY    CA622387   6.357   3.426   4.071  0.1971 -0.1516 -0.0466
17664THY    HA622388   6.253   3.457   4.083  0.3712  0.9899  0.1481
17665THY      O22389   5.685   0.900   2.977 -0.1191  0.4337 -0.3028
17665THY     HO22390   5.654   0.829   3.036 -1.2496  0.7528  0.4358
17665THY    CA122391   5.573   0.940   2.914 -0.4146 -0.5164 -0.6623
17665THY    CA222392   5.571   1.019   2.798 -0.5722  0.7898 -0.3163
17665THY    CP122393   5.702   1.079   2.746  0.4987 -0.0042  0.5717
17665THY    HP122394   5.782   1.056   2.816  0.8967  0.2081  2.4183
17665THY    CP222395   5.689   1.237   2.731  0.0370 -0.3284  0.1559
17665THY    HP222396   5.597   1.267   2.681  1.2984 -2.2540  1.0541
17665THY    HP322397   5.781   1.271   2.681  0.4475  1.1265  1.2713
17665THY    HP422398   5.694   1.268   2.836  3.1032  0.5027 -2.5479
17665THY    CP322399   5.731   1.034   2.607 -0.2593  0.0700  0.1819
17665THY    HP522400   5.825   1.079   2.571  0.1751 -0.0433 -0.7924
17665THY    HP622401   5.649   1.073   2.546  0.2465 -0.4511  0.4453
17665THY    HP722402   5.724   0.925   2.603 -1.2834 -0.5445  0.2602
17665THY    CA322403   5.449   1.064   2.736 -0.1271 -0.1202  0.6286
17665THY    HA322404   5.453   1.123   2.645 -0.7185 -0.3128  0.3734
17665THY    CA422405   5.334   1.015   2.797  0.3833 -0.3004 -0.4726
17665THY    HA422406   5.237   1.036   2.752  0.1620 -0.9303 -2.6595
17665THY    CA522407   5.338   0.932   2.916  0.7148 -0.5462 -0.3116
17665THY    CM122408   5.205   0.908   2.989  1.3476  0.4923 -0.3802
17665THY    HM122409   5.190   0.986   3.065  0.6145 -0.5894  0.5603
17665THY    HM222410   5.210   0.808   3.033  0.5099 -0.8133 -1.0058
17665THY    HM322411   5.120   0.905   2.920  0.4892  1.4301  1.1228
17665THY    CA622412   5.454   0.896   2.973  0.3440 -0.6555  0.3393
17665THY    HA622413   5.449   0.838   3.064 -1.1379 -1.4415 -0.8426
17666THY      O22414   5.643   0.690   3.169 -0.1142 -0.5260 -0.1356
17666THY     HO22415   5.611   0.609   3.126  0.6612 -2.4940  0.5505
17666THY    CA122416   5.734   0.653   3.261  0.8238 -0.0339 -0.5276
17666THY    CA222417   5.770   0.729   3.371  0.1435  0.6679 -0.0987
17666THY    CP122418   5.701   0.867   3.387 -0.2793  0.2890 -0.6982
17666THY    HP122419   5.611   0.871   3.325 -0.6134  0.7732 -0.6785
17666THY    CP222420   5.789   0.985   3.339  0.0995 -0.2214 -0.2617
17666THY    HP222421   5.854   0.957   3.256  3.1064  1.2646  1.7965
17666THY    HP322422   5.856   1.022   3.417 -1.1338  0.8305 -0.1576
17666THY    HP422423   5.727   1.070   3.309 -0.2305 -2.2277 -1.1563
17666THY    CP322424   5.656   0.897   3.529 -0.1245 -0.4755  0.3349
17666THY    HP522425   5.595   0.987   3.533 -1.6684 -1.1532 -0.6380
17666THY    HP622426   5.730   0.900   3.610 -1.0088  0.3849 -0.1824
17666THY    HP722427   5.577   0.824   3.551 -1.4601  0.0221  1.8728
17666THY    CA322428   5.878   0.692   3.454  0.2666 -0.0518  0.5390
17666THY    HA322429   5.912   0.746   3.542 -0.8848  1.0268 -0.4452
17666THY    CA422430   5.948   0.575   3.419 -0.1348  0.4444 -0.4816
17666THY    HA422431   6.038   0.549   3.475  1.1511 -0.8400  0.9788
17666THY    CA522432   5.912   0.500   3.312  0.0815  0.4932 -0.1739
17666THY    CM122433   5.990   0.380   3.283 -0.1052 -0.0412 -0.3774
17666THY    HM122434   6.092   0.389   3.322  0.1837 -0.2674 -2.2903
17666THY    HM222435   5.986   0.348   3.178  1.3691 -0.1749 -0.1564
17666THY    HM322436   5.951   0.290   3.331 -0.5166 -1.5953 -1.0631
17666THY    CA622437   5.804   0.541   3.230 -0.3215 -0.3972 -0.1412
17666THY    HA622438   5.772   0.477   3.148  0.4459 -0.7321 -0.1106
17667THY      O22439   6.263   7.205   6.121  0.4227 -0.2862  0.0310
17667THY     HO22440   6.173   7.219   6.087  0.4119  0.8413  3.9018
17667THY    CA122441   6.326   7.134   6.028  1.3993 -0.3819  0.4520
17667THY    CA222442   6.433   7.042   6.045 -0.1521 -0.8463 -0.3150
17667THY    CP122443   6.501   7.030   6.181  0.8080  0.5560 -0.2707
17667THY    HP122444   6.476   7.120   6.239 -1.1836 -3.6158  2.1749
17667THY    CP222445   6.656   7.032   6.163 -0.2493 -0.0779 -0.7468
17667THY    HP222446   6.707   7.048   6.258  0.2795 -0.5427  0.4451
17667THY    HP322447   6.688   7.120   6.106 -0.7328 -0.0621 -0.5576
17667THY    HP422448   6.701   6.943   6.116  2.1331 -2.5094  1.5652
17667THY    CP322449   6.449   6.908   6.258  0.5737  0.3421 -0.3154
17667THY    HP522450   6.341   6.907   6.236  0.7188 -0.7008  1.3607
17667THY    HP622451   6.478   6.917   6.363  0.7018  0.3874 -1.1791
17667THY    HP722452   6.489   6.813   6.221 -2.3754 -0.1351 -1.4901
17667THY    CA322453   6.478   6.968   5.929 -0.8763 -0.2530  0.6080
17667THY    HA322454   6.560   6.898   5.942 -0.1765  0.9708  1.6099
17667THY    CA422455   6.419   6.991   5.807 -0.5081 -0.2736 -0.4273
17667THY    HA422456   6.458   6.953   5.713  1.5080  0.4275 -0.2132
17667THY    CA522457   6.321   7.091   5.794 -0.0782  0.1397 -0.4530
17667THY    CM122458   6.265   7.124   5.653 -0.7911  0.6787  0.2929
17667THY    HM122459   6.208   7.039   5.616  1.4574  0.4587 -1.2213
17667THY    HM222460   6.345   7.149   5.581 -2.1778 -1.6899 -1.7268
17667THY    HM322461   6.195   7.208   5.662 -1.3457  3.6490 -0.3792
17667THY    CA622462   6.271   7.153   5.906 -0.2274  0.0891  0.4354
17667THY    HA622463   6.188   7.223   5.893 -1.1499 -2.9683 -1.0473
17668THY      O22464   7.240   6.826   6.825  0.2680 -0.1224 -0.1202
17668THY     HO22465   7.247   6.740   6.780 -0.0063 -0.4638  0.0342
17668THY    CA122466   7.285   6.829   6.953  0.9570  0.4677 -0.1295
17668THY    CA222467   7.343   6.948   7.012  0.2177  0.2776  1.1869
17668THY    CP122468   7.374   7.062   6.914  0.8524  0.0648  0.6149
17668THY    HP122469   7.422   7.011   6.830  4.3508  1.5225  1.1609
17668THY    CP222470   7.491   7.158   6.958  0.2854  0.1661 -0.7760
17668THY    HP222471   7.563   7.104   7.021 -0.9705  2.1354 -0.2788
17668THY    HP322472   7.444   7.241   7.012  0.8175  0.6630 -0.7933
17668THY    HP422473   7.539   7.201   6.870  2.3276  1.3271 -0.5467
17668THY    CP322474   7.254   7.146   6.872  0.7305  0.3252  0.3601
17668THY    HP522475   7.282   7.230   6.806  1.4599  1.9191  1.4216
17668THY    HP622476   7.193   7.187   6.953  2.7306  2.1105 -0.0341
17668THY    HP722477   7.185   7.071   6.832  1.4622 -1.1425  0.4454
17668THY    CA322478   7.371   6.946   7.148 -0.0742  0.2879 -0.8074
17668THY    HA322479   7.416   7.034   7.194  0.1969  1.5216 -1.5752
17668THY    CA422480   7.338   6.840   7.227  0.4865 -0.0253  0.4297
17668THY    HA422481   7.357   6.846   7.334 -0.7578  0.2558 -0.1870
17668THY    CA522482   7.285   6.722   7.170 -0.2304  0.0686 -0.2515
17668THY    CM122483   7.260   6.605   7.254  0.4679  0.5619 -0.7336
17668THY    HM122484   7.289   6.509   7.210  0.5324  0.0697 -0.4915
17668THY    HM222485   7.157   6.592   7.288 -0.2421 -2.0743 -2.8880
17668THY    HM322486   7.329   6.615   7.339  2.0936 -0.7529 -0.0623
17668THY    CA622487   7.258   6.717   7.031 -0.1832  0.2602 -0.1417
17668THY    HA622488   7.210   6.625   6.997  1.8053 -0.9061 -0.8114
17669THY      O22489   5.143   4.995   2.943 -1.0724  0.0550  0.2105
17669THY     HO22490   5.199   4.933   2.992 -0.6513  0.0270  0.5524
17669THY    CA122491   5.120   4.939   2.819  0.3941  0.6071 -0.1096
17669THY    CA222492   5.026   4.991   2.730  0.9793  0.0210  0.1198
17669THY    CP122493   4.940   5.120   2.755 -0.3348 -0.4245  0.3856
17669THY    HP122494   4.967   5.178   2.845  1.4477 -1.8204  1.8847
17669THY    CP222495   4.791   5.074   2.789 -0.3472  0.4740 -0.4618
17669THY    HP222496   4.736   5.160   2.829  0.0276 -1.4421  0.7289
17669THY    HP322497   4.789   5.000   2.870  0.3756 -0.4133 -1.4963
17669THY    HP422498   4.746   5.034   2.696  2.4604 -1.0089 -0.4049
17669THY    CP322499   4.957   5.212   2.633 -0.0253 -0.0248 -0.1253
17669THY    HP522500   4.879   5.290   2.637  0.7704 -2.3982  0.9050
17669THY    HP622501   4.931   5.158   2.541  0.3884 -0.5805  0.6026
17669THY    HP722502   5.058   5.255   2.632  0.3404  0.4369 -0.9746
17669THY    CA322503   4.995   4.912   2.615  0.0175  0.6301 -0.1069
17669THY    HA322504   4.926   4.946   2.538  0.4692  0.9694  1.6585
17669THY    CA422505   5.055   4.784   2.598 -1.2230 -0.7527  0.3294
17669THY    HA422506   5.023   4.731   2.509 -1.0048 -1.6050  1.5908
17669THY    CA522507   5.156   4.744   2.688  0.1371 -0.4631  0.1160
17669THY    CM122508   5.229   4.617   2.666  0.0723  0.4116 -0.0314
17669THY    HM122509   5.184   4.536   2.725 -1.4321  0.2716  0.6699
17669THY    HM222510   5.333   4.624   2.698  0.5179 -1.3190  2.3054
17669THY    HM322511   5.222   4.591   2.560 -0.8976  0.9707 -2.2839
17669THY    CA622512   5.178   4.818   2.803  0.1384 -0.4692 -0.2158
17669THY    HA622513   5.248   4.784   2.879 -0.8506  0.7725  0.4322
17670THY      O22514   2.680   4.303   5.175 -0.4106  0.5425  0.2433
17670THY     HO22515   2.723   4.342   5.097 -2.0897 -0.0238  1.0554
17670THY    CA122516   2.771   4.303   5.279  0.0173 -0.1015  0.6316
17670THY    CA222517   2.735   4.356   5.406 -0.4483  0.2894  0.6369
17670THY    CP122518   2.592   4.407   5.436  0.1064  1.0766  0.7246
17670THY    HP122519   2.539   4.395   5.341  0.7057  0.4741  2.5261
17670THY    CP222520   2.595   4.562   5.449  0.5752  0.1205 -0.0245
17670THY    HP222521   2.669   4.588   5.525 -0.3438  0.7330  0.8572
17670THY    HP322522   2.504   4.596   5.499  0.3982  0.0271 -0.3552
17670THY    HP422523   2.615   4.601   5.348  2.7237  0.7120  0.5560
17670THY    CP322524   2.526   4.327   5.552  0.8033 -0.6743 -0.7497
17670THY    HP522525   2.547   4.220   5.550  1.3901  4.4589 -1.0027
17670THY    HP622526   2.417   4.336   5.555  0.6786 -1.4021 -1.8149
17670THY    HP722527   2.570   4.356   5.648 -2.6500  1.6183 -2.3720
17670THY    CA322528   2.836   4.362   5.514  0.3890  0.5877  0.4071
17670THY    HA322529   2.807   4.416   5.604 -0.5377 -0.3357  1.5158
17670THY    CA422530   2.967   4.312   5.489  0.4740 -0.3475  0.1638
17670THY    HA422531   3.043   4.342   5.560  0.8664 -1.3331  1.5779
17670THY    CA522532   2.992   4.249   5.366  0.5158 -1.0444  0.2920
17670THY    CM122533   3.127   4.195   5.337 -0.0889 -0.5051  0.5219
17670THY    HM122534   3.146   4.144   5.432  1.0469 -1.7606 -1.5215
17670THY    HM222535   3.198   4.275   5.310  2.1531  1.3713 -0.7112
17670THY    HM322536   3.122   4.123   5.255  1.2909 -1.8039  1.8276
17670THY    CA622537   2.896   4.245   5.262 -0.2610 -0.6341  0.6943
17670THY    HA622538   2.932   4.208   5.167  1.2839 -0.2883  1.2353
17671THY      O22539   5.274   3.644   4.921  0.3577 -0.8336  0.3919
17671THY     HO22540   5.185   3.612   4.896  0.5464 -1.5779  0.4255
17671THY    CA122541   5.261   3.778   4.951 -0.8287  0.2490 -0.2885
17671THY    CA222542   5.371   3.850   5.012  0.7838 -0.9470 -1.1066
17671THY    CP122543   5.495   3.768   5.048 -0.5290  0.1360 -0.2446
17671THY    HP122544   5.477   3.661   5.058 -3.8436  0.3750  0.2421
17671THY    CP222545   5.556   3.810   5.179 -0.5192  0.1873 -0.2034
17671THY    HP222546   5.491   3.821   5.267 -0.5947  0.0802  0.2160
17671THY    HP322547   5.604   3.907   5.164 -0.3977 -1.6005 -0.4997
17671THY    HP422548   5.638   3.742   5.206 -0.2821 -2.0572 -0.9045
17671THY    CP322549   5.607   3.786   4.945  0.1691 -0.4892  0.6309
17671THY    HP522550   5.565   3.784   4.843  0.3373 -0.5523 -0.7248
17671THY    HP622551   5.675   3.702   4.966 -2.1488  1.8438 -0.8009
17671THY    HP722552   5.661   3.881   4.944 -1.2903  0.4978  1.4955
17671THY    CA322553   5.347   3.987   5.044  0.4590  0.2587 -0.3879
17671THY    HA322554   5.416   4.056   5.091 -0.8430 -1.4970  2.2919
17671THY    CA422555   5.229   4.052   5.009  0.8926  0.2136 -0.3286
17671THY    HA422556   5.209   4.156   5.032  0.7362  2.6424 -0.8421
17671THY    CA522557   5.129   3.981   4.951  1.0983  0.3828  0.0220
17671THY    CM122558   4.995   4.042   4.918  0.4379  0.2904  0.1716
17671THY    HM122559   4.958   4.017   4.818 -0.2622 -0.0804  2.4642
17671THY    HM222560   5.005   4.151   4.915 -0.2513  0.5516  0.2453
17671THY    HM322561   4.918   4.014   4.991  0.2250 -0.6755 -1.9801
17671THY    CA622562   5.137   3.845   4.928 -0.4231  0.4819  0.2641
17671THY    HA622563   5.054   3.792   4.883  1.0079 -2.5696  0.3887
17672THY      O22564   5.981   8.044   1.920 -0.5396 -0.4362  0.2784
17672THY     HO22565   5.929   8.125   1.907  1.1455  0.4924  1.5907
17672THY    CA122566   6.004   8.040   2.055 -0.5658  0.0579  0.5208
17672THY    CA222567   6.079   7.937   2.119  0.2065  0.4090  0.1640
17672THY    CP122568   6.130   7.823   2.032 -0.0216  0.0942 -0.2069
17672THY    HP122569   6.079   7.821   1.935  0.5684 -0.2134 -2.2943
17672THY    CP222570   6.077   7.685   2.080 -0.2138 -0.4513 -0.3077
17672THY    HP222571   5.970   7.673   2.100  0.0135  0.7770 -0.4996
17672THY    HP322572   6.127   7.664   2.176 -1.4228 -0.2925 -2.8938
17672THY    HP422573   6.102   7.599   2.016  0.9764  2.1415 -2.0287
17672THY    CP322574   6.283   7.818   1.995  1.0232  0.3654 -0.3113
17672THY    HP522575   6.317   7.743   1.922  1.1391  0.4957 -0.3861
17672THY    HP622576   6.345   7.802   2.084 -1.0150  1.8440 -0.2642
17672THY    HP722577   6.305   7.916   1.949  0.7446 -0.1911 -0.5035
17672THY    CA322578   6.098   7.948   2.256  0.2892 -0.2641  0.5731
17672THY    HA322579   6.147   7.865   2.305  0.2432 -0.2928  0.5287
17672THY    CA422580   6.032   8.042   2.333  0.2727  0.4618  0.1979
17672THY    HA422581   6.039   8.029   2.441 -0.9821  0.2551 -2.8530
17672THY    CA522582   5.956   8.144   2.269 -0.0494  0.4672 -0.8269
17672THY    CM122583   5.876   8.260   2.332 -0.4445  0.2405  0.4836
17672THY    HM122584   5.871   8.342   2.259 -3.0214 -1.3206 -0.9370
17672THY    HM222585   5.928   8.287   2.425  0.2098  0.6523 -1.9044
17672THY    HM322586   5.770   8.243   2.354 -0.8677 -1.2503  1.0700
17672THY    CA622587   5.943   8.134   2.128 -0.3159  0.6691 -0.2148
17672THY    HA622588   5.875   8.200   2.075  2.5708 -5.1382 -1.2200
17673THY      O22589   7.196   0.323   2.650 -0.3729  0.1111  0.1787
17673THY     HO22590   7.238   0.345   2.734 -1.9732  0.7842  0.7876
17673THY    CA122591   7.081   0.404   2.635 -0.0292  0.3189 -0.0030
17673THY    CA222592   6.980   0.389   2.536  0.0190 -0.9426 -0.0920
17673THY    CP122593   7.008   0.291   2.418 -0.5260 -0.7286 -0.1096
17673THY    HP122594   7.044   0.199   2.466  1.4953  1.0025  1.4823
17673THY    CP222595   7.129   0.329   2.334 -0.1278  0.9977 -0.5441
17673THY    HP222596   7.215   0.374   2.386  0.6320  1.0533 -1.9964
17673THY    HP322597   7.103   0.407   2.262 -0.0488  1.2471 -0.2847
17673THY    HP422598   7.174   0.240   2.290 -0.3859  0.8671 -0.6089
17673THY    CP322599   6.884   0.260   2.333 -0.0378  0.7365  0.0762
17673THY    HP522600   6.895   0.168   2.274 -2.3136  0.8200 -0.3003
17673THY    HP622601   6.858   0.346   2.270 -0.9004  0.7658 -0.1544
17673THY    HP722602   6.790   0.248   2.388 -3.5461 -4.1669  1.7877
17673THY    CA322603   6.871   0.483   2.541  0.3917  0.4678  0.2303
17673THY    HA322604   6.793   0.486   2.465 -0.0987  0.8928 -1.1716
17673THY    CA422605   6.865   0.573   2.647 -0.7400 -0.9031 -0.3984
17673THY    HA422606   6.780   0.640   2.658 -0.0918  0.8563  0.1859
17673THY    CA522607   6.967   0.581   2.739  0.7506 -1.3241  0.1001
17673THY    CM122608   6.959   0.677   2.852 -0.0581 -0.8063 -0.2150
17673THY    HM122609   6.880   0.640   2.918  1.3498  1.0491 -0.0711
17673THY    HM222610   6.927   0.776   2.817 -0.8934 -1.4234 -0.6830
17673THY    HM322611   7.049   0.670   2.914 -0.4454 -0.2339 -0.1808
17673THY    CA622612   7.072   0.503   2.732 -0.1877  0.4538  0.4567
17673THY    HA622613   7.150   0.524   2.805 -0.8727  0.9969  1.1519
17674THY      O22614   4.164   5.271   5.022  0.3222 -0.0516  0.3972
17674THY     HO22615   4.182   5.333   4.950  0.2079 -0.1189  0.3525
17674THY    CA122616   4.072   5.177   4.983  0.4034  0.0902 -0.3063
17674THY    CA222617   3.995   5.103   5.073 -0.7855  0.6692 -0.0524
17674THY    CP122618   4.013   5.124   5.220  0.3441 -0.0899 -0.0595
17674THY    HP122619   4.108   5.170   5.250  0.0527  1.4772 -0.4145
17674THY    CP222620   4.013   4.998   5.294 -0.3825 -0.3424  0.1885
17674THY    HP222621   3.918   4.945   5.299  1.3159 -1.4361 -3.2591
17674THY    HP322622   4.049   5.024   5.394  0.5972 -0.9756  1.3873
17674THY    HP422623   4.089   4.936   5.245 -0.1907 -1.3869  1.2053
17674THY    CP322624   3.909   5.218   5.263  0.0726  0.2709  0.0984
17674THY    HP522625   3.902   5.297   5.187  1.6628 -0.2782 -0.2477
17674THY    HP622626   3.939   5.264   5.358  0.2662 -0.8198  2.3698
17674THY    HP722627   3.810   5.172   5.270  0.1874 -0.6197 -0.3113
17674THY    CA322628   3.898   5.009   5.020  0.4821 -0.7219  0.4513
17674THY    HA322629   3.826   4.963   5.087  0.7040 -1.1734 -0.5615
17674THY    CA422630   3.887   4.988   4.880  0.2230  0.2951 -0.2265
17674THY    HA422631   3.810   4.921   4.844  0.7205  0.8881 -1.1447
17674THY    CA522632   3.971   5.058   4.797  0.4118 -0.2928 -0.2240
17674THY    CM122633   3.944   5.051   4.647  0.2461 -0.0460 -0.0425
17674THY    HM122634   3.852   5.109   4.627 -0.5544 -0.6239 -1.4714
17674THY    HM222635   3.929   4.949   4.610 -2.2801 -3.7338  1.4463
17674THY    HM322636   4.025   5.095   4.588 -1.3968 -0.8044  2.1445
17674THY    CA622637   4.051   5.157   4.846 -0.1542  0.6819  0.7774
17674THY    HA622638   4.104   5.221   4.776 -0.4257  1.0529  1.4185
17675THY      O22639   5.308   0.356   2.053  0.1865 -0.2896 -1.2288
17675THY     HO22640   5.261   0.415   1.993 -0.5588  1.1544 -0.3036
17675THY    CA122641   5.437   0.403   2.052 -0.1029 -0.1643 -0.5120
17675THY    CA222642   5.535   0.369   2.143 -0.1466  0.1480  0.2743
17675THY    CP122643   5.501   0.269   2.256 -0.0949 -0.8594 -0.2249
17675THY    HP122644   5.396   0.237   2.254  0.2531 -0.3672 -1.4718
17675THY    CP222645   5.529   0.326   2.396  0.8371 -0.5788 -0.4087
17675THY    HP222646   5.634   0.352   2.413  0.4150  0.2132  0.8123
17675THY    HP322647   5.493   0.257   2.473 -1.1711  0.4832  1.6815
17675THY    HP422648   5.475   0.419   2.413  0.3605  2.3715 -1.1373
17675THY    CP322649   5.563   0.135   2.231 -0.6851 -0.5111  0.1819
17675THY    HP522650   5.669   0.148   2.208 -0.4288  1.6185  2.6094
17675THY    HP622651   5.509   0.081   2.152 -2.3077  0.6865 -0.0121
17675THY    HP722652   5.565   0.081   2.326  0.5541  0.4361  1.8064
17675THY    CA322653   5.670   0.413   2.124  0.1467 -0.7270 -0.4410
17675THY    HA322654   5.739   0.374   2.198 -0.7333  0.9332  1.0213
17675THY    CA422655   5.697   0.500   2.011  0.4455 -0.0166  0.5011
17675THY    HA422656   5.798   0.517   1.976  0.8524  0.7221 -0.3245
17675THY    CA522657   5.598   0.536   1.927 -0.1510  0.4573 -0.2203
17675THY    CM122658   5.622   0.634   1.814  0.0214 -0.2968 -0.0903
17675THY    HM122659   5.729   0.638   1.790  0.0684  0.0814  0.9626
17675THY    HM222660   5.600   0.732   1.857 -0.3062 -0.1484 -0.2293
17675THY    HM322661   5.571   0.603   1.722  1.1541 -0.5927 -1.1791
17675THY    CA622662   5.471   0.493   1.949  0.3999 -0.5134 -0.1974
17675THY    HA622663   5.392   0.531   1.884 -0.1281 -0.1118 -0.5844
17676THY      O22664   3.359   1.005   3.075  0.1900 -0.1227  0.1210
17676THY     HO22665   3.291   1.072   3.092 -1.5105 -2.5503 -0.8413
17676THY    CA122666   3.286   0.910   3.014  0.1933 -0.8390  0.7420
17676THY    CA222667   3.350   0.802   2.951 -0.6592 -0.3881 -0.2963
17676THY    CP122668   3.500   0.798   2.949 -0.8799  0.5870 -0.3711
17676THY    HP122669   3.544   0.847   3.037  0.8397  0.1820 -1.1225
17676THY    CP222670   3.568   0.878   2.827  0.3135 -0.1902 -0.3244
17676THY    HP222671   3.674   0.899   2.845  0.2588 -0.2813  0.0253
17676THY    HP322672   3.523   0.977   2.815 -0.9923  0.6800 -0.7847
17676THY    HP422673   3.558   0.828   2.730 -1.9322 -1.4991  2.3970
17676THY    CP322674   3.551   0.654   2.944  0.3690  0.0804 -0.9937
17676THY    HP522675   3.658   0.634   2.932 -0.0005 -2.2460 -1.9799
17676THY    HP622676   3.507   0.614   2.852 -0.2669  0.2527 -0.6963
17676THY    HP722677   3.515   0.596   3.030  1.1159  0.5126 -0.8260
17676THY    CA322678   3.264   0.704   2.900 -0.0367 -0.1946  0.3905
17676THY    HA322679   3.305   0.613   2.856  1.7811  0.6889  0.7476
17676THY    CA422680   3.128   0.727   2.879  0.3377 -0.3518 -0.2548
17676THY    HA422681   3.062   0.656   2.831 -1.0141  1.1776 -0.0827
17676THY    CA522682   3.072   0.835   2.945 -0.8029 -0.1386 -0.1410
17676THY    CM122683   2.928   0.868   2.914 -0.0728 -0.1891 -0.1238
17676THY    HM122684   2.921   0.892   2.807  0.8549 -0.0973  0.5951
17676THY    HM222685   2.892   0.952   2.975  0.3983  0.9903 -0.7604
17676THY    HM322686   2.868   0.780   2.940 -0.0557  2.6917  0.6094
17676THY    CA622687   3.150   0.923   3.012 -0.5236  0.0305  0.1665
17676THY    HA622688   3.104   1.014   3.047  0.0362  0.3695  0.3203
17677THY      O22689   8.003   6.521   7.540 -0.6326 -0.1460 -0.3581
17677THY     HO22690   8.088   6.569   7.537 -0.5980  1.0401 -0.3247
17677THY    CA122691   7.917   6.595   7.464  0.1147  0.8622  0.0301
17677THY    CA222692   7.781   6.563   7.463  0.0016  0.3053 -0.2856
17677THY    CP122693   7.719   6.435   7.536 -0.3580 -0.4792  0.4199
17677THY    HP122694   7.790   6.381   7.599 -1.3182 -0.4894 -0.9136
17677THY    CP222695   7.668   6.333   7.429 -0.1973  0.2329  0.5045
17677THY    HP222696   7.746   6.302   7.359 -0.4205  0.7025 -1.2175
17677THY    HP322697   7.584   6.379   7.376  1.6826 -4.9538 -1.3493
17677THY    HP422698   7.619   6.246   7.473 -1.7466 -2.2150  0.0628
17677THY    CP322699   7.600   6.472   7.624 -0.1471 -0.0927 -0.0971
17677THY    HP522700   7.511   6.518   7.579 -1.5872  1.2578 -1.4283
17677THY    HP622701   7.635   6.545   7.698 -0.9829  0.3807 -0.1571
17677THY    HP722702   7.572   6.377   7.672  0.6083 -1.0474 -0.8206
17677THY    CA322703   7.697   6.640   7.375 -0.0749 -0.0139  0.4249
17677THY    HA322704   7.594   6.609   7.361  0.5910 -1.5655 -1.2236
17677THY    CA422705   7.753   6.758   7.317  0.0730 -0.0540  0.5962
17677THY    HA422706   7.680   6.815   7.262 -2.5597  1.7421 -0.8064
17677THY    CA522707   7.885   6.788   7.318  0.4042  0.0731 -0.7770
17677THY    CM122708   7.942   6.904   7.242 -0.0295  0.2653  0.0604
17677THY    HM122709   8.030   6.880   7.181 -0.3396  0.4706 -1.7136
17677THY    HM222710   7.959   6.989   7.309 -0.1676 -0.9365  1.0752
17677THY    HM322711   7.862   6.938   7.174  0.1908 -0.1379 -0.2148
17677THY    CA622712   7.969   6.710   7.395 -0.1826 -0.6091  0.9085
17677THY    HA622713   8.077   6.719   7.392 -0.0373 -0.0214 -0.3581
17678THY      O22714   5.643   6.220   3.545  0.1126 -0.2496 -0.2907
17678THY     HO22715   5.667   6.130   3.571  0.6563 -1.5392 -0.5425
17678THY    CA122716   5.742   6.265   3.464  0.4891 -0.5456 -0.2259
17678THY    CA222717   5.734   6.380   3.383  0.4049 -0.3762  0.5813
17678THY    CP122718   5.615   6.466   3.382  0.9062 -1.3337  0.1757
17678THY    HP122719   5.539   6.425   3.449 -0.4424 -2.2162  1.1346
17678THY    CP222720   5.548   6.472   3.247  0.1292 -0.0846 -0.2434
17678THY    HP222721   5.612   6.527   3.176  0.9514  1.2667  0.5878
17678THY    HP322722   5.460   6.537   3.248  0.8783  1.2923  0.7981
17678THY    HP422723   5.531   6.375   3.199  0.8057  1.5384 -1.1863
17678THY    CP322724   5.647   6.610   3.438  0.1815 -0.3330  0.3537
17678THY    HP522725   5.706   6.597   3.529 -0.0162 -0.2490  0.0546
17678THY    HP622726   5.566   6.680   3.461 -1.1083  0.8491 -1.4584
17678THY    HP722727   5.723   6.656   3.374  1.8399  2.3991  1.6916
17678THY    CA322728   5.838   6.405   3.285  0.7340 -0.4458 -0.4196
17678THY    HA322729   5.838   6.490   3.218  0.0195  0.3771  0.2458
17678THY    CA422730   5.946   6.312   3.276  0.2454  0.0928 -0.9359
17678THY    HA422731   6.018   6.320   3.196 -1.7279 -1.8101 -1.1908
17678THY    CA522732   5.962   6.211   3.371 -0.2591 -0.4819 -1.1250
17678THY    CM122733   6.085   6.133   3.390  0.2510 -0.1469 -0.1704
17678THY    HM122734   6.115   6.099   3.489  3.3989 -0.2892  1.8380
17678THY    HM222735   6.164   6.204   3.365 -0.6400 -0.1654  0.8306
17678THY    HM322736   6.077   6.053   3.315  0.3442 -0.0702 -0.2501
17678THY    CA622737   5.860   6.193   3.465 -0.3551  0.7677  0.5899
17678THY    HA622738   5.860   6.106   3.530 -0.1427 -0.2563 -0.1955
17679THY      O22739   0.555   1.234   3.394  0.2608 -0.2734  0.4666
17679THY     HO22740   0.602   1.315   3.366  3.0181  3.1937  0.3444
17679THY    CA122741   0.628   1.125   3.356  0.2890  1.0599  0.5246
17679THY    CA222742   0.573   1.002   3.314 -0.3164  0.1037 -0.1240
17679THY    CP122743   0.422   0.970   3.345 -0.4019 -0.3794  0.1346
17679THY    HP122744   0.382   1.034   3.424 -1.9422  0.1851 -1.4215
17679THY    CP222745   0.411   0.831   3.391 -0.0122 -0.1898  0.0878
17679THY    HP222746   0.427   0.755   3.314  0.5749  0.4518 -0.4478
17679THY    HP322747   0.311   0.827   3.435 -0.3401 -0.6851  1.8550
17679THY    HP422748   0.474   0.819   3.481 -0.4926  0.0468 -0.7022
17679THY    CP322749   0.338   0.987   3.222  0.6064  0.4634  0.1294
17679THY    HP522750   0.350   1.085   3.173 -0.7750 -0.2735 -0.0494
17679THY    HP622751   0.233   0.984   3.252  0.5778  0.4774  1.0312
17679THY    HP722752   0.358   0.910   3.147 -3.8562 -3.1522  2.0152
17679THY    CA322753   0.655   0.914   3.235  0.1600 -1.2580  0.0252
17679THY    HA322754   0.614   0.819   3.202  1.8759 -0.5788 -1.0009
17679THY    CA422755   0.789   0.944   3.224 -0.3013  0.5396 -0.1774
17679THY    HA422756   0.854   0.876   3.170 -0.2949  0.0262  0.2367
17679THY    CA522757   0.847   1.054   3.286 -0.4333 -0.1631  0.1389
17679THY    CM122758   0.998   1.067   3.271 -0.3196 -0.0919 -0.3011
17679THY    HM122759   1.021   1.172   3.250  2.9231  0.2213 -0.8381
17679THY    HM222760   1.033   1.002   3.190 -2.8637 -0.0418 -1.8652
17679THY    HM322761   1.057   1.039   3.360  1.7511 -1.5010 -0.6293
17679THY    CA622762   0.762   1.154   3.338  1.0078 -0.3615 -0.2220
17679THY    HA622763   0.805   1.248   3.371  1.5035  3.2571 -1.5471
17680THY      O22764   0.617   7.216   2.794 -0.0617  0.0485  0.4832
17680THY     HO22765   0.568   7.288   2.836  0.6776  1.0646  0.4086
17680THY    CA122766   0.715   7.190   2.882 -0.0506  0.0588  0.4550
17680THY    CA222767   0.817   7.086   2.855  0.3056 -0.6714 -0.2624
17680THY    CP122768   0.817   7.016   2.722 -1.3363  0.4442 -0.3804
17680THY    HP122769   0.756   7.070   2.649  0.2422 -0.1249  0.6715
17680THY    CP222770   0.748   6.877   2.744 -0.0238  0.2538 -0.6959
17680THY    HP222771   0.641   6.894   2.755 -0.0144  0.5865 -0.8402
17680THY    HP322772   0.789   6.826   2.832 -1.9739  1.2457 -0.6061
17680THY    HP422773   0.766   6.821   2.651 -1.2429 -0.9026  0.7382
17680THY    CP322774   0.956   7.002   2.672 -0.2530 -0.8425  0.2539
17680THY    HP522775   1.007   7.097   2.692  0.2639  3.8621 -0.7671
17680THY    HP622776   0.959   6.970   2.567 -0.2258 -0.9637  0.6488
17680THY    HP722777   1.013   6.933   2.736  0.2855 -1.0724  0.4755
17680THY    CA322778   0.916   7.062   2.956  0.2582 -0.2123  0.1175
17680THY    HA322779   1.003   6.998   2.947 -0.0809  0.3497 -0.4310
17680THY    CA422780   0.917   7.141   3.071  0.7532  0.7227 -0.0820
17680THY    HA422781   0.992   7.120   3.148 -1.8733  3.3349 -0.5188
17680THY    CA522782   0.820   7.236   3.096 -0.5107 -0.2946 -0.1274
17680THY    CM122783   0.813   7.285   3.237  0.3654 -0.1448 -0.5616
17680THY    HM122784   0.914   7.273   3.279 -0.0621  0.8647 -0.7266
17680THY    HM222785   0.740   7.232   3.299 -0.8473 -1.2202 -0.2066
17680THY    HM322786   0.786   7.391   3.239  1.7406 -0.7834 -0.1729
17680THY    CA622787   0.714   7.251   3.004  0.3710  0.4650 -0.9483
17680THY    HA622788   0.631   7.315   3.034 -0.5742  0.9202 -2.3499
17681THY      O22789   8.127   1.476   3.917 -0.1397  0.5036 -0.1306
17681THY     HO22790   8.106   1.525   3.835  1.4792  1.5146  2.4767
17681THY    CA122791   8.047   1.531   4.009  0.3821 -0.5489 -0.4621
17681THY    CA222792   8.047   1.480   4.141 -0.2810  0.2520 -0.2641
17681THY    CP122793   8.148   1.371   4.182 -0.7578  0.2182  0.4788
17681THY    HP122794   8.227   1.353   4.109 -1.3411 -0.2073 -0.3962
17681THY    CP222795   8.068   1.244   4.201 -0.4426 -0.3056 -0.0681
17681THY    HP222796   8.035   1.216   4.101 -0.9549 -0.5741  1.4103
17681THY    HP322797   7.986   1.258   4.273 -0.1265  0.4566 -1.7927
17681THY    HP422798   8.136   1.163   4.232  2.2895 -0.8209  1.9119
17681THY    CP322799   8.223   1.416   4.305  0.1337 -0.0309  0.0998
17681THY    HP522800   8.297   1.339   4.333  0.3869  1.3117  0.8071
17681THY    HP622801   8.158   1.426   4.392 -1.8756 -1.6624  2.5372
17681THY    HP722802   8.262   1.516   4.285 -1.6067 -0.7793  0.6645
17681THY    CA322803   7.958   1.530   4.232 -0.1290 -0.5326 -0.0908
17681THY    HA322804   7.958   1.493   4.334 -1.3206 -0.7066 -0.6128
17681THY    CA422805   7.870   1.640   4.193 -0.5973 -1.0376  0.4313
17681THY    HA422806   7.812   1.678   4.277  0.6826  1.1492 -2.0311
17681THY    CA522807   7.863   1.686   4.058 -0.2870  0.3287 -0.2960
17681THY    CM122808   7.784   1.814   4.029 -0.2765 -0.2298  0.1637
17681THY    HM122809   7.713   1.838   4.109 -0.9906 -1.1356  1.2064
17681THY    HM222810   7.706   1.798   3.953 -0.6257 -0.1370  1.3259
17681THY    HM322811   7.839   1.901   3.990 -1.1058 -0.8510  0.4284
17681THY    CA622812   7.956   1.636   3.968 -0.4120  0.1574  0.1189
17681THY    HA622813   7.952   1.681   3.869  0.3534  0.6167  1.2574
17682THY      O22814   6.523   2.322   5.055  0.3161 -0.9137  0.3511
17682THY     HO22815   6.489   2.312   4.965  0.7848 -1.2456  1.6037
17682THY    CA122816   6.481   2.216   5.129  0.1947  0.0735 -0.6070
17682THY    CA222817   6.504   2.197   5.267  0.1645 -0.4212 -0.3867
17682THY    CP122818   6.562   2.312   5.347 -1.0107  0.3483  0.7318
17682THY    HP122819   6.584   2.399   5.285  0.2386  1.5713  1.3372
17682THY    CP222820   6.700   2.287   5.415  0.0628  0.0882 -0.2421
17682THY    HP222821   6.777   2.267   5.339  0.1555 -0.4106  1.7538
17682THY    HP322822   6.699   2.199   5.480 -1.2799 -0.3482 -0.5698
17682THY    HP422823   6.747   2.362   5.480  0.6962 -1.1445  0.4521
17682THY    CP322824   6.453   2.354   5.445  0.4327  0.4180  0.2986
17682THY    HP522825   6.453   2.462   5.464 -0.8441 -0.2940  0.4416
17682THY    HP622826   6.472   2.299   5.538  0.7572  1.1204  1.5553
17682THY    HP722827   6.352   2.325   5.416  0.8274 -0.6334 -0.0934
17682THY    CA322828   6.469   2.075   5.332 -0.1086  0.4585 -0.7424
17682THY    HA322829   6.483   2.073   5.439 -2.0571  0.7640  0.0932
17682THY    CA422830   6.418   1.972   5.255  0.5045  0.5504  0.5093
17682THY    HA422831   6.395   1.877   5.302  0.4529  1.7442  1.0798
17682THY    CA522832   6.403   1.989   5.118 -1.2642 -0.1473 -0.3214
17682THY    CM122833   6.362   1.867   5.041 -0.5567  0.0690 -0.2811
17682THY    HM122834   6.425   1.785   5.077 -2.4404  2.2276 -0.8948
17682THY    HM222835   6.378   1.886   4.934  0.9726  0.7346  2.9507
17682THY    HM322836   6.259   1.838   5.068 -0.8186  0.0664  0.6007
17682THY    CA622837   6.435   2.107   5.056  0.0405  0.3301  0.0677
17682THY    HA622838   6.440   2.123   4.948 -0.1579  0.4932  1.3558
17683THY      O22839   6.420   6.638   2.017  0.0055 -0.7817 -0.2908
17683THY     HO22840   6.460   6.609   2.101  1.0074 -0.9807  0.4659
17683THY    CA122841   6.323   6.722   2.059 -0.3706  0.2811  0.2538
17683THY    CA222842   6.200   6.742   1.983 -0.0437  0.7454 -0.2842
17683THY    CP122843   6.174   6.648   1.865  0.6001  0.4873 -0.3272
17683THY    HP122844   6.262   6.615   1.809  0.2673 -0.5295  0.4634
17683THY    CP222845   6.074   6.704   1.758 -0.3444  0.1342 -0.0127
17683THY    HP222846   6.114   6.793   1.708  0.8363  1.7535  0.4049
17683THY    HP322847   5.970   6.709   1.791 -0.6306  0.1534 -3.6676
17683THY    HP422848   6.068   6.630   1.677 -2.4823 -0.0257  0.2820
17683THY    CP322849   6.108   6.521   1.922 -0.3201 -0.9847 -0.3682
17683THY    HP522850   6.094   6.447   1.843 -3.6034  0.2527 -1.2649
17683THY    HP622851   6.007   6.532   1.963  0.1315  0.6152 -1.7135
17683THY    HP722852   6.172   6.484   2.004  0.3703 -1.7672 -0.9483
17683THY    CA322853   6.107   6.834   2.023 -0.3641 -0.7333 -0.6473
17683THY    HA322854   6.015   6.851   1.967 -0.5179 -0.0974  0.7787
17683THY    CA422855   6.136   6.920   2.133 -0.4347  0.1046 -0.5145
17683THY    HA422856   6.079   7.007   2.163  1.9106  0.2121  1.0886
17683THY    CA522857   6.249   6.894   2.205  0.3893  0.5075  0.1444
17683THY    CM122858   6.275   6.974   2.331 -0.1450  0.3798 -0.3013
17683THY    HM122859   6.262   6.910   2.418  1.7095  0.6022 -0.4288
17683THY    HM222860   6.200   7.054   2.346 -0.8389  2.5170 -1.2808
17683THY    HM322861   6.374   7.020   2.330 -0.4082 -2.3646  0.3934
17683THY    CA622862   6.351   6.803   2.163  0.0703  0.4625  0.4078
17683THY    HA622863   6.444   6.798   2.220  1.3830 -1.5454  0.8102
17684THY      O22864   8.382   4.153   5.752 -0.2819  0.5088  0.5257
17684THY     HO22865   8.452   4.216   5.778  1.2744  1.9614 -1.6619
17684THY    CA122866   8.322   4.130   5.874 -0.3588  1.0928 -0.1213
17684THY    CA222867   8.203   4.051   5.871  0.6506 -0.4703 -0.0999
17684THY    CP122868   8.144   3.991   5.745 -0.0198 -0.4993 -0.0666
17684THY    HP122869   8.211   3.991   5.658  0.3893 -0.2861 -2.7658
17684THY    CP222870   8.015   4.065   5.701  0.5869 -0.0987  0.3514
17684THY    HP222871   8.025   4.170   5.669  0.1337  0.7785  0.6726
17684THY    HP322872   7.933   4.069   5.773  0.3265 -0.3799  0.1776
17684THY    HP422873   7.959   4.017   5.620  1.3701  0.1356 -0.9898
17684THY    CP322874   8.106   3.841   5.769  0.1372  0.2575 -0.8695
17684THY    HP522875   8.026   3.829   5.843 -1.8478 -1.9130 -1.7412
17684THY    HP622876   8.187   3.778   5.808  0.6199 -1.3725 -1.3086
17684THY    HP722877   8.069   3.795   5.677 -0.9022 -0.1933  0.8018
17684THY    CA322878   8.131   4.030   5.992 -0.2732 -0.1481 -0.7638
17684THY    HA322879   8.027   3.999   5.986  0.0959 -1.9415 -1.8406
17684THY    CA422880   8.198   4.067   6.111 -0.1385 -0.4621  0.0379
17684THY    HA422881   8.152   4.060   6.209  0.8915  0.3906  3.2201
17684THY    CA522882   8.319   4.139   6.112 -0.0083  0.6145 -0.3742
17684THY    CM122883   8.369   4.211   6.238 -0.2095 -0.0278 -0.0879
17684THY    HM122884   8.473   4.190   6.266  0.0130 -0.6993  0.0950
17684THY    HM222885   8.319   4.196   6.335  1.2269  0.7138 -0.3087
17684THY    HM322886   8.372   4.318   6.213 -2.3791  0.2836  0.1000
17684THY    CA622887   8.375   4.172   5.990 -0.3525  0.3438  0.0436
17684THY    HA622888   8.464   4.233   5.989  0.7415  2.6370 -1.3629
17685THY      O22889   6.543   0.927   1.655  0.1946 -0.8664  0.1063
17685THY     HO22890   6.449   0.945   1.671  0.2869  3.6858 -1.9228
17685THY    CA122891   6.596   0.906   1.773 -0.6639 -0.4203  0.5302
17685THY    CA222892   6.716   0.962   1.822 -0.0031 -0.1473  0.2362
17685THY    CP122893   6.781   1.066   1.734  0.3022 -0.4910 -0.3491
17685THY    HP122894   6.764   1.051   1.627  2.7927 -0.8306 -1.1017
17685THY    CP222895   6.931   1.059   1.734  0.1885  0.0535  0.0745
17685THY    HP222896   6.958   0.969   1.678 -0.2561  0.7033 -0.4652
17685THY    HP322897   6.978   1.058   1.833  0.8961 -0.2345  1.5117
17685THY    HP422898   6.969   1.147   1.681 -1.1041  1.5414  1.6112
17685THY    CP322899   6.737   1.209   1.776 -0.2091 -0.1506  0.4417
17685THY    HP522900   6.766   1.289   1.706  2.9015  0.2432 -0.1907
17685THY    HP622901   6.792   1.237   1.867  0.4630  0.0703 -1.4623
17685THY    HP722902   6.629   1.203   1.788 -0.1203  0.3601 -0.2199
17685THY    CA322903   6.763   0.938   1.952 -0.8567 -0.5620  0.1979
17685THY    HA322904   6.846   0.991   1.997 -0.6616 -0.7756  0.0770
17685THY    CA422905   6.686   0.853   2.036  0.2423  0.9083  0.4084
17685THY    HA422906   6.720   0.827   2.136 -1.5461  1.6178  0.6828
17685THY    CA522907   6.571   0.798   1.992  0.1477  0.5104 -0.0541
17685THY    CM122908   6.487   0.714   2.085 -0.1770  0.2079  0.0716
17685THY    HM122909   6.395   0.686   2.033 -0.7306 -0.2434  2.5357
17685THY    HM222910   6.458   0.765   2.177 -1.4199 -0.6340  0.9210
17685THY    HM322911   6.541   0.620   2.105 -0.9700 -1.9171 -0.9088
17685THY    CA622912   6.524   0.822   1.857  0.2951 -0.2250  0.6104
17685THY    HA622913   6.432   0.777   1.821 -0.6688 -0.5205  2.6539
17686THY      O22914   8.660   8.664   3.059  0.0178 -0.0561  0.9286
17686THY     HO22915   8.595   8.663   3.131  0.3257  0.2425  1.7779
17686THY    CA122916   8.703   8.537   3.039  0.1857  0.3153 -0.6694
17686THY    CA222917   8.770   8.505   2.928  0.6893 -0.0867  0.1307
17686THY    CP122918   8.807   8.603   2.821 -0.3975 -0.0962  0.0919
17686THY    HP122919   8.812   8.702   2.869 -1.1031  0.3220 -0.0641
17686THY    CP222920   8.685   8.625   2.733 -0.5859 -0.0810 -0.1462
17686THY    HP222921   8.611   8.670   2.800  0.2363  0.5190  0.3515
17686THY    HP322922   8.644   8.529   2.702 -0.1434  1.3019 -0.8152
17686THY    HP422923   8.695   8.689   2.644 -0.4989  0.2101  0.2507
17686THY    CP322924   8.933   8.581   2.733 -0.5697  0.1510 -0.1901
17686THY    HP522925   8.950   8.669   2.670 -1.5550  0.7982  0.4808
17686THY    HP622926   8.912   8.490   2.674 -0.9041  0.1354 -0.1015
17686THY    HP722927   9.019   8.553   2.795 -0.7012  0.9589  1.1191
17686THY    CA322928   8.802   8.368   2.903  0.4510  0.4111 -0.6425
17686THY    HA322929   8.853   8.333   2.814 -1.0879 -1.2145  1.0766
17686THY    CA422930   8.775   8.273   3.001  0.0576  0.1221 -0.6015
17686THY    HA422931   8.820   8.176   2.983 -1.4024  0.5949 -1.4030
17686THY    CA522932   8.706   8.308   3.112  0.7070  0.2335 -0.1478
17686THY    CM122933   8.677   8.213   3.218  0.0235  0.7204 -0.2542
17686THY    HM122934   8.759   8.141   3.222 -0.7227  0.9558 -1.1100
17686THY    HM222935   8.585   8.156   3.200 -1.5318  0.6898  2.1241
17686THY    HM322936   8.658   8.266   3.313 -0.0540 -0.0002  1.0381
17686THY    CA622937   8.668   8.442   3.131  0.6085 -0.1487  0.6071
17686THY    HA622938   8.614   8.465   3.222 -2.0078 -1.2304 -0.7682
17687THY      O22939   4.837   8.045   4.097  0.7392 -0.2283  0.2894
17687THY     HO22940   4.860   8.137   4.074  1.6511  1.8282  0.6167
17687THY    CA122941   4.909   7.946   4.028 -0.0401 -0.8043 -0.3579
17687THY    CA222942   4.859   7.816   4.018  0.6919 -0.3566 -0.2013
17687THY    CP122943   4.717   7.782   4.063 -0.5563 -0.0970 -0.7705
17687THY    HP122944   4.662   7.871   4.031  0.7688  2.7551  1.2327
17687THY    CP222945   4.706   7.786   4.222 -0.4460  0.0995  0.1650
17687THY    HP222946   4.769   7.711   4.272 -0.4507  0.8251  0.6385
17687THY    HP322947   4.602   7.774   4.251 -0.1532  1.2203  0.2646
17687THY    HP422948   4.734   7.881   4.269  0.1386  0.0125  0.0430
17687THY    CP322949   4.664   7.655   4.014 -0.0558  0.2402  0.7708
17687THY    HP522950   4.560   7.653   4.049 -0.0968  0.2269  2.0941
17687THY    HP622951   4.721   7.572   4.058 -0.1615  0.5169  0.8442
17687THY    HP722952   4.648   7.654   3.906 -2.6255  0.5322 -0.6246
17687THY    CA322953   4.939   7.716   3.958 -0.2641  0.0285  1.0550
17687THY    HA322954   4.901   7.615   3.957  0.6618 -1.8260  0.6696
17687THY    CA422955   5.068   7.753   3.907  0.2647 -0.2249  0.6638
17687THY    HA422956   5.130   7.683   3.852 -0.0036 -0.1589  0.3702
17687THY    CA522957   5.118   7.881   3.931 -0.3608 -0.0923 -1.3227
17687THY    CM122958   5.260   7.921   3.885 -0.1041 -0.1675 -0.4366
17687THY    HM122959   5.270   8.026   3.857  1.7925  0.0555 -0.5371
17687THY    HM222960   5.276   7.867   3.791 -3.5446 -0.4840 -1.1422
17687THY    HM322961   5.335   7.896   3.961  2.5040 -1.6205  2.3156
17687THY    CA622962   5.042   7.981   3.991  0.1429 -0.4182  0.4759
17687THY    HA622963   5.082   8.081   4.005  1.3070  0.9649 -0.1513
17688THY      O22964   7.112   1.915   5.648  0.3073 -0.2377  0.3210
17688THY     HO22965   7.191   1.859   5.646  1.2519  0.3688  1.5834
17688THY    CA122966   7.053   1.922   5.769  0.3314 -0.0322 -0.6127
17688THY    CA222967   7.019   2.043   5.831  0.2896  0.2267 -0.7288
17688THY    CP122968   7.027   2.172   5.762  0.1485  0.2993  0.1667
17688THY    HP122969   7.053   2.154   5.657  2.0064  0.7032  0.3503
17688THY    CP222970   7.130   2.274   5.829  1.0735  0.2825  0.7090
17688THY    HP222971   7.128   2.266   5.938  3.3266  0.3388  0.2011
17688THY    HP322972   7.115   2.376   5.791 -0.1892 -0.3931  0.2917
17688THY    HP422973   7.231   2.243   5.799  0.7470 -1.8015  1.4960
17688THY    CP322974   6.890   2.243   5.762  0.3688 -0.0159  0.0221
17688THY    HP522975   6.851   2.272   5.860  0.1247 -0.3805  0.9702
17688THY    HP622976   6.813   2.190   5.705  1.1667 -1.3526  0.2428
17688THY    HP722977   6.896   2.335   5.701 -3.1428 -0.9551 -0.2360
17688THY    CA322978   6.978   2.039   5.965  0.3421  0.0303 -0.2411
17688THY    HA322979   6.954   2.129   6.021 -1.8707  0.8733 -1.2654
17688THY    CA422980   6.947   1.921   6.037 -0.4868  0.3682  0.0999
17688THY    HA422981   6.922   1.914   6.142  2.0370  1.0011 -0.2337
17688THY    CA522982   6.967   1.801   5.967 -0.1563 -0.1055  0.0996
17688THY    CM122983   6.955   1.673   6.034  0.1947 -0.3595 -0.6762
17688THY    HM122984   6.983   1.691   6.138 -1.5140 -0.2669  1.9793
17688THY    HM222985   7.014   1.592   5.990 -1.6671  1.3997 -3.1529
17688THY    HM322986   6.850   1.641   6.032  0.1304  0.8678 -0.5950
17688THY    CA622987   7.017   1.803   5.833 -0.6255  0.4455  0.2429
17688THY    HA622988   7.028   1.713   5.773 -1.8396 -2.2805  1.7743
17689THY      O22989   6.062   7.749   3.373 -0.0041  0.1035 -0.2352
17689THY     HO22990   6.036   7.758   3.467  0.7081  0.4041 -1.1704
17689THY    CA122991   6.146   7.852   3.341  0.5279  0.0934  0.0776
17689THY    CA222992   6.202   7.853   3.209 -0.4094 -0.1436  0.0294
17689THY    CP122993   6.160   7.751   3.108  0.3266  0.0994  0.1262
17689THY    HP122994   6.102   7.667   3.147  1.0361  1.3175  0.1809
17689THY    CP222995   6.284   7.686   3.041  0.0620 -0.0000  0.7252
17689THY    HP222996   6.338   7.769   2.993 -0.5062  1.2462  1.8420
17689THY    HP322997   6.261   7.617   2.958  0.8199 -0.2172  0.7244
17689THY    HP422998   6.356   7.642   3.110  0.3759 -1.0445 -0.4814
17689THY    CP322999   6.078   7.815   2.994 -0.6913  0.4206 -0.3031
17689THY    HP523000   6.045   7.736   2.926 -0.8631 -0.1801  0.2741
17689THY    HP623001   6.143   7.886   2.942 -1.0218 -0.7805 -0.8678
17689THY    HP723002   5.986   7.856   3.038 -0.4467 -0.0645  0.8037
17689THY    CA323003   6.284   7.961   3.179 -0.2639 -0.0001  0.2364
17689THY    HA323004   6.337   7.963   3.084 -0.5392 -0.1480  0.8121
17689THY    CA423005   6.303   8.060   3.274 -0.1529  0.0144 -0.0507
17689THY    HA423006   6.363   8.148   3.250  1.7397  1.5506 -0.8509
17689THY    CA523007   6.235   8.061   3.397  0.2652 -0.0658 -0.3988
17689THY    CM123008   6.256   8.166   3.508 -0.0364  0.0489 -0.2408
17689THY    HM123009   6.305   8.249   3.458 -0.2222 -1.3957 -0.9664
17689THY    HM223010   6.315   8.124   3.590  1.5510 -1.3200 -0.7985
17689THY    HM323011   6.165   8.211   3.550 -0.8362 -0.5790 -1.2125
17689THY    CA623012   6.159   7.953   3.433  0.5708  0.0299  0.0877
17689THY    HA623013   6.100   7.959   3.524  0.1219 -0.3498  2.2666
17690THY      O23014   2.749   1.869   7.674 -0.2767 -0.5226 -0.1736
17690THY     HO23015   2.727   1.935   7.605 -3.7698  0.1765 -0.3950
17690THY    CA123016   2.665   1.763   7.660 -0.2832  0.3638  0.0810
17690THY    CA223017   2.628   1.681   7.776  0.1486  0.7062  0.2486
17690THY    CP123018   2.671   1.709   7.921 -0.2417 -0.2994  0.4124
17690THY    HP123019   2.749   1.785   7.926 -0.8009  0.6413  0.9424
17690THY    CP223020   2.733   1.577   7.981 -0.3054  0.6368 -0.1303
17690THY    HP223021   2.807   1.551   7.905  0.8687  1.2827  1.2038
17690THY    HP323022   2.669   1.489   7.994  2.2891 -0.6504 -2.3353
17690THY    HP423023   2.792   1.582   8.074  0.2159  0.3341 -0.5128
17690THY    CP323024   2.558   1.775   7.996  0.0763 -0.1012  0.0230
17690THY    HP523025   2.599   1.825   8.085  1.2523  0.8711 -2.4981
17690THY    HP623026   2.479   1.708   8.031  1.6062  1.3124 -1.1271
17690THY    HP723027   2.531   1.849   7.919  4.8283 -1.8704  0.3269
17690THY    CA323028   2.537   1.567   7.751 -0.5264  0.4398 -0.1495
17690THY    HA323029   2.517   1.503   7.836  0.0417  0.7192  0.0310
17690THY    CA423030   2.480   1.550   7.621  0.1497  0.3200 -0.3726
17690THY    HA423031   2.416   1.465   7.600  0.8385 -2.0260 -0.3812
17690THY    CA523032   2.528   1.632   7.513 -0.2847 -0.6957  0.0209
17690THY    CM123033   2.482   1.632   7.369  0.3859 -0.3312  0.2297
17690THY    HM123034   2.417   1.720   7.355  0.5845  0.9169  0.5951
17690THY    HM223035   2.415   1.551   7.338 -1.1869  1.8025  0.6040
17690THY    HM323036   2.559   1.636   7.292  1.0824  0.3140 -0.4682
17690THY    CA623037   2.609   1.745   7.537  0.8335  0.0891 -0.1347
17690THY    HA623038   2.646   1.797   7.450  1.3181 -0.5284 -1.4583
17691THY      O23039   7.406   6.513   4.473 -0.5361 -0.0020 -0.6357
17691THY     HO23040   7.448   6.492   4.388  0.9606  0.6115 -0.2356
17691THY    CA123041   7.280   6.470   4.466  0.7727 -0.2336 -0.4916
17691THY    CA223042   7.205   6.425   4.581  0.7195 -0.8239 -0.0841
17691THY    CP123043   7.269   6.417   4.716  0.1084 -0.5525  0.0383
17691THY    HP123044   7.373   6.452   4.711  0.9197 -0.9759 -2.2598
17691THY    CP223045   7.279   6.270   4.757  0.0210 -0.3692  0.0545
17691THY    HP223046   7.316   6.209   4.675 -0.3517 -0.5875  0.1232
17691THY    HP323047   7.185   6.227   4.793  0.8221  2.0364  0.1426
17691THY    HP423048   7.345   6.268   4.845 -1.4112  0.7336 -1.4412
17691THY    CP323049   7.201   6.499   4.826  0.3647  0.6418 -0.2382
17691THY    HP523050   7.102   6.455   4.841  1.0233  2.3001 -1.2858
17691THY    HP623051   7.215   6.605   4.803  1.0919  1.6566 -0.0914
17691THY    HP723052   7.256   6.488   4.921  0.8776  0.7208  2.3962
17691THY    CA323053   7.066   6.399   4.556 -0.5118 -0.0506  0.2207
17691THY    HA323054   6.993   6.380   4.634  1.2110  1.3168 -1.0635
17691THY    CA423055   7.015   6.404   4.426  0.2181  0.0876 -0.0401
17691THY    HA423056   6.908   6.398   4.407  0.4461 -2.4302  2.1758
17691THY    CA523057   7.099   6.430   4.315 -0.1273 -0.7554 -0.0038
17691THY    CM123058   7.030   6.434   4.181 -0.1880  0.1595  0.2618
17691THY    HM123059   7.099   6.431   4.095 -0.6762 -0.2174 -1.9340
17691THY    HM223060   6.972   6.526   4.174  0.4143  3.3161  1.0151
17691THY    HM323061   6.962   6.352   4.156 -1.0008 -0.3921  1.0854
17691THY    CA623062   7.226   6.472   4.333 -0.9778  0.4425 -1.0702
17691THY    HA623063   7.288   6.501   4.249 -0.0353  2.0083  1.8844
17692THY      O23064   3.230   3.861   6.576 -0.3412 -0.3910  0.2456
17692THY     HO23065   3.188   3.782   6.613 -1.8152 -1.1912  0.6394
17692THY    CA123066   3.158   3.962   6.639  0.2954  1.3829 -0.2657
17692THY    CA223067   3.172   4.091   6.592  0.1142 -0.1996  0.3142
17692THY    CP123068   3.271   4.120   6.483 -0.5275 -0.0118 -0.0195
17692THY    HP123069   3.357   4.057   6.507 -1.4573 -1.3023 -1.8649
17692THY    CP223070   3.324   4.267   6.492 -0.1461  0.3127 -0.2986
17692THY    HP223071   3.348   4.302   6.593  0.3248 -0.4413  1.7087
17692THY    HP323072   3.253   4.339   6.449 -0.0523 -0.7396 -0.8139
17692THY    HP423073   3.416   4.284   6.435 -1.3229 -1.4795  0.4361
17692THY    CP323074   3.217   4.096   6.336  0.1836 -0.2225 -0.0082
17692THY    HP523075   3.271   4.144   6.254 -0.1724 -0.3058  0.2573
17692THY    HP623076   3.116   4.138   6.326 -0.0266  0.8374 -0.2371
17692THY    HP723077   3.210   3.990   6.311 -0.4109 -1.5003  0.3070
17692THY    CA323078   3.097   4.195   6.665 -0.1397  0.8702  0.4395
17692THY    HA323079   3.106   4.299   6.638  0.3254 -0.7678 -0.0083
17692THY    CA423080   2.996   4.151   6.755  0.1483 -0.0001 -0.2552
17692THY    HA423081   2.918   4.214   6.796 -0.8384  0.8405 -1.9805
17692THY    CA523082   2.985   4.012   6.787  0.9313 -0.6339 -0.2492
17692THY    CM123083   2.895   3.954   6.900 -0.3269 -0.2571  0.0322
17692THY    HM123084   2.924   3.990   6.999 -0.5783  0.5493 -1.8658
17692THY    HM223085   2.911   3.847   6.919  2.7576  2.8531  0.8572
17692THY    HM323086   2.792   3.973   6.869 -0.9544  1.5778 -0.1579
17692THY    CA623087   3.059   3.921   6.724  0.6618 -0.4820 -0.3126
17692THY    HA623088   3.039   3.818   6.755 -1.5573  1.9703  0.7200
17693THY      O23089   8.119   8.747   4.403  0.1548 -0.3875 -0.1144
17693THY     HO23090   8.198   8.726   4.457 -0.0828  0.4922  1.1265
17693THY    CA123091   8.039   8.829   4.468  0.2062 -0.3723 -0.2843
17693THY    CA223092   7.908   8.869   4.429  0.1798  0.5408 -0.1505
17693THY    CP123093   7.855   8.818   4.295 -0.4285  0.1915 -0.3421
17693THY    HP123094   7.930   8.773   4.229  0.3215  0.7824  0.0254
17693THY    CP223095   7.808   8.932   4.204  0.2254  0.5206 -0.4384
17693THY    HP223096   7.708   8.967   4.233 -0.0772 -0.2602 -0.6114
17693THY    HP323097   7.797   8.901   4.099 -0.2642  0.0113  1.3587
17693THY    HP423098   7.886   9.007   4.216  1.2563  1.3598 -1.6090
17693THY    CP323099   7.744   8.725   4.314 -0.0042  1.1918  0.3156
17693THY    HP523100   7.773   8.636   4.370 -1.9335  0.7009 -0.6570
17693THY    HP623101   7.704   8.686   4.220 -0.5740  1.6572 -0.2232
17693THY    HP723102   7.661   8.780   4.359 -1.4947  0.1208 -0.9884
17693THY    CA323103   7.829   8.957   4.508  0.9127 -0.1081  0.5089
17693THY    HA323104   7.725   8.972   4.481  1.0963 -0.3494  1.4275
17693THY    CA423105   7.890   9.021   4.616 -0.2709 -0.2580  0.1033
17693THY    HA423106   7.838   9.094   4.678 -0.2550  1.7913 -1.5465
17693THY    CA523107   8.022   8.985   4.654 -0.2378 -0.3784  0.2367
17693THY    CM123108   8.090   9.053   4.764 -0.0031 -0.5603  0.0208
17693THY    HM123109   8.078   9.162   4.762 -1.0483 -2.5205 -0.0846
17693THY    HM223110   8.199   9.052   4.748  0.0091 -0.4948  0.1731
17693THY    HM323111   8.053   9.012   4.858 -2.4408 -2.0644 -1.4659
17693THY    CA623112   8.089   8.890   4.576  0.0090 -0.2932  0.2099
17693THY    HA623113   8.186   8.860   4.616  0.1803  0.3202  1.4823
17694THY      O23114   8.019   4.373   4.945 -0.2293 -0.1562  0.1707
17694THY     HO23115   8.112   4.390   4.923 -0.2307 -0.5813 -0.3310
17694THY    CA123116   7.978   4.278   4.863 -0.1797  0.2399 -0.2354
17694THY    CA223117   7.860   4.207   4.888  0.2693 -0.5175  0.1612
17694THY    CP123118   7.775   4.237   5.007  0.0512  0.1751  0.0705
17694THY    HP123119   7.805   4.331   5.055  1.9389 -1.5072  0.4015
17694THY    CP223120   7.781   4.136   5.129 -0.2188  0.1535  0.3216
17694THY    HP223121   7.752   4.037   5.094 -2.1842  0.2322  0.8212
17694THY    HP323122   7.712   4.169   5.208  0.3217  0.4233  0.8208
17694THY    HP423123   7.874   4.132   5.187  0.1001 -0.4372 -1.9226
17694THY    CP323124   7.624   4.249   4.967  0.2297 -0.9907 -0.8325
17694THY    HP523125   7.560   4.286   5.048  2.9046  1.7584 -1.8565
17694THY    HP623126   7.587   4.148   4.946  0.7025 -0.8305 -1.0429
17694THY    HP723127   7.618   4.325   4.888  2.6479  0.2496  0.8179
17694THY    CA323128   7.826   4.101   4.804  0.9597 -0.4768  0.3952
17694THY    HA323129   7.740   4.038   4.829 -0.3946 -0.8221  2.0304
17694THY    CA423130   7.899   4.070   4.694 -0.7270  0.3071  0.2161
17694THY    HA423131   7.859   3.999   4.622 -0.2033  0.3606 -0.1428
17694THY    CA523132   8.021   4.139   4.667  0.2592 -0.3706 -0.0734
17694THY    CM123133   8.102   4.093   4.548  0.2891  0.6530  0.4896
17694THY    HM123134   8.192   4.033   4.565  0.0017  0.3107 -0.0463
17694THY    HM223135   8.128   4.182   4.490  0.8552  0.1781  0.0238
17694THY    HM323136   8.041   4.035   4.478 -0.2238  1.9158 -0.5482
17694THY    CA623137   8.058   4.247   4.753  0.6781  0.8861  0.1421
17694THY    HA623138   8.151   4.302   4.740 -0.3557 -1.1094  1.5370
17695THY      O23139   0.339   0.861   5.655  0.3378  0.1161 -0.0634
17695THY     HO23140   0.380   0.780   5.620 -1.7674 -0.1215 -1.1005
17695THY    CA123141   0.434   0.954   5.690  0.8177 -0.1256 -0.2699
17695THY    CA223142   0.406   1.098   5.679 -0.4122 -0.0399  1.0063
17695THY    CP123143   0.265   1.130   5.627  0.4477 -0.6694  0.0167
17695THY    HP123144   0.207   1.042   5.595  0.9677 -0.8815 -0.2512
17695THY    CP223145   0.262   1.216   5.506  0.0706  0.5803 -0.5077
17695THY    HP223146   0.293   1.317   5.534  0.4159  0.5652 -0.6055
17695THY    HP323147   0.160   1.224   5.467 -0.0331  0.2378 -2.7650
17695THY    HP423148   0.324   1.174   5.426 -0.8296 -0.3955 -0.0244
17695THY    CP323149   0.204   1.195   5.744  0.1644 -0.1090 -1.3948
17695THY    HP523150   0.204   1.119   5.823  0.5230  1.9461  0.6343
17695THY    HP623151   0.102   1.227   5.718  0.3173  0.8259 -0.0566
17695THY    HP723152   0.262   1.282   5.776  0.7740  0.8360 -2.1306
17695THY    CA323153   0.508   1.190   5.691  0.1830 -0.1256 -0.1259
17695THY    HA323154   0.502   1.298   5.678  1.3348  0.7390  0.0625
17695THY    CA423155   0.636   1.144   5.730  0.0363 -0.7508 -0.6724
17695THY    HA423156   0.715   1.218   5.739  0.2257  1.3199 -1.0745
17695THY    CA523157   0.662   1.002   5.742 -0.0126 -0.3325 -0.6684
17695THY    CM123158   0.800   0.970   5.782  0.4069  0.4210  1.0168
17695THY    HM123159   0.824   1.017   5.878 -0.4046  2.2618 -1.9993
17695THY    HM223160   0.872   0.985   5.701 -1.1699 -1.4998 -1.1212
17695THY    HM323161   0.803   0.861   5.793 -1.4386 -0.4075  0.8302
17695THY    CA623162   0.561   0.908   5.713 -0.0584  0.2739 -0.5894
17695THY    HA623163   0.580   0.802   5.712 -0.8839  0.4010 -0.7445
17696THY      O23164   3.228   7.583   2.456  0.4736 -0.1883 -0.2690
17696THY     HO23165   3.290   7.612   2.386 -0.5300 -1.0565 -0.1485
17696THY    CA123166   3.260   7.455   2.489  0.0103 -0.1571  0.6080
17696THY    CA223167   3.205   7.395   2.605 -0.8613  0.9987  0.3220
17696THY    CP123168   3.091   7.470   2.672 -0.2003  0.0679 -0.3507
17696THY    HP123169   3.043   7.538   2.600 -1.6974  0.1962 -1.2308
17696THY    CP223170   3.141   7.543   2.800 -0.0271  0.6275 -0.0409
17696THY    HP223171   3.163   7.476   2.884 -0.1381 -0.6487 -1.7185
17696THY    HP323172   3.062   7.617   2.817 -0.0632 -1.7663  0.5361
17696THY    HP423173   3.231   7.604   2.787 -0.1459 -0.9551 -0.1694
17696THY    CP323174   2.971   7.385   2.701 -0.1135 -0.3948  0.2144
17696THY    HP523175   2.977   7.313   2.783  2.1431  0.3676  1.1810
17696THY    HP623176   2.943   7.332   2.609  0.3156 -0.5017  0.1668
17696THY    HP723177   2.897   7.454   2.741  0.4111  2.5316 -0.7762
17696THY    CA323178   3.242   7.262   2.639 -0.3884  0.0863  0.3090
17696THY    HA323179   3.192   7.209   2.719 -0.1976  1.4249  2.0898
17696THY    CA423180   3.337   7.194   2.558  0.3685  0.1288 -0.4024
17696THY    HA423181   3.360   7.090   2.580  1.4655 -0.2369 -0.2456
17696THY    CA523182   3.393   7.255   2.446 -0.4892 -1.2451 -0.4501
17696THY    CM123183   3.475   7.170   2.355  0.4468 -0.3202 -0.5947
17696THY    HM123184   3.521   7.226   2.273 -0.1869  1.1235  2.1998
17696THY    HM223185   3.420   7.084   2.315  2.3838 -0.0900 -2.0032
17696THY    HM323186   3.563   7.132   2.408  0.4942  1.4698  1.8184
17696THY    CA623187   3.345   7.386   2.411  0.0350  0.0411  0.7490
17696THY    HA623188   3.383   7.433   2.321 -0.0097 -0.9608 -1.0318
17697THY      O23189   2.111   2.519   7.038  0.6527  0.0970 -0.3148
17697THY     HO23190   2.050   2.446   7.018  0.0767  2.2105 -0.4740
17697THY    CA123191   2.237   2.494   6.990  0.7315  0.4150 -0.1055
17697THY    CA223192   2.339   2.585   7.011 -0.2014 -0.5710 -0.0740
17697THY    CP123193   2.325   2.718   7.083  0.5031  1.1404 -0.4388
17697THY    HP123194   2.223   2.732   7.123 -0.2998 -1.3256  1.4033
17697THY    CP223195   2.353   2.841   6.996 -0.7523  0.1559 -0.0519
17697THY    HP223196   2.275   2.860   6.921 -1.0804  0.6428  0.5342
17697THY    HP323197   2.443   2.820   6.936  0.7071  2.2165  0.0820
17697THY    HP423198   2.374   2.929   7.056 -0.9476  0.0848  0.0433
17697THY    CP323199   2.422   2.727   7.202  0.0918  1.0440  0.7971
17697THY    HP523200   2.405   2.645   7.273  0.9548 -1.0416 -1.2811
17697THY    HP623201   2.413   2.821   7.257 -1.9000  0.4290  1.0023
17697THY    HP723202   2.529   2.718   7.181 -0.0085  1.1753 -1.0135
17697THY    CA323203   2.463   2.541   6.970  0.4753  0.4556  0.0608
17697THY    HA323204   2.545   2.610   6.983 -0.3018 -0.0512  1.1103
17697THY    CA423205   2.478   2.422   6.904  0.0997 -0.0624 -0.5761
17697THY    HA423206   2.576   2.391   6.871 -0.2415  0.5734 -2.4501
17697THY    CA523207   2.372   2.338   6.880 -0.7221 -0.0841  0.7250
17697THY    CM123208   2.396   2.213   6.813 -0.1122  0.3070 -0.6538
17697THY    HM123209   2.480   2.160   6.860  0.1864 -1.0259 -1.4186
17697THY    HM223210   2.419   2.230   6.707  0.4103  0.6113  0.5901
17697THY    HM323211   2.303   2.155   6.813 -1.1817 -1.7979  0.9474
17697THY    CA623212   2.248   2.373   6.925 -0.1473  0.1580  0.0655
17697THY    HA623213   2.168   2.300   6.921  1.0047 -1.1539 -1.1950
17698THY      O23214   4.538   4.430   7.989 -0.3780  0.0763  0.1842
17698THY     HO23215   4.550   4.526   7.993  1.8400 -0.7981  0.0097
17698THY    CA123216   4.456   4.402   7.885 -0.2264  0.4663  0.0919
17698THY    CA223217   4.457   4.271   7.830 -0.7189 -0.1329  0.1956
17698THY    CP123218   4.556   4.158   7.868  0.3480 -0.3899  0.5585
17698THY    HP123219   4.623   4.184   7.951 -1.9572  2.1545 -0.9937
17698THY    CP223220   4.632   4.111   7.744 -0.6544  0.7638  0.2749
17698THY    HP223221   4.568   4.110   7.655 -0.2056  0.3362  3.0835
17698THY    HP323222   4.672   4.011   7.763 -3.3765  1.3686 -0.7961
17698THY    HP423223   4.714   4.178   7.716 -0.2383 -0.4557 -0.7070
17698THY    CP323224   4.477   4.029   7.914  0.4779  0.4784  0.0455
17698THY    HP523225   4.403   4.008   7.835  0.5432 -0.5457  3.0693
17698THY    HP623226   4.420   4.046   8.006  0.4958  0.5151 -0.0957
17698THY    HP723227   4.544   3.943   7.923 -0.0484  0.4003 -0.3814
17698THY    CA323228   4.362   4.239   7.732 -0.3551 -0.1511  0.6725
17698THY    HA323229   4.350   4.139   7.692 -0.0965  2.2788 -0.3904
17698THY    CA423230   4.282   4.341   7.682  0.0568  0.3398 -0.4098
17698THY    HA423231   4.219   4.323   7.595  0.0950  0.4052 -0.8710
17698THY    CA523232   4.275   4.466   7.747  1.1520  0.0113 -0.0685
17698THY    CM123233   4.164   4.564   7.716  0.6729  0.0879  0.5846
17698THY    HM123234   4.112   4.606   7.803  0.3908 -1.1402  2.9151
17698THY    HM223235   4.096   4.512   7.648 -0.3369  0.3069  1.5866
17698THY    HM323236   4.206   4.642   7.651  1.5394  0.5741  0.5402
17698THY    CA623237   4.361   4.498   7.850  0.4753  0.3063 -0.1125
17698THY    HA623238   4.354   4.590   7.907 -2.2515 -0.1921  0.0826
17699THY      O23239   6.378   6.268   2.195  0.0181 -0.0805 -0.3234
17699THY     HO23240   6.407   6.237   2.107  0.2113 -0.0936 -0.1141
17699THY    CA123241   6.458   6.372   2.214 -0.4871  0.2480 -0.6571
17699THY    CA223242   6.420   6.466   2.304  0.0081 -0.4818  0.0860
17699THY    CP123243   6.289   6.451   2.390 -0.5222 -0.2535  0.1541
17699THY    HP123244   6.230   6.366   2.353  1.5172 -1.4452 -0.8506
17699THY    CP223245   6.208   6.576   2.382  0.2858  0.7570  0.1013
17699THY    HP223246   6.265   6.670   2.392  0.1275 -2.0221  0.5753
17699THY    HP323247   6.136   6.573   2.464  0.5971  1.1366  1.7886
17699THY    HP423248   6.153   6.571   2.287 -1.6351  1.8627 -0.7950
17699THY    CP323249   6.321   6.418   2.542  0.1407 -0.2997  0.5715
17699THY    HP523250   6.231   6.405   2.604  1.0552  0.8865 -0.3564
17699THY    HP623251   6.372   6.510   2.573 -2.0691 -0.0685  1.7997
17699THY    HP723252   6.366   6.320   2.556 -2.5772  1.8737 -0.5044
17699THY    CA323253   6.508   6.572   2.333  0.1742 -0.4108  0.3024
17699THY    HA323254   6.481   6.643   2.410 -0.3288 -0.4006  0.1013
17699THY    CA423255   6.620   6.585   2.253  0.2545  0.1603 -0.4197
17699THY    HA423256   6.688   6.668   2.268  0.0472 -1.2502  0.0334
17699THY    CA523257   6.654   6.499   2.154 -0.4214  0.7897 -0.3326
17699THY    CM123258   6.776   6.518   2.076  0.0012 -0.2608  0.3677
17699THY    HM123259   6.803   6.431   2.016 -2.8644 -2.5562  0.8798
17699THY    HM223260   6.861   6.548   2.138 -0.9913  0.7535  1.1954
17699THY    HM323261   6.756   6.601   2.007  0.3786 -1.9539 -0.8900
17699THY    CA623262   6.575   6.385   2.135 -0.1750 -0.6385  0.1043
17699THY    HA623263   6.609   6.305   2.070 -3.0211 -0.9469 -0.9748
17700THY      O23264   0.588   4.716   3.823  0.0386 -0.2236  0.0991
17700THY     HO23265   0.590   4.756   3.734  0.8117 -0.1252  0.2867
17700THY    CA123266   0.461   4.705   3.864  0.2257 -1.0733  0.8517
17700THY    CA223267   0.426   4.724   4.005 -0.0075  0.0776  0.5379
17700THY    CP123268   0.524   4.774   4.107 -0.8305  0.5780 -0.2841
17700THY    HP123269   0.624   4.761   4.063 -1.7627 -1.6102 -0.5080
17700THY    CP223270   0.543   4.689   4.227 -0.4107 -0.5044  0.2287
17700THY    HP223271   0.459   4.711   4.294 -0.7880 -1.5062  2.0048
17700THY    HP323272   0.644   4.698   4.267 -0.5243 -0.5067  1.8454
17700THY    HP423273   0.533   4.583   4.200  1.0015 -1.0282  0.2178
17700THY    CP323274   0.492   4.923   4.149 -1.2171  0.0092 -0.1792
17700THY    HP523275   0.584   4.963   4.194 -2.4901  1.4504  1.2302
17700THY    HP623276   0.408   4.935   4.218 -0.7173  0.3782  1.4951
17700THY    HP723277   0.463   4.975   4.057  0.3033  0.2916  1.2577
17700THY    CA323278   0.296   4.691   4.041 -0.0354 -0.0985  0.5300
17700THY    HA323279   0.266   4.711   4.144 -0.1690  0.1666 -0.9484
17700THY    CA423280   0.201   4.649   3.948  0.0618 -0.1861 -0.0912
17700THY    HA423281   0.098   4.635   3.981  0.2620  0.1831 -0.7191
17700THY    CA523282   0.232   4.648   3.815 -0.0474  0.8504  0.3557
17700THY    CM123283   0.125   4.618   3.714  0.1683 -0.6970  0.0574
17700THY    HM123284   0.094   4.513   3.711 -1.0061 -0.0486  0.3632
17700THY    HM223285   0.169   4.660   3.623 -0.7014 -1.1207  0.0757
17700THY    HM323286   0.036   4.680   3.730 -0.0510  2.0385 -0.8050
17700THY    CA623287   0.366   4.661   3.772  0.1796 -0.4237 -0.5934
17700THY    HA623288   0.399   4.649   3.669 -0.1726 -0.6229  0.0535
17701THY      O23289   6.607   6.433   5.629  0.0721 -0.1176 -0.5320
17701THY     HO23290   6.635   6.455   5.538 -0.8338 -0.4211 -0.6176
17701THY    CA123291   6.513   6.328   5.626  0.2924 -0.2316 -0.3873
17701THY    CA223292   6.395   6.337   5.705  0.3840 -0.0718 -0.3048
17701THY    CP123293   6.391   6.444   5.813  0.8718 -0.3304  0.3196
17701THY    HP123294   6.497   6.471   5.824  1.0270 -0.1878 -0.3296
17701THY    CP223295   6.320   6.397   5.941  0.2276 -0.0837 -0.1854
17701THY    HP223296   6.343   6.456   6.030 -1.7530 -0.5859  1.4553
17701THY    HP323297   6.349   6.293   5.964  0.6980  1.2320  0.2176
17701THY    HP423298   6.211   6.392   5.934  0.3317 -0.9011 -2.2731
17701THY    CP323299   6.309   6.559   5.766  0.1611 -0.6375  0.1885
17701THY    HP523300   6.286   6.637   5.840 -0.7773 -1.0110  0.2806
17701THY    HP623301   6.208   6.529   5.735  0.0204  0.2240 -0.2700
17701THY    HP723302   6.353   6.613   5.682  2.0061  1.1762  1.6518
17701THY    CA323303   6.285   6.246   5.683  0.1824 -0.6815  0.0834
17701THY    HA323304   6.191   6.269   5.732  0.7241  0.4207 -0.0129
17701THY    CA423305   6.301   6.144   5.590  0.6953  0.6360 -0.3622
17701THY    HA423306   6.222   6.072   5.569  0.9804 -1.3298 -0.1367
17701THY    CA523307   6.415   6.141   5.513  0.6975  0.4692  0.3354
17701THY    CM123308   6.428   6.032   5.405  0.1141 -0.1913 -0.2218
17701THY    HM123309   6.332   6.029   5.353  1.7850 -3.5119  0.0237
17701THY    HM223310   6.461   5.937   5.448 -0.0148 -1.6673 -0.9636
17701THY    HM323311   6.503   6.059   5.331 -1.3308 -1.6702 -0.1071
17701THY    CA623312   6.521   6.232   5.525 -0.1459  0.1751 -0.1895
17701THY    HA623313   6.609   6.208   5.466  0.1178  1.1746 -1.8963
17702THY      O23314   0.915   1.633   4.764  0.2436  0.4066 -0.6693
17702THY     HO23315   0.945   1.708   4.709 -1.0850 -0.1188 -0.4930
17702THY    CA123316   0.782   1.660   4.767 -0.0652  0.3970 -0.2362
17702THY    CA223317   0.693   1.601   4.858  0.8532 -0.2134  0.2251
17702THY    CP123318   0.743   1.480   4.945  0.0336  0.7783 -0.9615
17702THY    HP123319   0.828   1.423   4.906  2.2334  0.4415  2.2100
17702THY    CP223320   0.630   1.384   4.967  0.2778  0.6651  0.4309
17702THY    HP223321   0.675   1.294   5.011  1.2313  0.8366  0.9759
17702THY    HP323322   0.572   1.357   4.878  1.4086 -0.0596  0.3510
17702THY    HP423323   0.557   1.438   5.028 -1.5525 -2.0842  1.2744
17702THY    CP323324   0.801   1.532   5.079  0.2843  0.1510 -0.1455
17702THY    HP523325   0.900   1.578   5.077  0.2895 -1.2988 -0.1692
17702THY    HP623326   0.807   1.446   5.147  0.9068 -0.3728 -0.5220
17702THY    HP723327   0.730   1.604   5.122 -0.3334 -0.8857 -0.1192
17702THY    CA323328   0.554   1.642   4.865 -0.4023  0.3650  0.0520
17702THY    HA323329   0.487   1.605   4.943 -1.2974 -0.2241  0.4044
17702THY    CA423330   0.513   1.737   4.768  0.2781  0.1074 -0.6108
17702THY    HA423331   0.409   1.770   4.762  1.0651 -1.5502  1.8549
17702THY    CA523332   0.604   1.803   4.683 -0.4511  0.5021  0.8801
17702THY    CM123333   0.559   1.920   4.590  0.0036  0.0236  0.3080
17702THY    HM123334   0.519   2.001   4.651 -0.6171 -0.1292  0.1280
17702THY    HM223335   0.474   1.890   4.526 -0.0326 -0.2580  1.0022
17702THY    HM323336   0.634   1.958   4.520 -0.8186  0.2081  2.3657
17702THY    CA623337   0.736   1.761   4.681  0.3028 -0.7498 -0.1256
17702THY    HA623338   0.801   1.803   4.606 -1.4945 -1.1365  2.1538
17703THY      O23339   7.750   6.492   2.218 -0.0888 -0.1296 -0.0578
17703THY     HO23340   7.771   6.471   2.125 -1.8132 -0.4978 -0.2329
17703THY    CA123341   7.673   6.603   2.217 -0.4602 -0.0339  0.1133
17703THY    CA223342   7.655   6.682   2.331 -0.2191  0.4904 -0.1193
17703THY    CP123343   7.733   6.652   2.459 -0.2135 -0.3788 -0.2873
17703THY    HP123344   7.786   6.557   2.443 -0.7444  2.6439 -1.1838
17703THY    CP223345   7.638   6.629   2.575 -0.1252  0.2662  0.1147
17703THY    HP223346   7.591   6.724   2.604  0.8656 -2.0288  1.3856
17703THY    HP323347   7.688   6.588   2.664  0.4270  0.1960  0.6143
17703THY    HP423348   7.554   6.564   2.547 -1.1841 -1.4187  2.1081
17703THY    CP323349   7.847   6.756   2.496  0.1073  0.3896 -0.6154
17703THY    HP523350   7.909   6.759   2.406 -0.3310  0.0925 -0.1763
17703THY    HP623351   7.909   6.737   2.584 -0.6292  1.5065  1.7742
17703THY    HP723352   7.792   6.851   2.505  2.0662 -0.2737  0.6399
17703THY    CA323353   7.561   6.790   2.324 -0.7103  0.2683  0.8186
17703THY    HA323354   7.537   6.849   2.412 -1.2717  0.7874 -0.1609
17703THY    CA423355   7.503   6.822   2.206 -0.2339 -0.5998  0.1878
17703THY    HA423356   7.421   6.892   2.211 -0.1021 -1.1389  0.3808
17703THY    CA523357   7.533   6.752   2.081 -0.0785 -0.0790  0.0848
17703THY    CM123358   7.450   6.792   1.960  0.0988  0.6604 -0.1401
17703THY    HM123359   7.373   6.868   1.984  1.1895  1.8241  0.6438
17703THY    HM223360   7.410   6.704   1.908  1.0644  2.8380 -1.9762
17703THY    HM323361   7.521   6.832   1.888  0.6785  0.7168 -1.0405
17703THY    CA623362   7.615   6.639   2.088 -0.1959  0.0105 -0.1104
17703THY    HA623363   7.643   6.585   1.998  2.9010 -0.2833  1.7476
17704THY      O23364   0.676   1.157   2.282  0.3133  0.2018 -0.0072
17704THY     HO23365   0.642   1.248   2.279 -2.0515  1.5444 -0.7708
17704THY    CA123366   0.599   1.078   2.197  0.6414 -0.3372  0.6587
17704THY    CA223367   0.644   0.952   2.154 -0.3628 -0.0766 -0.3608
17704THY    CP123368   0.776   0.901   2.204 -0.1234  0.2326 -0.5085
17704THY    HP123369   0.814   0.971   2.280 -1.9245 -0.1676  0.9933
17704THY    CP223370   0.869   0.887   2.086  0.0602  0.5372 -0.1563
17704THY    HP223371   0.829   0.807   2.022  1.7286 -0.9816  0.1444
17704THY    HP323372   0.966   0.857   2.128 -0.1268  1.3107  0.3058
17704THY    HP423373   0.876   0.984   2.034 -0.0234 -1.5034 -1.1898
17704THY    CP323374   0.770   0.774   2.278 -0.2692  0.1448 -0.2995
17704THY    HP523375   0.683   0.776   2.346  0.1508  0.6911 -0.3018
17704THY    HP623376   0.858   0.767   2.343 -0.7438  1.3527  2.8983
17704THY    HP723377   0.747   0.686   2.218  1.3995 -1.4534  0.3001
17704THY    CA323378   0.564   0.865   2.080  0.0658 -0.0513  0.0662
17704THY    HA323379   0.606   0.773   2.042 -1.1675 -1.4502  0.0534
17704THY    CA423380   0.435   0.902   2.044  0.1455 -0.0824  0.2006
17704THY    HA423381   0.379   0.840   1.974 -1.5165 -0.1913  1.7287
17704THY    CA523382   0.388   1.029   2.081  0.1283 -0.6499  0.4160
17704THY    CM123383   0.262   1.077   2.027  1.5458  0.4307 -0.5273
17704THY    HM123384   0.183   1.039   2.093  1.1725  1.4271  1.7706
17704THY    HM223385   0.249   1.044   1.924  0.9225 -0.4435  2.2041
17704THY    HM323386   0.256   1.186   2.036 -0.7112 -1.3812 -0.4248
17704THY    CA623387   0.467   1.115   2.161  0.2733 -0.6465  0.0686
17704THY    HA623388   0.428   1.207   2.204  3.3485  1.4748  0.5062
17705THY      O23389   4.962   6.221   6.826  0.1325 -0.8287 -0.0373
17705THY     HO23390   4.945   6.129   6.800 -2.0705  0.2889  0.0053
17705THY    CA123391   4.898   6.246   6.947 -0.5761 -0.5625  0.4524
17705THY    CA223392   4.928   6.362   7.028  0.2768 -0.4376  0.2078
17705THY    CP123393   5.031   6.464   6.970 -0.2020 -1.0476  0.0907
17705THY    HP123394   5.093   6.426   6.889 -0.5737 -0.6002 -1.5478
17705THY    CP223395   5.140   6.496   7.074  0.0867 -0.0783  0.6397
17705THY    HP223396   5.210   6.412   7.084  0.2371 -1.8215  0.5154
17705THY    HP323397   5.108   6.513   7.178 -1.8760 -0.7485  1.3205
17705THY    HP423398   5.195   6.586   7.043 -0.5876  2.1725  1.9129
17705THY    CP323399   4.958   6.587   6.922  0.2268  0.4186 -0.2858
17705THY    HP523400   4.881   6.625   6.990  0.9029  0.5826  0.8471
17705THY    HP623401   4.907   6.569   6.826 -3.6508  2.1992  0.1533
17705THY    HP723402   5.028   6.670   6.903 -0.1596 -2.0456 -0.4357
17705THY    CA323403   4.869   6.369   7.154  0.4322 -1.4006 -0.3703
17705THY    HA323404   4.904   6.447   7.222 -1.4150  1.2767 -1.7071
17705THY    CA423405   4.777   6.269   7.191  0.0712 -0.7111  0.3172
17705THY    HA423406   4.746   6.269   7.296 -0.2028 -0.7730 -1.1060
17705THY    CA523407   4.737   6.160   7.112  0.0193  0.8381  0.2773
17705THY    CM123408   4.629   6.063   7.143  0.2798 -0.2833  0.6297
17705THY    HM123409   4.570   6.095   7.230 -1.0819 -1.4814  1.5264
17705THY    HM223410   4.659   5.963   7.176 -0.4470 -0.1361  0.4510
17705THY    HM323411   4.554   6.049   7.064 -0.6988  0.3146  2.2428
17705THY    CA623412   4.795   6.159   6.983 -1.1739  0.1033  0.0501
17705THY    HA623413   4.769   6.079   6.914 -1.0129 -1.0249  0.9421
17706THY      O23414   3.274   1.714   4.666 -0.2475  0.3208  0.0036
17706THY     HO23415   3.284   1.647   4.736 -2.0859  1.8220  1.1894
17706THY    CA123416   3.338   1.678   4.550  0.1349  0.4042 -0.4056
17706THY    CA223417   3.424   1.769   4.482  0.7229  0.2978  0.6407
17706THY    CP123418   3.449   1.904   4.543  0.2533  0.2291 -0.1343
17706THY    HP123419   3.385   1.928   4.629  0.8385  0.7844 -0.5228
17706THY    CP223420   3.430   2.014   4.436  0.1842 -0.1915  0.2343
17706THY    HP223421   3.507   2.000   4.359  1.4654  0.7484  1.7511
17706THY    HP323422   3.432   2.111   4.487  2.0005 -2.1420  1.3192
17706THY    HP423423   3.333   1.993   4.388  0.3453 -0.0770 -0.7975
17706THY    CP323424   3.597   1.909   4.590  0.3461  0.1906 -0.2129
17706THY    HP523425   3.616   2.009   4.631 -1.2921 -1.2219  0.7409
17706THY    HP623426   3.671   1.900   4.510  0.2152 -0.2533  2.0116
17706THY    HP723427   3.608   1.829   4.664 -1.8912 -0.9156 -1.6335
17706THY    CA323428   3.476   1.724   4.362 -0.0138 -0.2072 -0.4126
17706THY    HA323429   3.546   1.787   4.306 -0.4933 -0.3058  0.0401
17706THY    CA423430   3.449   1.603   4.308  0.6252  0.0639 -0.2478
17706THY    HA423431   3.499   1.577   4.216 -1.0268 -1.1018  0.5291
17706THY    CA523432   3.361   1.515   4.378 -0.4345 -0.3026  0.6144
17706THY    CM123433   3.329   1.382   4.319 -0.4899 -0.5692  0.0710
17706THY    HM123434   3.220   1.375   4.332 -0.3351  2.6252  1.8489
17706THY    HM223435   3.391   1.309   4.372 -1.0029  0.8078  0.6029
17706THY    HM323436   3.367   1.374   4.216 -0.5053 -0.4729 -1.3839
17706THY    CA623437   3.311   1.556   4.500  0.0810 -0.4252  0.1357
17706THY    HA623438   3.251   1.493   4.564  1.2412 -0.4453 -1.0432
17707THY      O23439   5.881   8.440   8.081 -0.8866  0.0393  0.2881
17707THY     HO23440   5.786   8.420   8.075 -0.4109 -2.1367 -1.6566
17707THY    CA123441   5.930   8.463   7.953  0.8861 -0.8062  0.1349
17707THY    CA223442   6.054   8.513   7.923 -0.0264  0.6524 -0.5438
17707THY    CP123443   6.157   8.503   8.029 -0.1191  0.0595 -0.2282
17707THY    HP123444   6.118   8.479   8.129 -0.7313 -0.1078  0.0510
17707THY    CP223445   6.227   8.636   8.060 -0.6266  0.8386 -0.2021
17707THY    HP223446   6.277   8.641   8.157  0.6140  0.2463 -0.6905
17707THY    HP323447   6.154   8.717   8.072 -0.5491 -0.8904  0.1736
17707THY    HP423448   6.286   8.676   7.976  0.3713  1.3178 -0.6322
17707THY    CP323449   6.256   8.391   8.003 -0.0424 -0.1394 -0.4189
17707THY    HP523450   6.322   8.383   8.090 -0.5357  0.1847 -0.9965
17707THY    HP623451   6.317   8.415   7.915  1.8871  1.7426  2.1713
17707THY    HP723452   6.215   8.290   7.998  1.8838  0.7748 -1.3059
17707THY    CA323453   6.090   8.533   7.788 -0.4040  0.3019 -0.2460
17707THY    HA323454   6.190   8.568   7.765  0.4016  1.4978 -1.6356
17707THY    CA423455   5.988   8.517   7.692 -0.4903  0.6739  0.4299
17707THY    HA423456   6.011   8.539   7.588  0.2691  0.7302 -0.0977
17707THY    CA523457   5.862   8.472   7.724 -0.1035 -0.3565 -0.1245
17707THY    CM123458   5.762   8.457   7.609 -0.4206  0.3070  1.2858
17707THY    HM123459   5.800   8.413   7.516 -1.4724  0.1748  0.6144
17707THY    HM223460   5.713   8.554   7.597 -0.3459  2.1102  1.5939
17707THY    HM323461   5.683   8.384   7.629  0.1208 -1.4112  0.1586
17707THY    CA623462   5.833   8.440   7.853  0.0589  0.2788 -0.1055
17707THY    HA623463   5.737   8.396   7.878 -0.7942  3.2621  3.0637
17708THY      O23464   0.978   5.680   7.267  0.2790 -0.0350 -0.0625
17708THY     HO23465   0.931   5.702   7.350 -0.7211 -1.0076  1.6838
17708THY    CA123466   1.001   5.793   7.190 -0.0287 -0.4002 -0.3488
17708THY    CA223467   0.991   5.782   7.056 -0.1256  0.1507  0.0893
17708THY    CP123468   0.949   5.649   6.986 -0.5158  0.4665 -0.1454
17708THY    HP123469   0.918   5.576   7.062  2.7873  1.1910 -0.9580
17708THY    CP223470   1.068   5.586   6.904 -0.2262 -0.4495 -0.1807
17708THY    HP223471   1.038   5.487   6.867 -0.0179  0.0573 -0.4351
17708THY    HP323472   1.153   5.572   6.971 -2.1973  2.1845 -0.4158
17708THY    HP423473   1.069   5.650   6.815 -2.3524 -0.7713 -0.5075
17708THY    CP323474   0.824   5.680   6.900 -0.2120 -0.2861 -0.2022
17708THY    HP523475   0.856   5.753   6.824  0.1928  1.0407  1.0471
17708THY    HP623476   0.752   5.731   6.964  2.7936  1.6996  1.8385
17708THY    HP723477   0.779   5.592   6.853 -0.9174  1.9205 -1.0627
17708THY    CA323478   1.034   5.896   6.986 -0.0288 -0.0100  0.1559
17708THY    HA323479   1.043   5.893   6.877  0.8594 -0.0322  2.1029
17708THY    CA423480   1.084   6.014   7.051  0.3303 -0.4690 -0.0522
17708THY    HA423481   1.122   6.095   6.990  0.2545 -2.6539 -1.5666
17708THY    CA523482   1.097   6.011   7.190 -0.0565 -0.4144 -0.3727
17708THY    CM123483   1.163   6.128   7.263 -0.5296 -0.0189 -0.1571
17708THY    HM123484   1.144   6.230   7.229  0.4071  1.6080  0.5963
17708THY    HM223485   1.270   6.113   7.243 -0.3947 -1.1532  1.9325
17708THY    HM323486   1.144   6.118   7.370  2.4670  0.5327 -0.8030
17708THY    CA623487   1.049   5.898   7.259 -0.0545 -0.0594 -0.5310
17708THY    HA623488   1.064   5.891   7.366  0.6473 -0.0641  0.6283
17709THY      O23489   6.414   1.180   5.495  0.0146 -0.8554  0.4221
17709THY     HO23490   6.501   1.210   5.464  0.2791  0.2932  0.9031
17709THY    CA123491   6.328   1.194   5.400  0.2198  0.0837 -0.0004
17709THY    CA223492   6.184   1.193   5.419 -0.5954  0.8354 -0.0896
17709THY    CP123493   6.134   1.156   5.560  0.3983 -0.9483 -0.3806
17709THY    HP123494   6.182   1.219   5.637  0.7104 -1.1899 -0.3173
17709THY    CP223495   6.172   1.019   5.608  1.0621  0.3419  0.5578
17709THY    HP223496   6.148   0.994   5.712  3.5920  0.7916 -0.3294
17709THY    HP323497   6.281   1.010   5.609  0.9942 -0.5515 -0.7595
17709THY    HP423498   6.129   0.941   5.543 -2.8217  0.8629  2.0206
17709THY    CP323499   5.984   1.178   5.580 -0.5777 -0.2104 -0.4575
17709THY    HP523500   5.945   1.167   5.682 -3.5753 -1.0706  1.0317
17709THY    HP623501   5.920   1.124   5.509 -0.8854 -1.0058  0.8930
17709THY    HP723502   5.948   1.280   5.561 -0.8565  2.5164  0.0223
17709THY    CA323503   6.100   1.222   5.306 -0.0367 -0.6229  0.5235
17709THY    HA323504   5.992   1.225   5.312  0.0181  1.3459 -0.0197
17709THY    CA423505   6.155   1.223   5.178 -0.8081  0.7791  0.9101
17709THY    HA423506   6.094   1.246   5.091 -0.6394  0.6584  0.8967
17709THY    CA523507   6.299   1.213   5.157 -0.4704 -0.5051  0.4938
17709THY    CM123508   6.368   1.214   5.024 -0.6054 -0.2315 -0.5785
17709THY    HM123509   6.417   1.311   5.012 -1.8844  0.0444  0.1208
17709THY    HM223510   6.287   1.200   4.951  0.3484 -1.2995 -0.6825
17709THY    HM323511   6.431   1.124   5.016 -0.7358 -1.3511 -0.5902
17709THY    CA623512   6.384   1.205   5.272 -0.2208 -0.6652  0.7648
17709THY    HA623513   6.490   1.213   5.249 -0.3269 -1.7485 -0.5342
17710THY      O23514   9.065   3.005   7.286 -0.3927 -0.1985  0.2304
17710THY     HO23515   9.132   2.959   7.339 -2.6912  2.5745 -0.2320
17710THY    CA123516   9.019   2.924   7.185  0.0737  0.0576 -0.1032
17710THY    CA223517   8.920   2.963   7.087 -0.3399 -0.2675 -1.1307
17710THY    CP123518   8.872   3.113   7.101  0.4026 -0.5337  0.2783
17710THY    HP123519   8.929   3.171   7.175  2.7834  0.0885 -2.5883
17710THY    CP223520   8.728   3.110   7.155  0.0431  0.7260 -0.2093
17710THY    HP223521   8.667   3.055   7.083  2.1222 -1.4924  0.2105
17710THY    HP323522   8.699   3.216   7.159  2.2812 -2.1987  0.6696
17710THY    HP423523   8.726   3.070   7.257 -0.7072  1.4169  1.4713
17710THY    CP323524   8.888   3.184   6.967  0.0377  0.0876  0.0129
17710THY    HP523525   8.825   3.135   6.892 -1.5859 -0.4910  2.7594
17710THY    HP623526   8.992   3.191   6.932  0.0148  0.0646  0.2781
17710THY    HP723527   8.848   3.286   6.975 -2.1791 -0.7567 -0.7466
17710THY    CA323528   8.875   2.870   6.991  0.5710 -0.7908 -0.6802
17710THY    HA323529   8.805   2.899   6.912 -0.6223  0.4507 -0.0557
17710THY    CA423530   8.923   2.740   6.996  0.3346 -0.6943 -0.0370
17710THY    HA423531   8.892   2.667   6.922  0.9925 -1.4536  0.4319
17710THY    CA523532   9.028   2.709   7.079  0.2024 -0.0284 -0.1227
17710THY    CM123533   9.083   2.567   7.072 -0.3209 -0.4618 -0.3088
17710THY    HM123534   9.016   2.498   7.019 -2.9811  2.9615 -0.6220
17710THY    HM223535   9.102   2.524   7.171  0.1455  0.1706  1.2853
17710THY    HM323536   9.184   2.570   7.031  0.5578  1.6227  0.7223
17710THY    CA623537   9.072   2.798   7.175 -0.2656  0.3041 -0.1976
17710THY    HA623538   9.153   2.771   7.242 -1.9714  1.5859 -2.6954
17711THY      O23539   4.850   5.082   4.388 -0.4285 -0.2739  0.4989
17711THY     HO23540   4.909   5.130   4.326  1.6982  1.6836  0.5976
17711THY    CA123541   4.886   4.953   4.386  0.4238 -0.8189 -0.4700
17711THY    CA223542   4.841   4.866   4.483 -0.4389  0.1710  0.1727
17711THY    CP123543   4.752   4.919   4.593 -0.3667  0.3069  0.8787
17711THY    HP123544   4.746   5.029   4.591 -0.6642 -0.9705  0.8553
17711THY    CP223545   4.804   4.871   4.729  0.1390 -0.7918 -0.5321
17711THY    HP223546   4.757   4.939   4.801 -1.9477 -1.6347 -1.0087
17711THY    HP323547   4.914   4.878   4.732  0.1005  1.4321  0.0841
17711THY    HP423548   4.789   4.763   4.740 -0.3041 -0.4732 -0.4405
17711THY    CP323549   4.610   4.875   4.563 -0.3591  0.0127  0.3112
17711THY    HP523550   4.582   4.907   4.462 -1.9523  0.7418  1.3438
17711THY    HP623551   4.531   4.916   4.627  1.3362  1.4214  1.4824
17711THY    HP723552   4.603   4.765   4.571  1.4301 -0.1141  0.1649
17711THY    CA323553   4.879   4.733   4.485  0.0319 -0.4243  0.1658
17711THY    HA323554   4.839   4.671   4.565  1.4894  1.8127  1.9377
17711THY    CA423555   4.960   4.685   4.380  0.5318 -0.1999  0.0338
17711THY    HA423556   4.986   4.580   4.367 -0.4562 -2.3429 -0.0135
17711THY    CA523557   5.006   4.770   4.284 -1.1566  0.4809 -0.3224
17711THY    CM123558   5.100   4.725   4.177 -0.1722  0.2021  0.5632
17711THY    HM123559   5.203   4.748   4.204 -0.3384  0.0178  1.5797
17711THY    HM223560   5.081   4.769   4.078  0.8489 -0.3956 -0.2856
17711THY    HM323561   5.102   4.616   4.166 -3.1971 -0.8966  0.5034
17711THY    CA623562   4.969   4.906   4.285 -0.3202 -0.2410  0.5575
17711THY    HA623563   5.009   4.970   4.208  2.3260  1.7022  1.4116
17712THY      O23564   6.426   4.780   6.214 -0.2762  0.3652  0.3288
17712THY     HO23565   6.432   4.698   6.266 -1.4089  0.9283  0.5915
17712THY    CA123566   6.299   4.775   6.172 -0.2826 -0.0194  1.0678
17712THY    CA223567   6.232   4.889   6.146 -0.4832  0.0468 -0.2577
17712THY    CP123568   6.302   5.024   6.172 -0.3620  0.5948  0.1693
17712THY    HP123569   6.412   5.021   6.176 -0.2927 -0.4984  0.6924
17712THY    CP223570   6.254   5.069   6.314 -0.4309  0.8430 -0.1682
17712THY    HP223571   6.316   5.147   6.359  0.4391 -1.3549  0.4923
17712THY    HP323572   6.274   4.990   6.387  0.7010  1.1611  0.3983
17712THY    HP423573   6.148   5.096   6.302 -0.1054 -0.6511  0.5693
17712THY    CP323574   6.266   5.131   6.068 -0.3268  0.5019  0.5226
17712THY    HP523575   6.305   5.103   5.969  0.4733  1.1126 -0.5573
17712THY    HP623576   6.320   5.223   6.095  0.4373  2.3416 -0.4310
17712THY    HP723577   6.160   5.155   6.059  0.0705 -2.1718  1.6826
17712THY    CA323578   6.096   4.875   6.107 -0.5695 -0.0005  0.2114
17712THY    HA323579   6.032   4.960   6.086 -1.7303  0.2625 -0.5708
17712THY    CA423580   6.037   4.748   6.087 -0.1633  0.3352  0.3362
17712THY    HA423581   5.937   4.736   6.045 -0.3763  1.0949 -0.6644
17712THY    CA523582   6.111   4.636   6.117  0.4179  0.0331  0.0286
17712THY    CM123583   6.050   4.499   6.108  0.1995 -0.1455  0.7230
17712THY    HM123584   5.950   4.497   6.151 -2.3616 -5.2787  0.6637
17712THY    HM223585   6.107   4.426   6.167  1.3738  0.0378  1.7624
17712THY    HM323586   6.049   4.458   6.006  1.3775  0.2065 -0.2539
17712THY    CA623587   6.244   4.650   6.157  0.0624  0.2894  0.1781
17712THY    HA623588   6.308   4.562   6.163  2.2762 -4.8065  1.0385
17713THY      O23589   0.322   1.100   4.591  0.1234  0.7143  0.3765
17713THY     HO23590   0.279   1.075   4.674  1.7482  1.3383 -0.4436
17713THY    CA123591   0.432   1.014   4.585  0.1118 -0.0876 -0.4031
17713THY    CA223592   0.466   0.935   4.471 -0.4070 -0.1325 -0.2583
17713THY    CP123593   0.382   0.941   4.343  0.2082  0.5091 -0.3790
17713THY    HP123594   0.285   0.985   4.371 -0.2428 -0.2727 -0.8499
17713THY    CP223595   0.351   0.796   4.293 -0.2097 -0.1554  0.1032
17713THY    HP223596   0.314   0.730   4.373  2.0723 -0.5819 -1.8229
17713THY    HP323597   0.436   0.746   4.244 -0.6357 -0.6048 -0.1886
17713THY    HP423598   0.272   0.801   4.217  0.3425 -0.8242 -0.9855
17713THY    CP323599   0.432   1.034   4.234  0.8617  0.7712  0.0238
17713THY    HP523600   0.526   1.005   4.184 -0.6536 -3.5660  1.7904
17713THY    HP623601   0.444   1.126   4.292  0.2953  1.7601 -0.5167
17713THY    HP723602   0.354   1.034   4.157 -0.2528  1.8776  0.1998
17713THY    CA323603   0.586   0.853   4.485 -0.3488 -0.3579  0.7293
17713THY    HA323604   0.616   0.801   4.395 -1.8621 -0.3245 -0.2466
17713THY    CA423605   0.665   0.859   4.599 -0.1244  0.0759  0.1745
17713THY    HA423606   0.762   0.809   4.597  0.3899 -1.4676  1.1572
17713THY    CA523607   0.624   0.935   4.709  0.1680  0.6832  0.1021
17713THY    CM123608   0.719   0.945   4.822  0.4978  0.1335 -0.1795
17713THY    HM123609   0.698   1.034   4.883  2.0166 -1.5815  1.4639
17713THY    HM223610   0.824   0.931   4.796  0.4757  0.2757 -0.6085
17713THY    HM323611   0.699   0.862   4.890  2.3657 -0.0050 -0.7790
17713THY    CA623612   0.511   1.012   4.703  0.1567 -0.3455 -0.0261
17713THY    HA623613   0.491   1.092   4.773 -0.9749  0.0812 -0.6464
17714THY      O23614   8.509   4.061   3.628  0.3028 -0.1130  0.6915
17714THY     HO23615   8.577   4.061   3.558  0.8851  0.4319  0.4630
17714THY    CA123616   8.395   4.114   3.592  0.0453 -0.3762 -0.8148
17714THY    CA223617   8.269   4.080   3.648  0.0627  0.6408  0.1536
17714THY    CP123618   8.266   3.980   3.765  0.1089 -0.1651 -0.3914
17714THY    HP123619   8.347   4.014   3.830 -0.9958  1.1743 -0.2525
17714THY    CP223620   8.314   3.837   3.720 -0.0929  0.4076 -0.6007
17714THY    HP223621   8.402   3.842   3.654  1.8936  2.8347 -1.7098
17714THY    HP323622   8.233   3.788   3.664  0.2081  0.4123 -1.1083
17714THY    HP423623   8.344   3.781   3.809  0.7800  0.5428  0.0538
17714THY    CP323624   8.134   3.967   3.845 -0.3388 -0.2324 -0.3075
17714THY    HP523625   8.053   3.975   3.771  0.0097 -0.6534 -0.5992
17714THY    HP623626   8.133   4.045   3.922  0.0181  0.0922 -0.6229
17714THY    HP723627   8.125   3.877   3.906 -0.4223  0.2099 -0.0000
17714THY    CA323628   8.156   4.141   3.593 -0.5032 -0.2705 -0.3600
17714THY    HA323629   8.055   4.113   3.622 -1.3592 -1.0959  1.6520
17714THY    CA423630   8.164   4.242   3.495 -0.4854 -0.8253 -0.6827
17714THY    HA423631   8.078   4.299   3.459  0.4818  0.7346  1.9267
17714THY    CA523632   8.293   4.285   3.457  0.2571 -0.7664 -0.3661
17714THY    CM123633   8.296   4.394   3.356  0.5142 -0.0998 -0.4689
17714THY    HM123634   8.224   4.469   3.390 -0.0497 -0.3827 -0.8696
17714THY    HM223635   8.259   4.357   3.259  0.4602 -0.3563  0.2386
17714THY    HM323636   8.399   4.431   3.365  0.6860  0.7803 -1.1386
17714THY    CA623637   8.408   4.217   3.499  0.7222 -0.2851  0.3399
17714THY    HA623638   8.506   4.248   3.465  1.7881  0.7249 -1.7199
17715THY      O23639   4.407   4.605   3.875  0.3984  0.3570 -0.5405
17715THY     HO23640   4.441   4.553   3.800 -1.6432 -0.5345 -0.6876
17715THY    CA123641   4.514   4.652   3.937  0.7481  0.4724  0.4448
17715THY    CA223642   4.515   4.709   4.066 -0.0687  0.3793 -0.3821
17715THY    CP123643   4.388   4.716   4.146 -0.3049  0.8800 -0.0341
17715THY    HP123644   4.309   4.643   4.122 -0.8171  1.2492  0.3834
17715THY    CP223645   4.331   4.855   4.152  0.2640  0.2528  0.1425
17715THY    HP223646   4.235   4.850   4.205 -1.5405 -2.5394  2.1242
17715THY    HP323647   4.306   4.886   4.050  0.5814  0.3227  0.6409
17715THY    HP423648   4.397   4.919   4.211 -0.3258  0.7329  0.3123
17715THY    CP323649   4.427   4.668   4.287  0.1669  0.2633  0.2945
17715THY    HP523650   4.452   4.561   4.292 -0.4150  1.0707  0.1890
17715THY    HP623651   4.337   4.679   4.348  0.9898  1.3550  1.2117
17715THY    HP723652   4.507   4.724   4.336 -1.0861  2.1884  0.5046
17715THY    CA323653   4.633   4.766   4.110  0.5153  0.2653 -0.5925
17715THY    HA323654   4.640   4.816   4.205 -0.2400 -0.5178  1.0653
17715THY    CA423655   4.743   4.771   4.025  0.3151  0.4151 -0.1730
17715THY    HA423656   4.835   4.826   4.046  1.3498  0.3517 -1.8053
17715THY    CA523657   4.743   4.713   3.904 -0.2443 -0.2330  0.0653
17715THY    CM123658   4.855   4.724   3.810  0.8244  0.3026 -0.4117
17715THY    HM123659   4.852   4.816   3.751  2.0674  1.8453  0.6819
17715THY    HM223660   4.853   4.637   3.743 -0.6746 -1.3069  0.8064
17715THY    HM323661   4.945   4.731   3.873  0.7755  0.1851  1.7024
17715THY    CA623662   4.627   4.654   3.853 -0.5550 -1.0331  0.3620
17715THY    HA623663   4.626   4.616   3.751  2.2779 -0.2273 -2.2985
17716THY      O23664   1.668   5.117   5.279  0.1707 -0.6587 -0.6216
17716THY     HO23665   1.648   5.206   5.311  0.0856 -0.4871 -0.7026
17716THY    CA123666   1.801   5.092   5.302 -0.2754  0.5455  0.1469
17716THY    CA223667   1.856   4.967   5.290  0.3398  0.3617  0.5460
17716THY    CP123668   1.789   4.841   5.264  0.2172 -0.0889 -0.0094
17716THY    HP123669   1.682   4.861   5.278  0.7827  1.4343  2.2280
17716THY    CP223670   1.813   4.723   5.364 -0.6457  0.3743  0.0601
17716THY    HP223671   1.810   4.763   5.466 -0.5365  0.3153  0.2203
17716THY    HP323672   1.910   4.677   5.342 -0.7581  0.3148 -0.1521
17716THY    HP423673   1.731   4.650   5.371  0.7089 -0.5036 -1.6352
17716THY    CP323674   1.822   4.790   5.124 -0.1952  0.0619 -0.2075
17716THY    HP523675   1.763   4.704   5.089 -0.1118 -1.1668  0.2069
17716THY    HP623676   1.927   4.758   5.124 -0.8153 -1.0649 -2.4278
17716THY    HP723677   1.802   4.872   5.053  0.5813  1.5259  1.2962
17716THY    CA323678   1.993   4.961   5.285 -0.3922  0.4933  0.0724
17716THY    HA323679   2.036   4.863   5.270 -1.3285  2.8073 -0.7597
17716THY    CA423680   2.076   5.066   5.323 -0.1114  0.2956  0.1099
17716THY    HA423681   2.182   5.065   5.302 -0.5554 -2.7415  2.2217
17716THY    CA523682   2.019   5.190   5.349  0.2683  0.2348 -0.1354
17716THY    CM123683   2.106   5.302   5.397  0.8271  0.4103 -0.0345
17716THY    HM123684   2.157   5.276   5.491  2.5722 -0.8733 -1.5161
17716THY    HM223685   2.050   5.395   5.414  0.6773  1.1649 -0.2556
17716THY    HM323686   2.185   5.335   5.329 -0.5949 -2.0402 -1.3443
17716THY    CA623687   1.880   5.201   5.332 -0.6336 -0.4488  0.6054
17716THY    HA623688   1.825   5.290   5.360 -1.5829 -0.5527  0.0635
17717THY      O23689   4.807   8.321   4.837  0.3414  0.0205  0.3603
17717THY     HO23690   4.746   8.247   4.858 -0.7238 -0.1171  1.1761
17717THY    CA123691   4.936   8.269   4.832  0.5373 -0.5791  1.3545
17717THY    CA223692   5.049   8.332   4.775 -0.4536  0.1024  0.4596
17717THY    CP123693   5.032   8.471   4.716  0.7671 -1.1583 -0.6803
17717THY    HP123694   4.986   8.536   4.791  2.6395 -2.1687  1.9575
17717THY    CP223695   4.943   8.475   4.597  0.7608 -0.0249 -0.5522
17717THY    HP223696   4.983   8.424   4.509  1.2751 -0.2540  0.2366
17717THY    HP323697   4.910   8.576   4.568  2.2013  1.1187  0.2913
17717THY    HP423698   4.853   8.422   4.631  1.2602  0.8359 -0.8842
17717THY    CP323699   5.165   8.541   4.688  0.2632 -0.2176  0.1984
17717THY    HP523700   5.155   8.640   4.644  1.5283 -0.4706  0.2366
17717THY    HP623701   5.229   8.491   4.613 -1.1326 -1.4438  0.2073
17717THY    HP723702   5.226   8.563   4.777  3.3624 -2.5305  1.7715
17717THY    CA323703   5.167   8.263   4.776  0.2472 -0.1101 -0.0964
17717THY    HA323704   5.262   8.295   4.734 -1.0390 -2.3538  1.0404
17717THY    CA423705   5.180   8.128   4.828 -0.0570  0.4984  0.2791
17717THY    HA423706   5.276   8.079   4.836 -0.0572 -1.4254 -0.0984
17717THY    CA523707   5.061   8.064   4.871 -0.0245 -0.1632 -0.0208
17717THY    CM123708   5.049   7.923   4.911 -0.5203 -0.0701  0.0146
17717THY    HM123709   5.083   7.906   5.014  1.9303 -0.0058  3.9325
17717THY    HM223710   5.112   7.846   4.866  0.2906 -0.1401  0.7014
17717THY    HM323711   4.946   7.887   4.917 -0.7014  1.1699  0.6839
17717THY    CA623712   4.944   8.137   4.873  0.8120  0.1189  0.1543
17717THY    HA623713   4.849   8.090   4.896 -0.3190 -2.8576  0.6973
17718THY      O23714   8.841   5.370   5.131 -0.6605  0.4507  0.4012
17718THY     HO23715   8.928   5.410   5.110 -0.6215  0.0232  0.0971
17718THY    CA123716   8.836   5.343   5.260  0.1206  0.8778  0.3091
17718THY    CA223717   8.721   5.337   5.335 -0.1857 -0.8153 -0.3098
17718THY    CP123718   8.588   5.377   5.276  0.5028  0.3564 -0.2399
17718THY    HP123719   8.588   5.360   5.168  0.1303  0.4536 -0.8815
17718THY    CP223720   8.561   5.523   5.300 -0.6183 -0.5133 -0.1909
17718THY    HP223721   8.562   5.534   5.409  0.9529 -0.5203  0.0388
17718THY    HP323722   8.470   5.563   5.254  0.4143 -1.7588  0.8443
17718THY    HP423723   8.643   5.587   5.264 -0.9523 -0.5459  0.2251
17718THY    CP323724   8.472   5.288   5.328  0.1098  0.2704 -0.2039
17718THY    HP523725   8.390   5.293   5.255 -0.4695  0.5330 -3.4642
17718THY    HP623726   8.445   5.298   5.434 -0.7532 -0.0129  0.5937
17718THY    HP723727   8.505   5.185   5.311  1.4231 -1.7574  0.4938
17718THY    CA323728   8.725   5.301   5.474  0.2219  1.1755  0.2565
17718THY    HA323729   8.644   5.300   5.546  0.5458  1.5395 -0.3095
17718THY    CA423730   8.854   5.273   5.528 -0.4339 -0.3924 -0.5732
17718THY    HA423731   8.857   5.247   5.634 -0.9183  0.0616  1.0979
17718THY    CA523732   8.970   5.278   5.453 -0.3042 -0.2396 -0.5000
17718THY    CM123733   9.108   5.248   5.516 -0.1271  0.3350  0.1474
17718THY    HM123734   9.160   5.345   5.520  0.4165  0.7976 -0.1601
17718THY    HM223735   9.161   5.164   5.471  2.2793 -0.5698  2.0362
17718THY    HM323736   9.100   5.216   5.620  0.8755  0.0875 -0.9645
17718THY    CA623737   8.962   5.308   5.322  0.3654 -0.0060 -0.5748
17718THY    HA623738   9.052   5.303   5.261  0.3841 -0.1057  0.6455
17719THY      O23739   5.681   6.476   6.187  0.0036  0.6001 -0.0907
17719THY     HO23740   5.685   6.403   6.122  0.9906  0.4575  0.0770
17719THY    CA123741   5.793   6.481   6.260  0.0962  0.1362 -0.2626
17719THY    CA223742   5.819   6.557   6.376 -0.2373  0.6246  0.3053
17719THY    CP123743   5.702   6.651   6.424  0.1332  0.3462  0.3376
17719THY    HP123744   5.617   6.635   6.356  0.1829  0.4538 -0.4349
17719THY    CP223745   5.725   6.799   6.411 -0.4603  0.6498  0.5958
17719THY    HP223746   5.764   6.816   6.310  0.3835  0.3369 -2.6248
17719THY    HP323747   5.796   6.845   6.482 -1.0139  0.3886  1.9080
17719THY    HP423748   5.639   6.865   6.428  0.5384 -1.2269  2.5099
17719THY    CP323749   5.648   6.615   6.557 -0.6571 -0.1806  0.3447
17719THY    HP523750   5.610   6.513   6.568  1.0658  0.6502 -0.2477
17719THY    HP623751   5.570   6.689   6.580  1.1530 -0.0337  2.3422
17719THY    HP723752   5.729   6.621   6.630  0.5102 -1.4736  1.1787
17719THY    CA323753   5.932   6.535   6.459 -0.6861 -0.1809 -0.0074
17719THY    HA323754   5.955   6.595   6.547 -0.6257 -0.4125  0.3146
17719THY    CA423755   6.026   6.446   6.409 -0.8501 -0.0420  0.0981
17719THY    HA423756   6.114   6.430   6.472 -1.0029  0.1877  0.1608
17719THY    CA523757   6.011   6.378   6.284 -0.0600 -0.4200 -0.7364
17719THY    CM123758   6.111   6.289   6.226 -0.2934  0.3353 -0.0196
17719THY    HM123759   6.164   6.233   6.304 -1.2452  0.7971 -0.2912
17719THY    HM223760   6.189   6.344   6.172 -2.6433 -0.7554  2.5052
17719THY    HM323761   6.054   6.216   6.166 -0.8497 -0.0014  0.6846
17719THY    CA623762   5.895   6.395   6.209  0.4329  0.4404 -0.3143
17719THY    HA623763   5.876   6.344   6.115  1.0398  1.7012 -3.0881
17720THY      O23764   5.461   8.581   2.826  0.5907  0.1371  0.2348
17720THY     HO23765   5.474   8.602   2.921 -1.7636  0.9285 -1.5106
17720THY    CA123766   5.539   8.472   2.811 -1.1572 -0.0594  0.1547
17720THY    CA223767   5.534   8.391   2.703 -0.0837  0.6420 -0.2248
17720THY    CP123768   5.435   8.420   2.584  0.3311 -0.0798 -0.3426
17720THY    HP123769   5.368   8.504   2.605 -1.4205  0.7256 -1.8692
17720THY    CP223770   5.346   8.294   2.553 -0.1709 -0.3414 -0.7197
17720THY    HP223771   5.274   8.330   2.479 -0.0259 -0.0690  0.1398
17720THY    HP323772   5.294   8.250   2.639 -1.6035 -0.2233  1.1051
17720THY    HP423773   5.412   8.214   2.520  1.8624  3.5777 -0.9059
17720THY    CP323774   5.507   8.469   2.463  0.1644 -0.1856  0.2901
17720THY    HP523775   5.583   8.398   2.429 -1.2541 -0.0514 -1.3743
17720THY    HP623776   5.525   8.577   2.467 -0.5054 -2.8791  0.5738
17720THY    HP723777   5.435   8.465   2.380 -1.4064  1.1431 -0.4250
17720THY    CA323778   5.629   8.290   2.679  0.2956 -1.0106  0.3761
17720THY    HA323779   5.632   8.229   2.589 -0.2351  0.1184 -1.3936
17720THY    CA423780   5.720   8.268   2.783 -0.8582  0.1293 -0.1832
17720THY    HA423781   5.801   8.196   2.772  0.1471  0.9903  0.7887
17720THY    CA523782   5.724   8.352   2.899  0.0791 -0.1193  0.1751
17720THY    CM123783   5.818   8.333   3.011 -0.2943 -0.0546  0.3752
17720THY    HM123784   5.900   8.403   2.991  0.8752 -0.7749 -1.1176
17720THY    HM223785   5.850   8.228   3.002 -3.2113  0.0476 -0.5945
17720THY    HM323786   5.771   8.343   3.110  0.8086  0.4433  0.8965
17720THY    CA623787   5.631   8.448   2.916 -0.1093 -0.8244 -0.2405
17720THY    HA623788   5.631   8.499   3.012  1.4081  0.2830 -2.2076
17721THY      O23789   6.789   0.416   7.532 -0.5140 -0.0907  0.3533
17721THY     HO23790   6.713   0.474   7.551 -0.5849  0.4500  0.0935
17721THY    CA123791   6.901   0.463   7.586  0.3114 -0.3941 -0.7041
17721THY    CA223792   7.021   0.483   7.514  0.1005  0.9617  0.7296
17721THY    CP123793   7.038   0.423   7.371  0.5357  0.6654  0.0613
17721THY    HP123794   6.948   0.375   7.332 -0.1932 -1.0545  2.6586
17721THY    CP223795   7.148   0.322   7.353 -0.2049 -0.4058  0.2790
17721THY    HP223796   7.163   0.271   7.449 -1.5519  0.5515  1.5967
17721THY    HP323797   7.244   0.375   7.353  0.3583  0.3950 -0.7215
17721THY    HP423798   7.147   0.265   7.259  1.5318  0.3701 -1.1111
17721THY    CP323799   7.061   0.531   7.267 -1.0947  0.0330 -0.0772
17721THY    HP523800   6.973   0.596   7.259 -1.6458  0.8411 -0.7020
17721THY    HP623801   7.082   0.484   7.170  1.9048  1.0339 -1.0257
17721THY    HP723802   7.147   0.589   7.302 -1.2459  0.5990 -0.1825
17721THY    CA323803   7.123   0.550   7.578  0.2256  0.5681 -0.2055
17721THY    HA323804   7.207   0.578   7.516 -0.3438  0.4483  1.3139
17721THY    CA423805   7.113   0.594   7.707 -0.6018 -0.7150  0.1717
17721THY    HA423806   7.189   0.655   7.754  0.0874 -0.6823 -0.6946
17721THY    CA523807   6.994   0.585   7.770  0.9445 -0.1784  0.3993
17721THY    CM123808   6.973   0.653   7.902 -0.2045  0.5888 -0.1375
17721THY    HM123809   7.049   0.609   7.968  0.7991 -1.8336 -2.3090
17721THY    HM223810   6.872   0.630   7.938 -1.2292 -2.6326 -1.2897
17721THY    HM323811   6.990   0.761   7.901  2.0587  0.8023 -0.4457
17721THY    CA623812   6.886   0.515   7.714  0.0517  0.3797  0.0490
17721THY    HA623813   6.791   0.502   7.765  0.1443  0.4278 -0.4876
17722THY      O23814   3.871   8.845   4.009 -0.5347  0.2760  0.1086
17722THY     HO23815   3.823   8.927   4.028  0.5423 -0.4874  0.9440
17722THY    CA123816   3.925   8.809   4.121 -1.0551  0.0439 -0.3964
17722THY    CA223817   4.041   8.726   4.135  0.2342 -0.6735 -0.4873
17722THY    CP123818   4.113   8.676   4.010  0.8337  0.5328 -0.8789
17722THY    HP123819   4.100   8.753   3.933  0.7826  2.7530  1.4804
17722THY    CP223820   4.050   8.548   3.953 -1.0134 -0.0316 -0.1169
17722THY    HP223821   3.950   8.567   3.910 -0.8346 -0.4873 -0.2005
17722THY    HP323822   4.051   8.469   4.029 -0.5785  0.1654  0.0785
17722THY    HP423823   4.121   8.527   3.873  1.2790  1.3136  2.0312
17722THY    CP323824   4.260   8.674   4.028 -0.2758  0.1708 -0.3959
17722THY    HP523825   4.291   8.584   4.083 -0.8120  0.5699 -0.3449
17722THY    HP623826   4.298   8.766   4.074 -2.4116 -2.0173  1.7004
17722THY    HP723827   4.305   8.669   3.928 -2.9732 -1.0755 -1.7332
17722THY    CA323828   4.075   8.686   4.268 -0.0708 -0.3037 -0.0621
17722THY    HA323829   4.165   8.627   4.285 -1.0410 -0.1937 -1.5679
17722THY    CA423830   4.011   8.739   4.382  0.1286  0.2925  0.2632
17722THY    HA423831   4.037   8.707   4.482  0.9633 -0.6407 -2.2648
17722THY    CA523832   3.907   8.831   4.366  0.3488  0.5044  0.1145
17722THY    CM123833   3.839   8.887   4.483  0.0032 -0.2185  0.7273
17722THY    HM123834   3.744   8.839   4.511 -0.4292 -2.1037  0.3921
17722THY    HM223835   3.816   8.994   4.485  0.5809  0.7723  0.8456
17722THY    HM323836   3.908   8.878   4.568 -0.4704  0.1535  0.5701
17722THY    CA623837   3.867   8.865   4.240  0.2092  0.1531  0.1527
17722THY    HA623838   3.782   8.930   4.227 -0.1871  0.6235 -0.2640
17723THY      O23839   8.309   7.183   4.602 -0.5230  0.4960  0.4806
17723THY     HO23840   8.269   7.265   4.635  0.6567  0.0714  1.2554
17723THY    CA123841   8.440   7.187   4.652  0.8242 -0.1770 -0.4071
17723THY    CA223842   8.540   7.091   4.622  0.5142 -0.1879  0.1157
17723THY    CP123843   8.496   6.974   4.528  0.2633 -0.4703 -0.0653
17723THY    HP123844   8.389   6.951   4.540 -0.2037 -2.1808  1.0486
17723THY    CP223845   8.578   6.840   4.543  0.1362  0.0051 -0.3593
17723THY    HP223846   8.545   6.757   4.479  0.5033  0.4790 -0.8814
17723THY    HP323847   8.575   6.806   4.647  1.7389  1.1327  2.5587
17723THY    HP423848   8.685   6.866   4.537  0.0252  1.3427  0.5017
17723THY    CP323849   8.514   7.026   4.386  0.1992 -0.1807 -0.3457
17723THY    HP523850   8.474   6.950   4.317  0.9186 -2.4014  1.1743
17723THY    HP623851   8.613   7.061   4.356  1.6453  1.1593 -2.9946
17723THY    HP723852   8.447   7.112   4.378 -2.1679 -1.2008 -2.1554
17723THY    CA323853   8.669   7.109   4.676  0.0338  0.3716 -0.7581
17723THY    HA323854   8.753   7.046   4.646  1.7012  1.1144  0.9927
17723THY    CA423855   8.697   7.217   4.761  0.8948 -0.0077 -0.4542
17723THY    HA423856   8.790   7.219   4.818  0.1406  1.2934 -1.2604
17723THY    CA523857   8.601   7.314   4.784 -0.2962  0.3289 -0.3432
17723THY    CM123858   8.628   7.431   4.877  0.1867 -0.2757  0.0177
17723THY    HM123859   8.711   7.405   4.944  1.3038 -1.7124 -0.2764
17723THY    HM223860   8.540   7.453   4.938  1.6576  3.4446 -3.1589
17723THY    HM323861   8.663   7.519   4.822  2.7873  2.4180  0.8232
17723THY    CA623862   8.473   7.297   4.729  0.4750  0.6631 -0.8099
17723THY    HA623863   8.401   7.374   4.753  0.5042  0.5067 -0.7332
17724THY      O23864   5.150   7.591   3.002 -0.4290 -0.1183  0.5498
17724THY     HO23865   5.164   7.542   3.085 -1.0497 -0.1335  0.3384
17724THY    CA123866   5.280   7.625   2.959  0.9346  0.3753  0.4781
17724THY    CA223867   5.302   7.691   2.835 -0.2090  0.0735  0.2832
17724THY    CP123868   5.189   7.739   2.749  0.4067 -0.0659  0.3208
17724THY    HP123869   5.093   7.718   2.798  0.6648  0.8103  1.1069
17724THY    CP223870   5.197   7.671   2.614 -0.2832 -0.1885 -0.0420
17724THY    HP223871   5.284   7.700   2.554 -1.4638 -2.0403 -0.1427
17724THY    HP323872   5.111   7.707   2.557  0.4749 -1.1972  0.2277
17724THY    HP423873   5.199   7.563   2.635  0.0837  0.2107  0.0378
17724THY    CP323874   5.196   7.893   2.743 -0.4001  0.1499 -0.9615
17724THY    HP523875   5.297   7.931   2.721 -1.1302 -2.4878 -0.3317
17724THY    HP623876   5.169   7.925   2.844 -0.9823  0.1757 -1.5195
17724THY    HP723877   5.125   7.922   2.665 -2.1208  0.6305 -3.5633
17724THY    CA323878   5.437   7.719   2.800  0.4708  0.4945  0.0643
17724THY    HA323879   5.456   7.751   2.697  0.6517  0.8945  1.2967
17724THY    CA423880   5.532   7.714   2.904 -0.1529  0.2387  0.0483
17724THY    HA423881   5.632   7.753   2.891 -0.6290  2.5758  2.2845
17724THY    CA523882   5.505   7.654   3.029 -0.3072 -0.1998 -0.1279
17724THY    CM123883   5.618   7.643   3.131 -0.4792  0.2841  0.0695
17724THY    HM123884   5.644   7.734   3.187 -1.1208  0.2282  0.2898
17724THY    HM223885   5.708   7.614   3.076  0.7357  2.0791  0.3076
17724THY    HM323886   5.600   7.566   3.207  0.3216  1.5927  1.1218
17724THY    CA623887   5.382   7.599   3.044  0.0105 -0.7876 -0.4424
17724THY    HA623888   5.367   7.564   3.146  0.6659 -0.4260  0.3053
17725THY      O23889   1.731   8.632   4.095 -0.1625  0.1581 -0.5186
17725THY     HO23890   1.755   8.539   4.107  1.7134  1.8635  0.1151
17725THY    CA123891   1.854   8.690   4.086 -0.0447 -0.3158 -0.0682
17725THY    CA223892   1.870   8.833   4.067  0.6681 -0.1053 -0.1051
17725THY    CP123893   1.752   8.924   4.066  0.4592 -0.2488 -0.3363
17725THY    HP123894   1.677   8.889   4.139  0.4058 -0.6814 -1.1376
17725THY    CP223895   1.686   8.922   3.929  0.3215  0.1661  0.6761
17725THY    HP223896   1.600   8.990   3.935  0.1003  2.0155  0.2858
17725THY    HP323897   1.644   8.824   3.905 -1.0627 -1.5305  1.5988
17725THY    HP423898   1.756   8.951   3.850  0.0632  0.0803  1.0878
17725THY    CP323899   1.777   9.069   4.097  0.2528  0.4646 -0.0047
17725THY    HP523900   1.844   9.092   4.180  0.6836 -0.3582  1.8786
17725THY    HP623901   1.686   9.126   4.117  0.7096  0.9990  0.5539
17725THY    HP723902   1.832   9.108   4.010 -1.6538 -0.5495  0.5573
17725THY    CA323903   1.998   8.885   4.074 -0.1283  0.5040  0.3875
17725THY    HA323904   2.020   8.991   4.063 -0.3593  2.2014  0.6497
17725THY    CA423905   2.111   8.797   4.091  0.1589 -0.3470 -0.4291
17725THY    HA423906   2.209   8.843   4.091 -0.0842 -0.6096  0.0964
17725THY    CA523907   2.097   8.661   4.090 -0.6439  0.3689  0.5348
17725THY    CM123908   2.217   8.571   4.090 -0.6398  0.4522  0.6149
17725THY    HM123909   2.306   8.623   4.053 -0.9336  0.0476  0.8351
17725THY    HM223910   2.207   8.478   4.034 -0.6636  1.5723 -0.0744
17725THY    HM323911   2.242   8.531   4.188  0.4699  0.6976  1.8358
17725THY    CA623912   1.969   8.615   4.104  0.6695  0.4419  0.2766
17725THY    HA623913   1.960   8.507   4.115  1.5462 -0.4342  0.0977
17726THY      O23914   0.914   3.153   2.468 -0.2874 -0.0875 -0.1509
17726THY     HO23915   0.859   3.125   2.543 -1.6282 -0.0190  2.3661
17726THY    CA123916   1.037   3.099   2.493  1.2692 -0.0962  0.0726
17726THY    CA223917   1.142   3.143   2.412 -0.0349 -0.4007 -0.1154
17726THY    CP123918   1.125   3.245   2.309  0.1080  0.2416 -0.1535
17726THY    HP123919   1.030   3.298   2.312  0.0705  0.0270 -0.2068
17726THY    CP223920   1.118   3.186   2.168  0.1667 -0.3522  0.1336
17726THY    HP223921   1.043   3.105   2.167 -0.5233  0.3522  0.7462
17726THY    HP323922   1.219   3.149   2.148  1.7965 -1.3199  4.4682
17726THY    HP423923   1.111   3.275   2.104 -2.1068  0.5660  0.7137
17726THY    CP323924   1.225   3.359   2.319  0.4398 -0.5116 -0.1632
17726THY    HP523925   1.318   3.313   2.282  0.4870  1.4735 -1.8086
17726THY    HP623926   1.234   3.411   2.415  0.8205 -1.0542  0.8106
17726THY    HP723927   1.198   3.436   2.246  1.0479  1.0405  1.5857
17726THY    CA323928   1.272   3.096   2.439  0.0626  0.2538  0.1618
17726THY    HA323929   1.358   3.108   2.375 -0.4066 -1.3943 -3.6386
17726THY    CA423930   1.279   2.993   2.537 -0.4504 -0.1821  0.2278
17726THY    HA423931   1.375   2.949   2.560  0.4419  1.5499  2.8586
17726THY    CA523932   1.164   2.935   2.600 -0.3905 -0.1265  0.2796
17726THY    CM123933   1.166   2.822   2.701  0.2589  0.4170 -0.3403
17726THY    HM123934   1.071   2.770   2.714  0.2802 -0.6275 -0.6690
17726THY    HM223935   1.178   2.859   2.803 -0.6378  0.5876 -0.4964
17726THY    HM323936   1.240   2.746   2.674 -1.0595 -0.1141 -1.4755
17726THY    CA623937   1.046   3.007   2.597 -0.0560 -0.0565 -0.0551
17726THY    HA623938   0.967   2.981   2.667 -1.2738 -0.6112  1.9237
17727THY      O23939   2.895   8.800   1.827 -0.5280  0.1552 -0.3120
17727THY     HO23940   2.860   8.718   1.787  2.0532 -2.3751 -0.3031
17727THY    CA123941   2.810   8.835   1.922  0.3306 -0.2664 -0.5275
17727THY    CA223942   2.856   8.909   2.033 -0.0850 -0.7618  0.7155
17727THY    CP123943   3.005   8.955   2.042  0.2427 -0.3050 -0.8145
17727THY    HP123944   3.063   8.905   1.964 -0.1259 -1.2877  0.2294
17727THY    CP223945   3.059   8.923   2.181 -0.0654  0.2155 -0.5890
17727THY    HP223946   3.058   8.816   2.206 -0.0334 -0.2818 -0.7054
17727THY    HP323947   3.016   8.989   2.257  0.9755  0.1192  0.2260
17727THY    HP423948   3.161   8.962   2.174 -0.0155  2.0250 -0.3156
17727THY    CP323949   3.018   9.103   2.020  0.0874 -0.4820 -0.4147
17727THY    HP523950   3.122   9.135   2.013  0.4346  1.0014 -1.1135
17727THY    HP623951   2.972   9.161   2.101  1.9121  1.7298 -1.8834
17727THY    HP723952   2.964   9.138   1.931  0.3634  0.1411  1.7220
17727THY    CA323953   2.759   8.949   2.129  0.0170  0.1617 -0.0654
17727THY    HA323954   2.792   9.012   2.212  0.9632  0.1127 -0.4785
17727THY    CA423955   2.626   8.915   2.106 -0.2173 -0.0330 -0.0273
17727THY    HA423956   2.546   8.948   2.172 -0.2171 -0.5253  1.0254
17727THY    CA523957   2.585   8.835   2.003 -0.5629 -0.1523  0.3153
17727THY    CM123958   2.437   8.795   1.989 -0.2056 -0.5803 -0.5935
17727THY    HM123959   2.373   8.845   2.063  2.7437  2.0755 -0.4125
17727THY    HM223960   2.423   8.693   2.027 -0.9906  0.0843 -0.2465
17727THY    HM323961   2.394   8.799   1.888  0.6834 -1.1079 -2.6896
17727THY    CA623962   2.678   8.791   1.914  0.5465  0.5902 -0.6557
17727THY    HA623963   2.654   8.729   1.828  0.7165 -1.1829  1.6355
17728THY      O23964   8.959   0.736   7.189 -0.1012 -0.3697 -0.7212
17728THY     HO23965   8.932   0.696   7.104  1.1836 -2.4901  2.5269
17728THY    CA123966   9.093   0.704   7.199  0.7990 -0.2412  0.3728
17728THY    CA223967   9.172   0.740   7.307 -0.1330 -0.7697 -0.0972
17728THY    CP123968   9.113   0.826   7.418  0.5248  0.3998 -0.2590
17728THY    HP123969   9.030   0.874   7.364  2.4930 -0.3959  2.4691
17728THY    CP223970   9.202   0.941   7.472  0.2831  0.0229 -0.3415
17728THY    HP223971   9.154   1.002   7.550  0.2517  0.1792 -0.5659
17728THY    HP323972   9.231   1.007   7.389 -1.9214 -1.4422 -1.0832
17728THY    HP423973   9.289   0.890   7.513  0.2483  0.6675  0.1060
17728THY    CP323974   9.059   0.750   7.542  0.3984 -0.3921  0.1082
17728THY    HP523975   9.048   0.826   7.621 -1.0457 -0.0522 -0.4232
17728THY    HP623976   9.139   0.680   7.569  1.6995  0.2771  1.7788
17728THY    HP723977   8.959   0.710   7.522  0.6976 -0.1776 -0.7522
17728THY    CA323978   9.306   0.694   7.323  0.2255  0.3630 -0.0145
17728THY    HA323979   9.360   0.716   7.414  1.3679 -0.8717  2.8097
17728THY    CA423980   9.367   0.624   7.220 -0.1746 -0.0293  0.0153
17728THY    HA423981   9.469   0.588   7.223 -0.1192  0.5343  0.2075
17728THY    CA523982   9.287   0.592   7.103 -0.5084 -0.2826 -0.4977
17728THY    CM123983   9.343   0.513   6.993 -0.0890  0.2197  0.0160
17728THY    HM123984   9.302   0.412   6.993  0.1412 -0.6723 -0.0830
17728THY    HM223985   9.450   0.495   7.008 -0.1803  0.3657 -0.4184
17728THY    HM323986   9.335   0.557   6.893 -0.2731 -0.1707 -0.8965
17728THY    CA623987   9.147   0.617   7.104 -0.5581 -0.2483  0.4300
17728THY    HA623988   9.088   0.582   7.020  0.5396 -0.5911 -0.6722
17729THY      O23989   9.103   4.602   4.434  0.2108  0.0982  0.6593
17729THY     HO23990   9.173   4.670   4.437  1.4995 -0.2773 -0.6081
17729THY    CA123991   9.135   4.514   4.522 -0.6719  0.2829  0.1623
17729THY    CA223992   9.069   4.389   4.536 -0.2658  0.6857 -0.6944
17729THY    CP123993   8.956   4.343   4.439  0.2863  0.2660 -0.0215
17729THY    HP123994   8.921   4.420   4.370 -1.8616  0.5186 -0.7083
17729THY    CP223995   8.836   4.300   4.536  0.2669  1.3781  0.0475
17729THY    HP223996   8.756   4.261   4.472  0.2419  1.8609 -0.7012
17729THY    HP323997   8.793   4.385   4.591 -1.9369 -1.3238  0.8517
17729THY    HP423998   8.864   4.217   4.601  0.6610 -0.5834 -1.4370
17729THY    CP323999   9.011   4.232   4.344  0.9386 -0.1168  0.2221
17729THY    HP524000   9.021   4.132   4.386 -0.4123 -1.0450 -0.3312
17729THY    HP624001   9.114   4.260   4.321  1.6655 -0.5574 -2.5212
17729THY    HP724002   8.945   4.229   4.256  0.2284  0.2753  2.2747
17729THY    CA324003   9.133   4.287   4.617 -0.7222  0.1069 -0.6037
17729THY    HA324004   9.094   4.186   4.618 -1.7345  1.4641 -0.2226
17729THY    CA424005   9.253   4.322   4.694  1.1721 -0.5747  0.3266
17729THY    HA424006   9.302   4.257   4.766 -0.2960 -0.8116 -1.1190
17729THY    CA524007   9.305   4.446   4.676  0.5135  0.0716 -0.6139
17729THY    CM124008   9.425   4.488   4.755 -0.6858  0.8456  0.3309
17729THY    HM124009   9.426   4.433   4.849  2.3312  1.4006  1.1632
17729THY    HM224010   9.432   4.597   4.770 -2.0178  1.9619  0.2947
17729THY    HM324011   9.514   4.456   4.700 -0.1917  0.9623  1.4392
17729THY    CA624012   9.244   4.544   4.604 -0.0377 -0.1630 -0.9403
17729THY    HA624013   9.302   4.636   4.603  1.0899  1.3477 -1.5900
17730THY      O24014   0.348   0.732   6.092 -0.1843  0.5219 -0.2978
17730THY     HO24015   0.355   0.788   6.012  3.1296  0.9790  0.1510
17730THY    CA124016   0.434   0.785   6.193 -0.8501  0.2241  0.7044
17730THY    CA224017   0.421   0.748   6.330 -0.2783  0.0909 -0.2577
17730THY    CP124018   0.307   0.655   6.364 -0.2724 -0.3162 -0.4207
17730THY    HP124019   0.235   0.663   6.282  0.2482 -0.7017  0.5065
17730THY    CP224020   0.227   0.691   6.498  0.4442 -0.1360  0.1447
17730THY    HP224021   0.299   0.701   6.579  1.2596 -0.6356 -1.3275
17730THY    HP324022   0.152   0.614   6.521 -1.5763 -0.2987  1.9562
17730THY    HP424023   0.158   0.776   6.492 -2.6183 -0.9121 -2.1825
17730THY    CP324024   0.355   0.510   6.367 -0.4196  0.0855 -0.3586
17730THY    HP524025   0.443   0.484   6.428 -0.0766 -0.7046 -1.1041
17730THY    HP624026   0.382   0.476   6.266  0.0463  0.6453 -1.7438
17730THY    HP724027   0.272   0.446   6.401 -0.1135 -0.2284 -0.9318
17730THY    CA324028   0.513   0.810   6.423 -0.4859 -0.6786  0.9485
17730THY    HA324029   0.503   0.787   6.529 -0.8156 -1.0267 -0.6212
17730THY    CA424030   0.608   0.902   6.372 -0.7192  0.4460  0.0454
17730THY    HA424031   0.668   0.961   6.441 -1.0324 -0.3566  1.3665
17730THY    CA524032   0.640   0.925   6.236 -0.1282 -0.1814 -0.5739
17730THY    CM124033   0.732   1.037   6.185  0.5142 -0.4585  0.1250
17730THY    HM124034   0.822   0.997   6.137  1.5707 -1.1084  2.9990
17730THY    HM224035   0.749   1.105   6.269  0.4108 -0.2125 -0.1498
17730THY    HM324036   0.685   1.087   6.099 -0.6317  0.3990  0.5744
17730THY    CA624037   0.540   0.872   6.149 -0.1366 -0.4257 -0.1213
17730THY    HA624038   0.539   0.901   6.044  0.4732 -0.0473  1.3639
17731THY      O24039   3.619   8.954   5.856  0.2885  0.6807 -0.0348
17731THY     HO24040   3.694   8.983   5.802 -0.8298  0.4282  2.6067
17731THY    CA124041   3.533   9.055   5.870  0.3454 -0.1024  0.9324
17731THY    CA224042   3.392   9.026   5.887 -0.2466 -0.2644 -0.8152
17731THY    CP124043   3.337   8.883   5.876  0.4696 -0.1815 -0.3782
17731THY    HP124044   3.409   8.804   5.850 -1.6429  2.7321 -3.5479
17731THY    CP224045   3.244   8.868   5.760 -0.3779 -0.4125  0.1524
17731THY    HP224046   3.293   8.917   5.675 -1.6893  0.6117  3.5273
17731THY    HP324047   3.150   8.918   5.787 -1.1635 -0.8131 -1.0760
17731THY    HP424048   3.227   8.762   5.740  0.0360 -1.0806  0.2067
17731THY    CP324049   3.269   8.834   6.014 -0.4113  0.3920  0.0550
17731THY    HP524050   3.185   8.766   5.994 -0.0478 -2.8153  0.3864
17731THY    HP624051   3.252   8.925   6.072  0.8446  0.5120  0.2217
17731THY    HP724052   3.339   8.777   6.075 -0.0061  0.9154  1.0986
17731THY    CA324053   3.302   9.131   5.892 -0.0531  0.1224  0.0799
17731THY    HA324054   3.196   9.106   5.895 -0.0368 -0.9843 -0.1598
17731THY    CA424055   3.347   9.260   5.885  0.2256  0.5801  0.1662
17731THY    HA424056   3.277   9.342   5.891  1.1556  1.4612  0.9196
17731THY    CA524057   3.485   9.292   5.873 -1.3021 -0.1857  0.6959
17731THY    CM124058   3.535   9.432   5.871 -0.4094 -0.0075 -0.1548
17731THY    HM124059   3.462   9.495   5.819 -0.9425  0.7279 -0.1522
17731THY    HM224060   3.624   9.435   5.806  0.7899  1.5842  1.2828
17731THY    HM324061   3.565   9.479   5.966  1.2102  0.3190 -1.6995
17731THY    CA624062   3.578   9.188   5.878  0.2075 -0.2977  0.2059
17731THY    HA624063   3.685   9.208   5.872  0.4952  0.1911 -1.1386
17732THY      O24064   0.481   7.972   7.059 -0.1616  0.4795 -0.1842
17732THY     HO24065   0.521   7.978   6.971 -1.1639  0.0852  1.1780
17732THY    CA124066   0.437   8.099   7.084 -0.2449 -0.8112 -0.4683
17732THY    CA224067   0.419   8.160   7.214 -0.3333 -0.2483  0.1487
17732THY    CP124068   0.461   8.086   7.340 -0.5464  0.2635 -0.1186
17732THY    HP124069   0.477   7.980   7.316 -1.0069 -0.4185 -0.0413
17732THY    CP224070   0.349   8.091   7.453 -0.0722 -0.3833 -0.6758
17732THY    HP224071   0.362   8.016   7.532  2.2958 -0.1068 -0.0467
17732THY    HP324072   0.247   8.093   7.412  0.0148 -0.6380  2.5328
17732THY    HP424073   0.361   8.191   7.494  0.3500 -1.1610 -0.4000
17732THY    CP324074   0.597   8.136   7.396  0.0724  0.2161  0.3610
17732THY    HP524075   0.686   8.109   7.339  0.2357  1.0842 -1.0155
17732THY    HP624076   0.610   8.076   7.487 -0.1849  1.0165  1.4710
17732THY    HP724077   0.597   8.243   7.423 -1.2233  1.8342 -0.0076
17732THY    CA324078   0.362   8.291   7.229 -0.0655 -0.1754  0.5197
17732THY    HA324079   0.340   8.325   7.329 -1.4321  0.3092 -1.5680
17732THY    CA424080   0.307   8.349   7.113  0.3960  0.2569  0.1459
17732THY    HA424081   0.262   8.447   7.124  2.4230  1.7077  0.9947
17732THY    CA524082   0.321   8.283   6.995  0.1237  0.4359 -0.1758
17732THY    CM124083   0.249   8.327   6.867 -0.8331 -0.4112  0.3050
17732THY    HM124084   0.320   8.332   6.785 -0.0011  0.2066 -0.8361
17732THY    HM224085   0.194   8.420   6.885 -1.2754  0.4497 -0.1040
17732THY    HM324086   0.169   8.256   6.843  0.9049 -2.9352 -0.9357
17732THY    CA624087   0.387   8.161   6.976  0.1190 -0.0393  0.2442
17732THY    HA624088   0.380   8.113   6.878 -1.9373 -0.3905  1.1686
17733THY      O24089   2.527   7.030   7.058  0.4763 -0.3422 -0.1536
17733THY     HO24090   2.446   7.031   7.111  1.1868  0.8114 -1.2122
17733THY    CA124091   2.603   6.924   7.102 -0.0838  0.0122  0.2659
17733THY    CA224092   2.741   6.912   7.088 -0.2044  0.7234 -1.0236
17733THY    CP124093   2.813   7.024   7.003 -0.3061  0.1676 -0.5547
17733THY    HP124094   2.737   7.096   6.972  0.0973  1.0437  0.2700
17733THY    CP224095   2.881   6.970   6.878  0.1288  0.0497  0.7665
17733THY    HP224096   2.806   6.924   6.813 -0.3765  0.9163  0.3353
17733THY    HP324097   2.954   6.891   6.897 -1.5794  2.5681 -0.3694
17733THY    HP424098   2.917   7.058   6.824 -0.0870 -0.2663  0.6585
17733THY    CP324099   2.926   7.091   7.096 -0.2419  0.4106  0.0225
17733THY    HP524100   2.888   7.095   7.199 -0.2256  0.4522 -0.7619
17733THY    HP624101   2.963   7.188   7.060  1.0779  0.4964 -0.4265
17733THY    HP724102   3.011   7.022   7.092 -1.8573 -2.0088 -2.0146
17733THY    CA324103   2.814   6.816   7.153  0.2272  1.2537  0.6159
17733THY    HA324104   2.922   6.820   7.159  0.5298 -0.1673 -2.3327
17733THY    CA424105   2.750   6.720   7.237  0.5354  0.3795  0.1008
17733THY    HA424106   2.803   6.647   7.297  0.5373 -0.4935 -0.6383
17733THY    CA524107   2.603   6.717   7.251 -0.2290 -0.2549 -0.1990
17733THY    CM124108   2.535   6.614   7.334 -0.2932 -0.2238 -0.1448
17733THY    HM124109   2.547   6.644   7.438 -2.5262  0.1866 -0.4936
17733THY    HM224110   2.583   6.516   7.342 -1.3124 -3.3328 -1.0372
17733THY    HM324111   2.428   6.593   7.317 -0.1680  0.8714 -1.8021
17733THY    CA624112   2.537   6.817   7.173 -0.5778 -0.1947 -0.3155
17733THY    HA624113   2.431   6.825   7.197  0.0107  1.9573  2.5366
17734THY      O24114   6.045   6.613   3.468  0.1405  0.1676 -0.3392
17734THY     HO24115   6.011   6.530   3.430  3.2854 -2.8702 -0.4489
17734THY    CA124116   6.071   6.603   3.600  0.0217 -0.0001  0.3728
17734THY    CA224117   6.082   6.719   3.682 -0.2624  0.0754 -0.0783
17734THY    CP124118   6.087   6.862   3.622  0.0077 -0.7313  0.8772
17734THY    HP124119   6.093   6.846   3.514 -1.5754 -0.9783  1.6921
17734THY    CP224120   6.204   6.953   3.669  0.3631  0.7449  0.0664
17734THY    HP224121   6.189   7.008   3.763  2.7959  0.1675  1.8910
17734THY    HP324122   6.221   7.031   3.595 -0.4344  2.0848  1.5773
17734THY    HP424123   6.295   6.894   3.682  1.1758  0.7550  1.2833
17734THY    CP324124   5.950   6.917   3.651 -0.8102  0.7317 -0.1101
17734THY    HP524125   5.928   6.905   3.757 -2.1788  0.9104  3.0621
17734THY    HP624126   5.875   6.863   3.590 -1.1671  0.2047  0.9467
17734THY    HP724127   5.948   7.023   3.622 -0.9889  0.2478 -0.2403
17734THY    CA324128   6.087   6.708   3.820 -0.1209  0.0480 -0.4411
17734THY    HA324129   6.119   6.786   3.888  0.3723  0.9673 -1.4353
17734THY    CA424130   6.079   6.585   3.877  0.1671 -0.1392 -0.1029
17734THY    HA424131   6.106   6.574   3.982 -0.0811 -0.0553  0.0656
17734THY    CA524132   6.060   6.469   3.798 -0.9118 -0.4682  0.2833
17734THY    CM124133   6.050   6.333   3.863 -0.5032  0.5702  0.2600
17734THY    HM124134   5.953   6.282   3.850  0.1772  0.4309 -1.0500
17734THY    HM224135   6.069   6.355   3.968  2.1047 -0.0434  1.2912
17734THY    HM324136   6.137   6.268   3.845  0.4961  2.1116  1.1121
17734THY    CA624137   6.053   6.478   3.665  0.2488  0.2129 -0.0060
17734THY    HA624138   6.030   6.385   3.613 -1.8425 -0.6467  0.9225
17735THY      O24139   3.371   3.944   5.101 -0.0997  0.1262  0.6205
17735THY     HO24140   3.342   3.868   5.155  1.2991 -0.9346 -0.7468
17735THY    CA124141   3.266   4.001   5.053 -0.7178  0.1393  0.0429
17735THY    CA224142   3.271   4.136   5.001  0.0099 -0.7786 -0.1088
17735THY    CP124143   3.406   4.212   4.997 -0.1659  0.2565 -0.4615
17735THY    HP124144   3.491   4.144   4.980 -0.2263 -0.7649 -0.2895
17735THY    CP224145   3.439   4.265   5.136 -0.6564  0.2860 -0.2319
17735THY    HP224146   3.539   4.307   5.149 -1.3314  0.4083  1.4016
17735THY    HP324147   3.427   4.190   5.215 -1.0131 -1.1323 -1.7232
17735THY    HP424148   3.366   4.344   5.158 -0.1467  1.0526  0.0349
17735THY    CP324149   3.412   4.320   4.889 -0.4019  0.6582 -0.2912
17735THY    HP524150   3.341   4.397   4.920 -1.6548 -2.3257 -0.0982
17735THY    HP624151   3.379   4.296   4.787  1.1523 -0.2430  1.1514
17735THY    HP724152   3.515   4.356   4.893 -0.2572 -4.8644  0.7917
17735THY    CA324153   3.155   4.191   4.958 -0.3260  0.2319 -0.5033
17735THY    HA324154   3.144   4.294   4.926 -0.2679  2.1303  0.1150
17735THY    CA424155   3.031   4.118   4.954  0.1228 -0.0815 -0.1981
17735THY    HA424156   2.940   4.163   4.917  0.2011  0.0959  0.1127
17735THY    CA524157   3.029   3.983   4.992 -0.4698 -0.6826 -0.0683
17735THY    CM124158   2.897   3.902   5.006 -0.1459 -0.0246  0.2356
17735THY    HM124159   2.865   3.893   5.110  1.8070  0.5980  0.1117
17735THY    HM224160   2.922   3.803   4.966 -0.5785  1.2288 -0.3949
17735THY    HM324161   2.817   3.954   4.953 -0.0891  1.0952  1.5078
17735THY    CA624162   3.152   3.925   5.036  0.0487 -0.3711  0.0691
17735THY    HA624163   3.147   3.821   5.070  1.1697 -0.6545 -0.0858
17736THY      O24164   8.804   9.387   6.010 -0.2748 -0.2245  0.3818
17736THY     HO24165   8.748   9.371   6.088 -1.1281 -0.7859  0.6220
17736THY    CA124166   8.819   9.270   5.949  0.3242 -0.5060 -0.1694
17736THY    CA224167   8.842   9.264   5.813 -0.5877  0.4131 -0.1943
17736THY    CP124168   8.873   9.388   5.715 -0.0642 -0.2265 -0.5313
17736THY    HP124169   8.863   9.478   5.776 -2.1304 -1.8689  0.4171
17736THY    CP224170   8.761   9.397   5.610  0.4550  0.1813  0.2149
17736THY    HP224171   8.757   9.499   5.571 -1.0766  1.1276  0.5472
17736THY    HP324172   8.666   9.378   5.660 -0.3814 -1.3630  0.2338
17736THY    HP424173   8.774   9.320   5.533 -0.5480 -0.7588  0.9498
17736THY    CP324174   9.016   9.384   5.654 -0.2514  0.4820 -0.1492
17736THY    HP524175   9.092   9.407   5.729 -0.6995  0.3688  1.8467
17736THY    HP624176   9.024   9.475   5.593 -2.9777  1.1024  0.5829
17736THY    HP724177   9.049   9.295   5.599 -1.1744 -1.6258  0.7501
17736THY    CA324178   8.837   9.133   5.745  0.0037 -0.6259 -0.5026
17736THY    HA324179   8.847   9.118   5.638 -1.0543 -0.8095  0.0403
17736THY    CA424180   8.824   9.015   5.828  0.1692  0.0695  0.4599
17736THY    HA424181   8.815   8.913   5.793 -0.2464  0.3855  0.3822
17736THY    CA524182   8.811   9.028   5.971  0.7208  0.0219  0.3050
17736THY    CM124183   8.802   8.906   6.059 -0.4427  0.1805  0.5717
17736THY    HM124184   8.727   8.915   6.138 -1.4884 -0.6200 -0.7689
17736THY    HM224185   8.895   8.893   6.116 -0.6576  0.5700  0.7335
17736THY    HM324186   8.774   8.816   6.004 -0.4014  0.2315  0.5282
17736THY    CA624187   8.811   9.160   6.029 -0.6028 -0.1720 -0.3755
17736THY    HA624188   8.809   9.168   6.137 -1.2329 -0.1208 -1.0838
17737THY      O24189   6.166   5.515   6.771  0.2759 -0.1459  0.6906
17737THY     HO24190   6.187   5.563   6.689  3.1113  0.3112  0.4161
17737THY    CA124191   6.033   5.487   6.771 -0.0557  0.5895 -0.0419
17737THY    CA224192   5.970   5.381   6.839 -0.3116  0.5115  0.0169
17737THY    CP124193   6.060   5.290   6.919  0.3842  0.2262 -0.0399
17737THY    HP124194   6.163   5.325   6.932  0.6403 -0.3191 -0.5740
17737THY    CP224195   6.066   5.152   6.855 -0.6553 -0.7056  0.4306
17737THY    HP224196   5.966   5.107   6.851 -0.7903 -0.4787  0.7091
17737THY    HP324197   6.132   5.088   6.914 -1.2419  0.9025  1.2414
17737THY    HP424198   6.095   5.160   6.750 -0.6746 -0.7838 -0.4798
17737THY    CP324199   6.009   5.261   7.063 -0.6534 -0.6208  0.3123
17737THY    HP524200   5.926   5.190   7.073 -0.7373 -1.5386  0.2702
17737THY    HP624201   5.975   5.354   7.110  1.4040  2.5197 -0.3602
17737THY    HP724202   6.091   5.216   7.121  0.3014  0.3280  3.0893
17737THY    CA324203   5.827   5.371   6.847  0.0830  0.6994  0.2890
17737THY    HA324204   5.778   5.289   6.899 -0.8974 -0.0884  0.3520
17737THY    CA424205   5.753   5.480   6.800  0.8737 -0.0738  0.3687
17737THY    HA424206   5.645   5.480   6.810  0.5657 -2.2437  2.9116
17737THY    CA524207   5.817   5.582   6.730 -0.1045  0.1249 -0.0654
17737THY    CM124208   5.746   5.695   6.662  0.3848 -0.0182 -0.5012
17737THY    HM124209   5.643   5.673   6.631  0.9131 -3.2684  1.0288
17737THY    HM224210   5.807   5.743   6.585  2.0983  2.9813  2.5920
17737THY    HM324211   5.729   5.766   6.744 -0.7692 -1.1921  0.6264
17737THY    CA624212   5.954   5.583   6.712 -0.4767 -0.0631 -0.4075
17737THY    HA624213   6.002   5.670   6.668  1.6853 -2.2024 -2.5318
17738THY      O24214   5.305   1.666   5.657 -0.0298  0.0172 -0.5123
17738THY     HO24215   5.212   1.678   5.685 -0.0778 -0.3585  0.0282
17738THY    CA124216   5.296   1.569   5.563  0.1230  0.5586 -0.9401
17738THY    CA224217   5.403   1.522   5.489 -0.3471 -0.3846  0.4450
17738THY    CP124218   5.545   1.563   5.522 -0.3114  0.6481  0.0575
17738THY    HP124219   5.547   1.642   5.599  1.7161  0.4461  0.2637
17738THY    CP224220   5.619   1.627   5.405 -0.5763  0.5796  0.1988
17738THY    HP224221   5.714   1.668   5.442  1.6188 -0.7408 -3.2557
17738THY    HP324222   5.567   1.705   5.348 -0.5714  0.6970  0.2892
17738THY    HP424223   5.665   1.549   5.343  1.7808  2.8877 -0.4159
17738THY    CP324224   5.627   1.450   5.589 -0.8322 -0.3883  0.3106
17738THY    HP524225   5.697   1.399   5.522 -0.6250 -0.1463  0.2769
17738THY    HP624226   5.569   1.377   5.645  2.1440  0.4500 -1.5604
17738THY    HP724227   5.704   1.494   5.653 -0.5626 -0.8825  0.5708
17738THY    CA324228   5.391   1.425   5.384 -0.6350 -0.1575 -0.1226
17738THY    HA324229   5.477   1.400   5.322 -0.8419 -0.3337 -0.3881
17738THY    CA424230   5.260   1.384   5.354 -0.1066  0.5948  0.1782
17738THY    HA424231   5.238   1.305   5.283  0.8785 -0.7154  1.0343
17738THY    CA524232   5.152   1.423   5.434 -0.3270 -0.6924 -0.0491
17738THY    CM124233   5.009   1.362   5.421  0.0052 -0.5853 -0.0630
17738THY    HM124234   4.935   1.440   5.444  1.7424  0.6333  1.3336
17738THY    HM224235   5.010   1.271   5.481 -0.2775  0.4463  0.5953
17738THY    HM324236   4.987   1.342   5.316 -1.5939 -0.4516  0.7832
17738THY    CA624237   5.167   1.524   5.529  0.5217 -0.4928 -0.7876
17738THY    HA624238   5.080   1.551   5.589  1.9622  0.3058  2.5634
17739THY      O24239   1.070   2.361   5.039 -0.2986 -0.0920 -0.1712
17739THY     HO24240   1.025   2.275   5.037 -0.2069 -3.0136 -0.2557
17739THY    CA124241   0.973   2.446   5.000 -0.4244  0.2885 -0.4190
17739THY    CA224242   0.999   2.567   4.938  0.1132 -0.4692 -1.2586
17739THY    CP124243   1.143   2.620   4.923  0.0989 -0.0634  0.4668
17739THY    HP124244   1.216   2.544   4.954 -1.4172  1.5269 -0.4233
17739THY    CP224245   1.165   2.760   4.984 -0.0106 -0.5160  0.4102
17739THY    HP224246   1.121   2.839   4.922  1.2164 -2.2128 -0.1805
17739THY    HP324247   1.271   2.778   5.007 -0.5853  1.9341  1.0415
17739THY    HP424248   1.120   2.752   5.084  1.3242  0.1742  1.1750
17739THY    CP324249   1.172   2.645   4.776 -0.2210  0.7473 -0.1335
17739THY    HP524250   1.272   2.689   4.765 -0.6564 -1.5761  0.4528
17739THY    HP624251   1.090   2.704   4.732 -2.9954  2.3418 -2.5462
17739THY    HP724252   1.168   2.555   4.714 -1.9293 -1.1562  1.1442
17739THY    CA324253   0.894   2.648   4.905 -0.0013  0.0388 -0.7137
17739THY    HA324254   0.905   2.744   4.855 -3.6686 -1.2872 -0.8459
17739THY    CA424255   0.761   2.615   4.948 -0.1306  0.0986 -0.1287
17739THY    HA424256   0.686   2.689   4.923 -0.3611 -0.7374 -0.6361
17739THY    CA524257   0.731   2.494   5.018 -0.1334  0.4288 -0.4238
17739THY    CM124258   0.592   2.450   5.065 -0.5700 -0.1465  0.5378
17739THY    HM124259   0.565   2.492   5.163 -0.1728 -1.1573  3.3260
17739THY    HM224260   0.598   2.341   5.073  0.5434  2.9778  0.7207
17739THY    HM324261   0.520   2.490   4.993 -0.6140  0.9334  2.5436
17739THY    CA624262   0.844   2.410   5.035  0.1769  0.8375  0.0164
17739THY    HA624263   0.826   2.318   5.089 -0.4259 -1.4653 -1.2976
17740THY      O24264   6.290   0.591   4.668 -0.2347 -0.0702 -0.2368
17740THY     HO24265   6.237   0.517   4.634  0.0070 -0.1306 -0.3833
17740THY    CA124266   6.234   0.707   4.626 -0.0926 -0.7179 -0.0904
17740THY    CA224267   6.301   0.826   4.633 -0.8285 -0.3067  0.3511
17740THY    CP124268   6.433   0.838   4.701  0.1721 -0.6020  0.5269
17740THY    HP124269   6.464   0.743   4.746 -0.7627  0.8732  0.8882
17740THY    CP224270   6.434   0.953   4.805  0.0735 -0.0149 -0.0188
17740THY    HP224271   6.377   0.924   4.895  1.5792  1.1451  0.4781
17740THY    HP324272   6.399   1.055   4.782  1.7782  1.3815  0.9463
17740THY    HP424273   6.537   0.967   4.840 -0.6238  2.1073  0.3334
17740THY    CP324274   6.537   0.871   4.598  0.4998 -0.5349 -0.2573
17740THY    HP524275   6.632   0.898   4.644 -0.6339  0.8828  1.5486
17740THY    HP624276   6.504   0.958   4.539 -3.0750  1.2910 -0.1833
17740THY    HP724277   6.544   0.790   4.524 -2.1426 -1.1613 -0.0020
17740THY    CA324278   6.233   0.940   4.597  0.4433  0.2732  0.9383
17740THY    HA324279   6.284   1.036   4.591  1.1396  0.0801  0.5569
17740THY    CA424280   6.099   0.936   4.557  0.4679  0.1474 -0.7258
17740THY    HA424281   6.040   1.025   4.540 -0.4419 -2.3301 -1.7060
17740THY    CA524282   6.029   0.816   4.556 -0.2496 -0.2667  0.2831
17740THY    CM124283   5.882   0.810   4.517  0.0724  0.0751  0.3725
17740THY    HM124284   5.877   0.858   4.418  2.1013 -0.2923 -0.0929
17740THY    HM224285   5.820   0.864   4.589  1.0522 -0.7779  2.7616
17740THY    HM324286   5.847   0.706   4.515 -0.0777  1.7061  0.3746
17740THY    CA624287   6.105   0.701   4.583 -0.0587 -0.2716  0.3413
17740THY    HA624288   6.061   0.603   4.572  1.1574  1.0454 -0.3897
17741THY      O24289   2.875   6.425   5.512  0.1275 -0.5499  0.2080
17741THY     HO24290   2.943   6.429   5.443  0.7273  0.0549  0.7474
17741THY    CA124291   2.783   6.516   5.498 -0.6556 -0.0067 -0.2584
17741THY    CA224292   2.679   6.530   5.585 -0.3080  0.2560  0.4604
17741THY    CP124293   2.661   6.429   5.693 -0.3012  0.0023 -0.0318
17741THY    HP124294   2.760   6.417   5.739  0.5685 -1.6792  0.4568
17741THY    CP224295   2.617   6.293   5.635  0.0942 -0.1615  0.0236
17741THY    HP224296   2.632   6.207   5.702 -0.7904  0.5693  0.4288
17741THY    HP324297   2.668   6.270   5.541 -1.1469 -0.7589 -0.3560
17741THY    HP424298   2.511   6.285   5.610 -0.3503  1.5815 -0.0907
17741THY    CP324299   2.564   6.465   5.806  0.3821 -0.0741 -0.4057
17741THY    HP524300   2.602   6.548   5.866  3.7295 -0.2285 -1.6576
17741THY    HP624301   2.545   6.381   5.875 -6.3225 -1.5745 -0.6422
17741THY    HP724302   2.459   6.479   5.778 -0.5078  2.1508 -1.9325
17741THY    CA324303   2.586   6.639   5.565  0.0055 -0.0089 -0.0727
17741THY    HA324304   2.495   6.643   5.623  0.6822  1.0422  0.9994
17741THY    CA424305   2.610   6.732   5.464  0.2097  1.1060  0.1799
17741THY    HA424306   2.532   6.807   5.450 -0.0573  1.5593 -0.0040
17741THY    CA524307   2.716   6.725   5.383 -0.4792 -0.1157 -0.3150
17741THY    CM124308   2.740   6.829   5.279 -0.3792  0.3592 -0.2365
17741THY    HM124309   2.649   6.856   5.225 -1.4137  1.0992 -2.0813
17741THY    HM224310   2.805   6.784   5.203  1.9972  1.4262  1.1912
17741THY    HM324311   2.801   6.913   5.315  1.0235 -2.3577  0.0138
17741THY    CA624312   2.810   6.617   5.403  0.6719 -0.0342 -0.2374
17741THY    HA624313   2.898   6.611   5.341 -0.1153 -1.0640 -1.7931
17742THY      O24314   2.494   4.440   3.037  0.2521  0.0749  0.4111
17742THY     HO24315   2.467   4.485   3.119  0.8018  0.9627 -0.8516
17742THY    CA124316   2.573   4.536   2.983 -0.3960  0.2412 -0.2749
17742THY    CA224317   2.603   4.552   2.846 -0.5707 -0.4997  0.1464
17742THY    CP124318   2.537   4.458   2.741 -0.6001  0.4718  0.6530
17742THY    HP124319   2.448   4.406   2.778 -0.4141  0.1259  0.0835
17742THY    CP224320   2.646   4.348   2.701  0.3114  0.1959 -0.4609
17742THY    HP224321   2.732   4.401   2.660 -0.1552  1.2439  1.1982
17742THY    HP324322   2.613   4.277   2.624  0.3540 -1.0084  0.7822
17742THY    HP424323   2.668   4.292   2.793  0.5554  1.4153  1.5385
17742THY    CP324324   2.501   4.541   2.614 -0.6829  1.2990  1.0979
17742THY    HP524325   2.434   4.620   2.650 -1.2571  0.7183  0.8814
17742THY    HP624326   2.442   4.489   2.538 -1.0969  3.0951 -1.1717
17742THY    HP724327   2.590   4.588   2.570  0.3791  2.8633  0.6402
17742THY    CA324328   2.713   4.628   2.809  0.3161  0.2717 -0.6973
17742THY    HA324329   2.747   4.620   2.706  0.1952  0.3027 -1.7060
17742THY    CA424330   2.772   4.720   2.903 -0.8526  0.5394  0.2020
17742THY    HA424331   2.851   4.786   2.867  0.6520  0.4884 -1.5316
17742THY    CA524332   2.726   4.725   3.034  0.7502  0.2620 -0.2069
17742THY    CM124333   2.779   4.819   3.135  0.2939 -0.1135 -0.3744
17742THY    HM124334   2.817   4.778   3.229 -0.6562 -0.6753 -2.6891
17742THY    HM224335   2.710   4.900   3.160  1.7396 -0.0143  0.8797
17742THY    HM324336   2.856   4.885   3.092 -0.8313  2.5315  2.9300
17742THY    CA624337   2.624   4.628   3.074 -0.1312  0.2120 -1.2108
17742THY    HA624338   2.610   4.624   3.181  0.6547  0.3543 -0.4238
17743THY      O24339   1.499   9.426   4.760 -0.4131 -0.5692  0.0505
17743THY     HO24340   1.486   9.515   4.797 -0.5221 -2.6760  0.9627
17743THY    CA124341   1.596   9.360   4.833  0.1340  0.6115 -0.1994
17743THY    CA224342   1.576   9.236   4.886  0.1111  0.3947  0.4320
17743THY    CP124343   1.439   9.165   4.872  0.2319 -0.5283 -0.2949
17743THY    HP124344   1.372   9.208   4.797  0.4904 -1.0109 -0.7245
17743THY    CP224345   1.360   9.180   5.004  0.1824  0.4022  0.4847
17743THY    HP224346   1.278   9.107   5.010 -0.8272 -0.1700  1.5186
17743THY    HP324347   1.317   9.281   4.994  0.1596 -1.7710  0.3055
17743THY    HP424348   1.429   9.172   5.088 -0.8764  1.1448 -1.4533
17743THY    CP324349   1.454   9.017   4.837 -0.3823  0.5325  0.0160
17743THY    HP524350   1.521   8.964   4.906  0.4877  0.7521  1.3599
17743THY    HP624351   1.492   8.999   4.736 -0.5390  0.1247  1.7683
17743THY    HP724352   1.352   8.979   4.851 -0.7212  1.0294  1.0697
17743THY    CA324353   1.681   9.174   4.969  0.6115  0.3386  0.6819
17743THY    HA324354   1.655   9.078   5.012  1.2520 -1.9695 -0.6119
17743THY    CA424355   1.798   9.239   4.987  0.7260 -1.2429 -0.0184
17743THY    HA424356   1.877   9.202   5.052  0.6441  0.2691  2.2319
17743THY    CA524357   1.821   9.358   4.921  0.1072 -0.2240 -0.9348
17743THY    CM124358   1.958   9.420   4.931  0.4310  0.0191 -0.3697
17743THY    HM124359   1.969   9.525   4.903  2.2598 -2.3177 -1.1152
17743THY    HM224360   2.026   9.370   4.862  0.5848 -0.4088  0.4258
17743THY    HM324361   2.005   9.412   5.030 -0.9383  0.6042 -1.8476
17743THY    CA624362   1.718   9.429   4.859  0.4651 -0.0559  0.3152
17743THY    HA624363   1.733   9.522   4.805  0.2315 -2.2237 -0.8327
17744THY      O24364   6.243   9.339   5.894 -0.1235  0.0053 -0.9029
17744THY     HO24365   6.223   9.291   5.812  1.9125 -2.0575  1.4401
17744THY    CA124366   6.311   9.253   5.970 -0.2776 -0.0193  0.5343
17744THY    CA224367   6.319   9.250   6.112 -0.4273  0.2445  0.0677
17744THY    CP124368   6.226   9.342   6.187  0.2923 -0.1984  0.0892
17744THY    HP124369   6.149   9.382   6.120 -0.5970  1.1986  0.8443
17744THY    CP224370   6.298   9.463   6.240 -0.5670 -0.6025 -0.2126
17744THY    HP224371   6.232   9.550   6.245 -0.7068  0.7665 -0.3772
17744THY    HP324372   6.388   9.488   6.182 -1.1019 -0.7326  1.6049
17744THY    HP424373   6.348   9.445   6.336 -1.0834 -0.3019 -0.0535
17744THY    CP324374   6.172   9.284   6.325 -0.2977  0.1678 -0.1381
17744THY    HP524375   6.111   9.362   6.374  0.3001  0.4413  0.1613
17744THY    HP624376   6.245   9.256   6.401 -0.0326 -0.7395 -2.0419
17744THY    HP724377   6.110   9.196   6.307 -0.1494 -0.7713 -0.0634
17744THY    CA324378   6.406   9.160   6.173  0.0831 -0.1918 -0.2678
17744THY    HA324379   6.415   9.147   6.280 -2.1235 -0.2140 -2.7921
17744THY    CA424380   6.495   9.084   6.097  0.2386  0.5901 -0.5835
17744THY    HA424381   6.572   9.027   6.147  1.8224  1.4198  2.1113
17744THY    CA524382   6.498   9.098   5.956  0.6655 -0.6423 -0.9738
17744THY    CM124383   6.594   9.031   5.874  0.6128 -0.0364  0.2202
17744THY    HM124384   6.605   9.071   5.773 -1.2976 -0.8617 -1.1405
17744THY    HM224385   6.564   8.926   5.865  0.0372  0.2650  0.3545
17744THY    HM324386   6.688   9.041   5.929  1.7525 -1.5289 -1.5811
17744THY    CA624387   6.400   9.173   5.890  0.3584 -0.2425 -0.2427
17744THY    HA624388   6.394   9.175   5.782 -1.8447 -0.1984 -1.1118
17745THY      O24389   8.204   4.512   2.719 -0.2421  0.6364 -0.3210
17745THY     HO24390   8.129   4.502   2.658  1.0763 -0.7006 -3.2227
17745THY    CA124391   8.209   4.407   2.801  0.0655 -0.1536 -0.1166
17745THY    CA224392   8.319   4.389   2.885  0.3045 -0.6090  0.2165
17745THY    CP124393   8.423   4.495   2.900  0.4675  0.1099  0.5409
17745THY    HP124394   8.420   4.569   2.819 -0.1017 -1.8767 -1.5605
17745THY    CP224395   8.561   4.432   2.917  0.0521  0.2764 -0.0210
17745THY    HP224396   8.631   4.516   2.910  0.6715  2.4959 -0.2829
17745THY    HP324397   8.587   4.359   2.841 -0.9799  0.9310 -1.1062
17745THY    HP424398   8.580   4.385   3.014 -0.2065  0.4191  0.1622
17745THY    CP324399   8.402   4.582   3.026 -0.0899 -0.5171 -0.0157
17745THY    HP524400   8.304   4.631   3.025  0.2719 -0.7239  0.7179
17745THY    HP624401   8.486   4.653   3.031  0.6604 -1.3089 -0.8137
17745THY    HP724402   8.417   4.522   3.116  1.9773 -1.1575 -0.5592
17745THY    CA324403   8.329   4.280   2.970 -0.4850 -0.2447  0.8549
17745THY    HA324404   8.412   4.273   3.040  0.7542 -1.6505  0.8866
17745THY    CA424405   8.233   4.179   2.962  0.2892  0.3031 -0.5193
17745THY    HA424406   8.250   4.085   3.014  0.2093  0.6719 -0.3327
17745THY    CA524407   8.138   4.188   2.869  0.3631 -0.0495  0.7614
17745THY    CM124408   8.036   4.079   2.863 -0.1530 -0.2292 -0.6669
17745THY    HM124409   8.056   4.005   2.784 -0.7452 -2.0431  1.0152
17745THY    HM224410   7.940   4.130   2.853  1.2179 -1.8826  1.8251
17745THY    HM324411   8.043   4.024   2.958  0.1938  1.6896  2.4422
17745THY    CA624412   8.120   4.298   2.794  0.1499  0.1593 -0.2706
17745THY    HA624413   8.032   4.311   2.732 -1.9312  2.8157 -0.8292
17746THY      O24414   7.913   2.623   7.974 -0.0168 -0.4904  0.8663
17746THY     HO24415   8.000   2.628   7.931  0.0242 -0.5099  0.1360
17746THY    CA124416   7.890   2.488   7.987  0.2499  0.5444 -0.3487
17746THY    CA224417   7.760   2.431   7.982 -0.8009  0.7950 -0.1655
17746THY    CP124418   7.640   2.522   7.981 -0.2308 -0.6836  0.4807
17746THY    HP124419   7.662   2.604   8.050  2.9011  0.2680 -1.0094
17746THY    CP224420   7.508   2.459   8.022  0.7784  0.2223 -0.3429
17746THY    HP224421   7.510   2.421   8.124 -1.3154  0.8071  0.9498
17746THY    HP324422   7.464   2.387   7.952  1.0576  0.1182 -0.4137
17746THY    HP424423   7.438   2.543   8.033 -0.8692  0.5449 -1.7093
17746THY    CP324424   7.633   2.589   7.849  1.0614 -0.7572  0.0722
17746THY    HP524425   7.732   2.616   7.810  0.9947  0.3900  2.0984
17746THY    HP624426   7.565   2.675   7.846 -0.4120 -1.1815 -1.0567
17746THY    HP724427   7.578   2.524   7.779  1.2395  0.2962 -1.2432
17746THY    CA324428   7.742   2.289   7.974  0.1907  0.1023  0.4145
17746THY    HA324429   7.648   2.241   7.953 -0.4222 -0.1947  1.6915
17746THY    CA424430   7.851   2.205   7.968  0.0039 -0.3609 -0.9621
17746THY    HA424431   7.843   2.098   7.951  0.3821 -1.9788 -0.7571
17746THY    CA524432   7.978   2.259   7.973 -0.1575 -0.1216 -0.2997
17746THY    CM124433   8.096   2.172   7.979  0.0389  0.2704 -0.5203
17746THY    HM124434   8.183   2.210   7.923 -0.2314  0.4524  0.3912
17746THY    HM224435   8.071   2.074   7.937 -1.2860  0.9850 -0.4986
17746THY    HM324436   8.129   2.165   8.083  1.0473 -0.0256 -0.4347
17746THY    CA624437   8.000   2.401   7.974  0.0718  0.6801  0.0757
17746THY    HA624438   8.104   2.433   7.969  0.3899 -1.6569 -1.1211
17747THY      O24439   8.006   7.887   2.344 -0.6203 -0.3635 -0.1180
17747THY     HO24440   8.045   7.967   2.305  0.2159 -0.6439 -0.6439
17747THY    CA124441   7.869   7.903   2.342  0.2103 -0.5304  0.0668
17747THY    CA224442   7.773   7.804   2.379  0.0167  0.0125 -0.1968
17747THY    CP124443   7.815   7.664   2.413  0.7138 -0.1475 -0.4103
17747THY    HP124444   7.914   7.655   2.458  0.6861 -0.1910 -0.9222
17747THY    CP224445   7.824   7.577   2.290  0.5027  0.5346  0.1221
17747THY    HP224446   7.898   7.496   2.287  0.4300 -1.4288  0.0867
17747THY    HP324447   7.860   7.641   2.209  0.3459  0.3627 -0.0022
17747THY    HP424448   7.727   7.536   2.258  1.0797 -0.7514 -0.2837
17747THY    CP324449   7.714   7.588   2.510 -0.4480 -0.5074  0.1136
17747THY    HP524450   7.616   7.566   2.466 -1.2514  0.0988  2.2446
17747THY    HP624451   7.701   7.648   2.601  2.7293  0.9592 -1.1372
17747THY    HP724452   7.767   7.496   2.539  2.0303 -2.0739  0.9561
17747THY    CA324453   7.634   7.834   2.373 -0.3810 -0.2302  0.0704
17747THY    HA324454   7.551   7.765   2.387 -0.0335 -0.6028 -0.4344
17747THY    CA424455   7.595   7.962   2.330  0.6926 -0.2656  0.4306
17747THY    HA424456   7.488   7.981   2.336  0.0299 -2.6976 -1.8507
17747THY    CA524457   7.691   8.059   2.294  0.0564 -0.2316  0.2938
17747THY    CM124458   7.652   8.196   2.251  0.2205  0.4437 -0.8416
17747THY    HM124459   7.719   8.246   2.180 -0.8725 -0.6505 -0.8746
17747THY    HM224460   7.640   8.261   2.339  0.9649 -1.4606  2.0658
17747THY    HM324461   7.559   8.199   2.192  0.8736 -0.6607  2.9694
17747THY    CA624462   7.828   8.022   2.292  1.1332 -0.5000 -1.0336
17747THY    HA624463   7.899   8.100   2.269  0.6392 -1.4063 -0.8448
17748THY      O24464   0.544   5.565   2.549  0.3361  0.1289  0.3017
17748THY     HO24465   0.505   5.654   2.554 -0.8745 -1.1199 -0.1313
17748THY    CA124466   0.457   5.476   2.615 -0.5901 -1.0378 -0.9707
17748THY    CA224467   0.495   5.346   2.640 -0.0510  0.1944  0.3612
17748THY    CP124468   0.640   5.295   2.622 -0.1986 -0.5197  0.2362
17748THY    HP124469   0.709   5.366   2.574  0.8454 -0.3018 -0.6139
17748THY    CP224470   0.648   5.179   2.522 -0.3198  0.1024 -0.4241
17748THY    HP224471   0.603   5.086   2.558 -1.0155  0.2670 -0.0318
17748THY    HP324472   0.754   5.157   2.508 -0.1684 -0.2449  0.5013
17748THY    HP424473   0.601   5.207   2.427 -1.4417  1.0183  0.9036
17748THY    CP324474   0.703   5.251   2.759  0.5627  0.1303 -0.8759
17748THY    HP524475   0.633   5.183   2.809 -1.2531 -2.0652 -0.7305
17748THY    HP624476   0.739   5.335   2.820  1.8125  0.4309 -1.6063
17748THY    HP724477   0.787   5.184   2.739  0.0475 -0.5460 -1.3290
17748THY    CA324478   0.398   5.249   2.686 -0.2441  0.0830  0.4239
17748THY    HA324479   0.435   5.156   2.729 -1.6834  1.5345  0.4780
17748THY    CA424480   0.265   5.293   2.707  0.1712  0.7651  0.2265
17748THY    HA424481   0.198   5.221   2.753 -0.2063  0.0744  0.1314
17748THY    CA524482   0.234   5.428   2.687  0.2933  0.5413 -0.4568
17748THY    CM124483   0.094   5.467   2.719 -0.0952 -0.2861  0.3258
17748THY    HM124484   0.017   5.428   2.651 -0.7891 -0.7327  2.3339
17748THY    HM224485   0.080   5.576   2.713 -1.3155 -0.5427  0.1674
17748THY    HM324486   0.056   5.428   2.814  2.3548  0.3680 -0.6485
17748THY    CA624487   0.324   5.521   2.639 -0.9203  0.0127  0.1723
17748THY    HA624488   0.292   5.621   2.613  2.3272 -3.1218  0.6167
17749THY      O24489   8.442   2.896   3.534 -0.0080  0.7853  0.4332
17749THY     HO24490   8.496   2.875   3.456 -0.4129  0.5954  0.0856
17749THY    CA124491   8.389   3.010   3.485  0.6199  0.1696 -0.3420
17749THY    CA224492   8.299   3.083   3.562  0.7756  0.1347  0.3779
17749THY    CP124493   8.254   3.042   3.699 -0.2864  0.1615  0.0675
17749THY    HP124494   8.255   2.933   3.698  0.3721 -0.6437  0.0707
17749THY    CP224495   8.115   3.081   3.733  0.0224 -0.7755 -0.1842
17749THY    HP224496   8.120   3.183   3.773 -1.3816  1.1865 -0.8202
17749THY    HP324497   8.078   3.023   3.818  1.7183  0.8714  1.0360
17749THY    HP424498   8.044   3.072   3.649  0.4594 -1.1893  0.2106
17749THY    CP324499   8.353   3.108   3.800  0.7634 -0.7763  0.3685
17749THY    HP524500   8.460   3.096   3.777  1.7818  3.0222  1.0093
17749THY    HP624501   8.324   3.065   3.897 -2.4995 -1.4898  0.7083
17749THY    HP724502   8.330   3.215   3.796 -1.6447 -2.0312 -0.1365
17749THY    CA324503   8.258   3.204   3.514  0.1788 -0.0262 -0.0487
17749THY    HA324504   8.191   3.276   3.561  1.2086  0.1211  0.8363
17749THY    CA424505   8.305   3.250   3.393  0.5899  0.6645  0.8792
17749THY    HA424506   8.268   3.345   3.354 -0.0085 -0.1916  0.3129
17749THY    CA524507   8.385   3.173   3.310  0.1342  0.0291 -0.2489
17749THY    CM124508   8.420   3.233   3.174 -0.2695  0.3614 -0.5042
17749THY    HM124509   8.326   3.256   3.123 -0.0147  0.0544 -0.1411
17749THY    HM224510   8.481   3.160   3.120 -1.1733 -1.3167 -0.0609
17749THY    HM324511   8.477   3.326   3.183 -2.1447 -0.0000  0.7248
17749THY    CA624512   8.432   3.045   3.357 -0.5852 -0.2741  0.1011
17749THY    HA624513   8.491   2.976   3.298 -0.5294 -0.6586  0.4687
17750THY      O24514   9.103   5.169   4.959  0.2977 -0.3230 -0.1540
17750THY     HO24515   9.021   5.161   4.907  0.7099 -0.8638 -0.9842
17750THY    CA124516   9.145   5.042   4.968  1.0448 -0.3731 -0.0766
17750THY    CA224517   9.271   5.012   5.022  0.3169 -1.2680 -0.4875
17750THY    CP124518   9.337   5.119   5.112  0.9529  0.1872  0.1283
17750THY    HP124519   9.271   5.203   5.137 -0.0689 -0.1470 -0.5634
17750THY    CP224520   9.462   5.171   5.035  0.0350  0.4104  0.2486
17750THY    HP224521   9.509   5.240   5.106  1.1115  1.3192 -1.3436
17750THY    HP324522   9.443   5.227   4.943 -0.6406  1.6142  2.0911
17750THY    HP424523   9.535   5.091   5.017 -0.3831 -0.9260  0.1493
17750THY    CP324524   9.386   5.067   5.251 -0.1919  0.3459  0.1526
17750THY    HP524525   9.443   4.976   5.228 -0.5643 -2.0587  0.4434
17750THY    HP624526   9.295   5.058   5.310  0.1973  0.9614  0.2366
17750THY    HP724527   9.460   5.133   5.297  0.3255  0.1017 -0.2447
17750THY    CA324528   9.323   4.882   5.005 -0.2621 -0.2424  0.2217
17750THY    HA324529   9.423   4.864   5.046  0.2968 -1.0300  1.4567
17750THY    CA424530   9.251   4.783   4.930  0.1752  0.1806 -0.0392
17750THY    HA424531   9.296   4.685   4.917 -0.4047  1.3439 -0.4726
17750THY    CA524532   9.117   4.809   4.895 -0.3702  0.6162 -0.2754
17750THY    CM124533   9.041   4.704   4.813 -0.0999  0.2170 -0.5625
17750THY    HM124534   8.933   4.707   4.831 -0.1821 -0.2668 -0.6357
17750THY    HM224535   9.079   4.605   4.843  1.2128 -1.4217 -0.6022
17750THY    HM324536   9.067   4.720   4.708  0.8502  0.6796  1.2427
17750THY    CA624537   9.068   4.943   4.905 -0.2425  0.1122  0.2652
17750THY    HA624538   8.979   4.962   4.847  0.0807  0.1253  1.9988
17751THY      O24539   1.892   2.338   6.930 -0.0449  0.0194 -0.0219
17751THY     HO24540   1.867   2.370   6.842  0.3213 -0.3588 -0.7565
17751THY    CA124541   1.891   2.203   6.918  0.2542 -0.0346  0.1447
17751THY    CA224542   1.927   2.114   7.024  0.2582  0.1360 -0.8537
17751THY    CP124543   1.960   2.169   7.167  0.2541 -0.3559 -0.3705
17751THY    HP124544   1.942   2.277   7.172 -2.9088 -0.3451 -0.8116
17751THY    CP224545   2.106   2.147   7.201  0.5700 -0.0719  0.3703
17751THY    HP224546   2.180   2.162   7.121  1.1579  0.7543  2.2286
17751THY    HP324547   2.127   2.042   7.221 -1.4418 -1.2695 -0.3058
17751THY    HP424548   2.135   2.222   7.276  0.4424  0.1659  0.1818
17751THY    CP324549   1.871   2.120   7.273 -0.5237 -0.1153  0.5653
17751THY    HP524550   1.901   2.015   7.286  1.2687 -1.6357  0.8399
17751THY    HP624551   1.767   2.138   7.245 -0.9143 -0.0941 -1.3783
17751THY    HP724552   1.903   2.178   7.360 -0.6516 -0.1774  0.7275
17751THY    CA324553   1.929   1.978   6.998  0.5140  0.2067 -0.1915
17751THY    HA324554   1.957   1.915   7.082  2.7543  1.4280  2.2568
17751THY    CA424555   1.873   1.928   6.874 -0.8819  0.0239  0.7406
17751THY    HA424556   1.864   1.821   6.858  1.3353  0.6236  0.4339
17751THY    CA524557   1.833   2.020   6.767  0.1507 -0.6270  0.6061
17751THY    CM124558   1.782   1.973   6.633  0.2532 -0.7604 -0.5603
17751THY    HM124559   1.693   1.909   6.645  1.0384  0.2431 -1.5048
17751THY    HM224560   1.848   1.920   6.563 -0.9277 -3.7475  1.6358
17751THY    HM324561   1.736   2.056   6.579  0.3586  1.5361  1.0680
17751THY    CA624562   1.850   2.157   6.794 -0.3020  0.1769 -0.3661
17751THY    HA624563   1.823   2.229   6.717 -1.2903  0.3863 -0.5072
17752THY      O24564   4.914   6.331   2.042 -0.1383  0.0951 -0.4932
17752THY     HO24565   4.981   6.262   2.060  1.7817  1.4458  1.5981
17752THY    CA124566   4.789   6.284   2.066  0.3636 -0.0060 -0.2340
17752THY    CA224567   4.688   6.382   2.088 -1.0232  0.2939  0.0330
17752THY    CP124568   4.716   6.531   2.092  0.1819 -0.6776  0.0822
17752THY    HP124569   4.816   6.565   2.066  1.2109  1.8257 -0.8164
17752THY    CP224570   4.702   6.574   2.236 -0.1817  0.2078 -0.3969
17752THY    HP224571   4.789   6.533   2.289  0.2276 -0.8283 -0.9081
17752THY    HP324572   4.605   6.544   2.276 -0.6563  1.2891  2.2887
17752THY    HP424573   4.705   6.683   2.251  0.9995 -0.1677 -0.3515
17752THY    CP324574   4.624   6.617   2.002  0.2798 -0.5139 -0.5565
17752THY    HP524575   4.638   6.724   2.016 -0.3883 -2.0887 -0.2253
17752THY    HP624576   4.516   6.606   2.021  0.3377  1.7530  1.8373
17752THY    HP724577   4.643   6.605   1.894 -1.1797 -0.7910 -0.6265
17752THY    CA324578   4.558   6.339   2.117  0.1567  0.1765  0.2410
17752THY    HA324579   4.474   6.407   2.129 -1.0615 -0.6166 -1.0569
17752THY    CA424580   4.531   6.202   2.116 -0.0115  0.0293 -0.2354
17752THY    HA424581   4.429   6.168   2.134 -0.4958  0.1996  1.2477
17752THY    CA524582   4.633   6.110   2.104  0.6959  0.5546  0.0911
17752THY    CM124583   4.602   5.963   2.112 -0.5023 -0.9438  0.4644
17752THY    HM124584   4.527   5.936   2.037 -1.5169  0.1615  0.1158
17752THY    HM224585   4.576   5.938   2.216  0.8286 -0.8919 -0.8026
17752THY    HM324586   4.690   5.901   2.095 -1.0638  0.8222 -0.8950
17752THY    CA624587   4.762   6.153   2.072  0.0064  0.5774  0.2652
17752THY    HA624588   4.842   6.080   2.079 -0.7333  3.1584 -0.4150
17753THY      O24589   0.869   0.447   7.469 -0.6355 -0.1881 -0.1800
17753THY     HO24590   0.930   0.472   7.398 -0.1895  0.3494  0.2795
17753THY    CA124591   0.816   0.563   7.504  0.6878 -0.5536  0.5419
17753THY    CA224592   0.742   0.578   7.624 -1.2928 -0.3832 -0.2193
17753THY    CP124593   0.748   0.462   7.732 -0.3529 -0.4402 -0.5356
17753THY    HP124594   0.829   0.392   7.711  0.1991  3.5609 -1.3008
17753THY    CP224595   0.620   0.391   7.764 -0.5372  0.0459 -0.3234
17753THY    HP224596   0.569   0.367   7.670  0.6015 -0.6933  0.0807
17753THY    HP324597   0.551   0.459   7.814  1.1491  0.3389  1.2278
17753THY    HP424598   0.635   0.300   7.823  0.9005  1.1752  0.6101
17753THY    CP324599   0.797   0.540   7.859 -0.0132  0.4939  0.0839
17753THY    HP524600   0.724   0.619   7.877 -2.3477  1.1771 -2.0887
17753THY    HP624601   0.885   0.601   7.836 -0.5380 -0.8511  0.3748
17753THY    HP724602   0.805   0.475   7.947 -2.0181 -0.5908 -1.7559
17753THY    CA324603   0.677   0.702   7.646 -0.0269  0.2631  0.0881
17753THY    HA324604   0.617   0.727   7.733  0.0806  0.2370  0.4308
17753THY    CA424605   0.683   0.798   7.549  0.1328 -0.6287  0.6389
17753THY    HA424606   0.625   0.889   7.558 -1.6821 -0.2268 -0.5032
17753THY    CA524607   0.760   0.777   7.437  0.3868  0.1468  0.4265
17753THY    CM124608   0.766   0.882   7.343  0.2198  0.4385  0.1241
17753THY    HM124609   0.860   0.898   7.290 -0.5237 -0.2858  2.4521
17753THY    HM224610   0.729   0.974   7.388 -0.5565 -1.6784  0.9225
17753THY    HM324611   0.694   0.856   7.264  0.4876 -0.1966  1.2539
17753THY    CA624612   0.824   0.658   7.411 -0.2321 -0.8491  0.2330
17753THY    HA624613   0.866   0.641   7.313  0.5189 -0.5354  0.2478
17754THY      O24614   5.128   4.199   6.270  0.1812 -0.1612  0.1678
17754THY     HO24615   5.142   4.220   6.176 -0.1208 -0.1084  0.6032
17754THY    CA124616   4.992   4.177   6.282 -0.6357 -0.4387  0.5848
17754THY    CA224617   4.938   4.099   6.388  0.2313  0.4190 -0.5779
17754THY    CP124618   5.034   4.054   6.491 -0.9565  0.2843  0.7659
17754THY    HP124619   5.126   4.114   6.491  0.5568 -1.3736 -1.4019
17754THY    CP224620   5.085   3.913   6.450  0.7623  0.6285  0.3166
17754THY    HP224621   5.167   3.881   6.515  0.0106  0.6407 -1.7911
17754THY    HP324622   5.131   3.924   6.351  1.3191  0.8776  0.2520
17754THY    HP424623   5.008   3.835   6.444  0.1748  2.1818  0.7426
17754THY    CP324624   4.985   4.058   6.633  0.5611  0.0930  0.4692
17754THY    HP524625   4.953   4.159   6.659 -4.3568 -1.0144 -0.5570
17754THY    HP624626   5.058   4.032   6.711  0.8402  0.1450  1.3931
17754THY    HP724627   4.897   3.994   6.644  1.1740 -0.3860 -0.4832
17754THY    CA324628   4.802   4.063   6.390  0.0583  0.6436 -0.2331
17754THY    HA324629   4.756   3.996   6.462 -1.2150  0.3828  0.3233
17754THY    CA424630   4.716   4.123   6.295 -0.0838 -0.0195  0.0002
17754THY    HA424631   4.610   4.102   6.288  0.0755 -1.6979 -0.3760
17754THY    CA524632   4.769   4.210   6.195 -0.0567  0.0961 -0.1026
17754THY    CM124633   4.672   4.263   6.095  0.4572 -0.2003  0.5892
17754THY    HM124634   4.624   4.174   6.053  0.9913 -1.9048  1.0661
17754THY    HM224635   4.714   4.319   6.010  0.3897  0.7835  2.1722
17754THY    HM324636   4.599   4.331   6.140  0.1743 -0.3804  0.4049
17754THY    CA624637   4.906   4.229   6.184  0.1399 -0.3034 -0.3298
17754THY    HA624638   4.941   4.280   6.095 -0.1864 -0.7468 -0.8670
17755THY      O24639   2.749   9.147   2.777  0.7110  0.7590  0.2932
17755THY     HO24640   2.832   9.140   2.827  1.7121 -0.5444  1.9307
17755THY    CA124641   2.763   9.061   2.667 -0.3306 -0.1772 -0.0143
17755THY    CA224642   2.659   9.007   2.591 -0.6387  0.1432  0.3010
17755THY    CP124643   2.518   9.029   2.635  0.2578  0.2338  0.1042
17755THY    HP124644   2.524   9.087   2.728  2.4776  0.3476 -0.2213
17755THY    CP224645   2.449   8.896   2.665  0.4311 -0.3100  0.1552
17755THY    HP224646   2.415   8.833   2.582 -1.0528 -0.0456  0.5579
17755THY    HP324647   2.365   8.907   2.736 -0.0269  0.3749 -5.0640
17755THY    HP424648   2.518   8.831   2.721  0.0412  0.1465  0.1246
17755THY    CP324649   2.436   9.113   2.533  1.3226  0.4633 -0.2150
17755THY    HP524650   2.450   9.086   2.427  1.2045  0.4868 -0.3714
17755THY    HP624651   2.470   9.215   2.551 -0.4736  2.1562  0.1459
17755THY    HP724652   2.330   9.117   2.560  1.2099  0.9414 -3.2808
17755THY    CA324653   2.687   8.918   2.481 -0.0719 -1.1506 -0.1319
17755THY    HA324654   2.604   8.879   2.423  0.3737 -0.3556 -2.4253
17755THY    CA424655   2.822   8.893   2.453 -0.3542  0.4249  0.2473
17755THY    HA424656   2.844   8.828   2.368 -1.7343 -1.5140  2.1603
17755THY    CA524657   2.930   8.942   2.535  0.0794 -1.2276  0.4258
17755THY    CM124658   3.068   8.902   2.519 -0.3714  0.0331 -0.0753
17755THY    HM124659   3.127   8.970   2.457 -0.0831  0.6731  0.2687
17755THY    HM224660   3.075   8.807   2.466 -2.0280  0.9042 -0.7334
17755THY    HM324661   3.111   8.885   2.619 -2.7122  1.0798 -0.3135
17755THY    CA624662   2.892   9.030   2.639 -0.2965 -0.2004 -0.1768
17755THY    HA624663   2.972   9.071   2.700 -1.0347  0.2151  0.6742
17756THY      O24664   6.155   1.882   4.674 -0.1229  0.1940  0.1504
17756THY     HO24665   6.210   1.803   4.688 -0.5662  0.6882 -0.0810
17756THY    CA124666   6.039   1.853   4.734  0.6229  0.4733  0.0969
17756THY    CA224667   5.922   1.918   4.683 -0.0881  0.2041 -0.0665
17756THY    CP124668   5.924   2.026   4.570  0.2253 -0.0567 -0.5764
17756THY    HP124669   6.007   2.003   4.503  1.3676  1.7366 -1.9896
17756THY    CP224670   5.930   2.169   4.625  0.1445 -0.2151 -0.1159
17756THY    HP224671   6.021   2.180   4.686 -0.6553  1.0553 -0.3945
17756THY    HP324672   5.845   2.191   4.691 -0.3124 -0.7353 -0.3158
17756THY    HP424673   5.916   2.242   4.544 -0.1891  0.9687  1.1758
17756THY    CP324674   5.796   2.012   4.481 -0.1270 -0.3622 -0.2163
17756THY    HP524675   5.820   2.059   4.385  0.1536 -0.7873 -1.2058
17756THY    HP624676   5.718   2.061   4.541 -1.9848  0.6812 -4.0737
17756THY    HP724677   5.776   1.908   4.454  3.0733  0.9230 -1.2961
17756THY    CA324678   5.804   1.881   4.748  0.1018 -0.4441  0.0565
17756THY    HA324679   5.704   1.913   4.718 -1.7045  1.7418 -2.9339
17756THY    CA424680   5.800   1.786   4.855 -0.4691 -0.1179  0.3953
17756THY    HA424681   5.712   1.758   4.912  1.3095  2.7562  0.2372
17756THY    CA524682   5.911   1.710   4.883 -0.1109  0.3295 -0.4114
17756THY    CM124683   5.906   1.599   4.985 -0.7661 -0.0069  0.1059
17756THY    HM124684   6.004   1.559   5.012  1.1165 -3.3279  2.0510
17756THY    HM224685   5.851   1.511   4.950 -1.4490  0.4415  0.3410
17756THY    HM324686   5.839   1.624   5.069 -0.7700 -0.0537  0.2545
17756THY    CA624687   6.032   1.748   4.829 -0.8231  0.2876 -0.6336
17756THY    HA624688   6.125   1.701   4.857 -0.0317 -0.1038  0.6347
17757THY      O24689   4.111   4.459   5.491 -0.0067  0.1681 -0.3504
17757THY     HO24690   4.161   4.541   5.475 -0.9704  0.1634  0.2484
17757THY    CA124691   4.028   4.489   5.595  0.5464  0.3808  0.3869
17757THY    CA224692   3.968   4.390   5.677  0.3669 -0.2058 -0.6646
17757THY    CP124693   3.985   4.239   5.649 -0.4427 -0.8190  0.2460
17757THY    HP124694   4.053   4.212   5.567 -1.9243 -1.3771 -2.0745
17757THY    CP224695   3.844   4.197   5.619 -0.1160 -0.4681 -0.6009
17757THY    HP224696   3.845   4.089   5.601 -1.3443 -2.8988 -0.2779
17757THY    HP324697   3.829   4.241   5.520 -1.1200  0.7653  2.0215
17757THY    HP424698   3.766   4.233   5.687  0.7754 -0.8435  2.2980
17757THY    CP324699   4.033   4.176   5.772 -0.2414 -1.0925  0.1659
17757THY    HP524700   4.066   4.071   5.768  0.3646  1.5344  0.1870
17757THY    HP624701   3.972   4.187   5.862  1.4871  0.0489  0.7444
17757THY    HP724702   4.117   4.233   5.812 -1.1979  2.0290 -0.4137
17757THY    CA324703   3.885   4.446   5.781 -0.5593  0.0224 -0.2140
17757THY    HA324704   3.842   4.378   5.854  0.3787 -0.3047 -1.1922
17757THY    CA424705   3.863   4.577   5.795  1.0983 -0.7791 -0.9843
17757THY    HA424706   3.802   4.617   5.876  0.6581 -1.0462 -1.1102
17757THY    CA524707   3.912   4.671   5.705 -0.3528  0.1287  0.0398
17757THY    CM124708   3.887   4.816   5.705 -0.5622 -0.0258 -0.3595
17757THY    HM124709   3.974   4.847   5.763 -0.1439 -1.3006  0.9722
17757THY    HM224710   3.791   4.833   5.756 -1.5700 -2.0810  0.5296
17757THY    HM324711   3.887   4.865   5.607  0.2299  0.3942  0.5166
17757THY    CA624712   3.999   4.626   5.609  0.8360  0.0590  0.2235
17757THY    HA624713   4.041   4.694   5.535 -0.0377 -0.0202  0.6939
17758THY      O24714   7.758   8.343   4.213 -0.6616  0.3812 -0.0019
17758THY     HO24715   7.815   8.411   4.174  1.0043  1.6848 -0.5862
17758THY    CA124716   7.782   8.334   4.347  0.0556 -0.8112 -0.2080
17758THY    CA224717   7.688   8.285   4.437  0.1420  0.2445 -0.2908
17758THY    CP124718   7.558   8.224   4.374 -0.3128 -0.0276 -0.0746
17758THY    HP124719   7.575   8.194   4.270  1.6705  0.0888  0.4981
17758THY    CP224720   7.440   8.314   4.393 -0.4666 -0.2139 -0.7282
17758THY    HP224721   7.465   8.411   4.348  2.2913  1.7480 -0.4029
17758THY    HP324722   7.418   8.325   4.500  1.0357  0.1272 -0.7859
17758THY    HP424723   7.353   8.275   4.340 -1.9134  1.4876  0.0164
17758THY    CP324724   7.535   8.090   4.437  0.1355 -0.2415  0.2675
17758THY    HP524725   7.615   8.019   4.412  0.5227 -2.2521  1.3472
17758THY    HP624726   7.437   8.046   4.414  0.4589 -2.6507  0.6708
17758THY    HP724727   7.542   8.102   4.546  1.2614 -0.4648  1.9475
17758THY    CA324728   7.704   8.311   4.574 -0.3208 -0.0238 -0.5274
17758THY    HA324729   7.630   8.280   4.648  2.0339  1.9943 -1.6922
17758THY    CA424730   7.818   8.379   4.626 -0.1877  0.5656 -0.7210
17758THY    HA424731   7.841   8.388   4.731  0.3597  0.3684  0.3545
17758THY    CA524732   7.914   8.419   4.539 -0.5698  0.3660 -0.5294
17758THY    CM124733   8.042   8.474   4.598 -0.1632 -0.4098 -0.0895
17758THY    HM124734   8.046   8.575   4.639  2.4193  0.7201 -0.5605
17758THY    HM224735   8.122   8.465   4.524  1.1124  0.7436  1.1555
17758THY    HM324736   8.073   8.418   4.688 -1.7677  0.4387  0.3193
17758THY    CA624737   7.899   8.400   4.399  0.1255 -0.0504 -0.4407
17758THY    HA624738   7.976   8.440   4.335  1.3045  0.3660 -1.9222
17759THY      O24739   8.473   8.255   5.978  1.0793  0.6672  0.1188
17759THY     HO24740   8.415   8.329   5.953 -1.7701  0.8625 -1.8667
17759THY    CA124741   8.596   8.267   5.919 -0.4337 -0.5684  0.4171
17759THY    CA224742   8.679   8.153   5.917 -0.5085  0.6033 -0.4430
17759THY    CP124743   8.645   8.029   5.990  0.5951  0.1027 -0.6607
17759THY    HP124744   8.597   8.060   6.083 -0.7807 -0.4478 -1.0778
17759THY    CP224745   8.758   7.951   6.063  0.5448  0.0292 -0.4856
17759THY    HP224746   8.719   7.874   6.130 -0.4556 -0.3445 -0.3079
17759THY    HP324747   8.817   8.023   6.121 -1.7870  2.2297 -0.2083
17759THY    HP424748   8.821   7.896   5.991  2.9363  1.6790 -0.0796
17759THY    CP324749   8.566   7.931   5.905  0.1245 -0.3316  0.7112
17759THY    HP524750   8.478   7.980   5.861  0.0437  0.4145  1.2439
17759THY    HP624751   8.526   7.842   5.955  0.1038 -1.6706 -0.0510
17759THY    HP724752   8.642   7.906   5.830  2.3097  1.3784  1.9134
17759THY    CA324753   8.809   8.165   5.843  0.2799 -0.7268  0.2236
17759THY    HA324754   8.872   8.077   5.833  0.4794  1.3046  0.0944
17759THY    CA424755   8.849   8.290   5.795 -0.1051 -0.3323  0.5287
17759THY    HA424756   8.945   8.293   5.745  0.7947  1.3162  0.1710
17759THY    CA524757   8.759   8.395   5.790 -0.1012 -0.2858 -0.1353
17759THY    CM124758   8.792   8.529   5.722  0.1896 -0.1741  0.5642
17759THY    HM124759   8.899   8.543   5.705  0.7543  1.9778 -0.6678
17759THY    HM224760   8.765   8.605   5.796 -0.4518  1.3630 -1.0886
17759THY    HM324761   8.746   8.526   5.622 -0.3802  0.1140 -0.7862
17759THY    CA624762   8.630   8.384   5.858  0.2477  0.5302 -0.0017
17759THY    HA624763   8.556   8.462   5.862 -0.7418  1.0084 -0.9400
17760THY      O24764   0.598   8.836   7.869 -0.7479  0.1056 -0.0395
17760THY     HO24765   0.613   8.922   7.911 -0.4942 -2.0415  1.0311
17760THY    CA124766   0.467   8.823   7.836 -0.6631 -0.6081 -0.3863
17760THY    CA224767   0.435   8.765   7.711  0.2318  0.5475 -0.3848
17760THY    CP124768   0.538   8.725   7.609 -1.0918  0.5099  0.0196
17760THY    HP124769   0.633   8.699   7.657  0.2336 -1.2518  1.3689
17760THY    CP224770   0.571   8.844   7.511  0.5275 -0.4233  0.0763
17760THY    HP224771   0.662   8.821   7.454 -0.1320 -1.7158  0.5887
17760THY    HP324772   0.614   8.923   7.573  4.1573 -1.3399 -0.9796
17760THY    HP424773   0.489   8.866   7.442  0.7543 -0.8752 -0.4525
17760THY    CP324774   0.497   8.603   7.526 -0.0392 -0.0251 -0.0351
17760THY    HP524775   0.409   8.609   7.460 -0.5703  0.7908  1.7032
17760THY    HP624776   0.487   8.519   7.594  0.3150 -1.6327 -1.4298
17760THY    HP724777   0.579   8.579   7.458  0.3683  0.2754  0.4848
17760THY    CA324778   0.299   8.776   7.673  0.3999  0.3139 -0.7767
17760THY    HA324779   0.280   8.748   7.570  0.9362  0.4103 -1.5558
17760THY    CA424780   0.200   8.831   7.756 -0.0086 -0.0745  0.0065
17760THY    HA424781   0.097   8.853   7.730 -0.1690  1.1552  0.8210
17760THY    CA524782   0.237   8.879   7.877  0.2399 -0.5308  0.0474
17760THY    CM124783   0.133   8.941   7.959 -0.2146 -0.1158 -0.0060
17760THY    HM124784   0.174   8.973   8.056  1.5426 -1.0930  0.8835
17760THY    HM224785   0.048   8.876   7.982 -1.7869 -0.7169  1.7324
17760THY    HM324786   0.092   9.032   7.914  2.0089  0.5226  1.4174
17760THY    CA624787   0.374   8.883   7.915  0.2582  0.1507 -0.4388
17760THY    HA624788   0.397   8.940   8.004  0.5486 -0.5122  0.5074
17761THY      O24789   1.727   0.416   5.033 -0.1524  0.1300  0.2757
17761THY     HO24790   1.705   0.466   4.953  0.9625  0.0985  0.7590
17761THY    CA124791   1.611   0.402   5.104  0.0900 -0.6085 -0.2218
17761THY    CA224792   1.608   0.305   5.212  1.1823 -0.1469 -0.0997
17761THY    CP124793   1.732   0.227   5.247 -0.5008 -0.4379 -0.2647
17761THY    HP124794   1.800   0.226   5.162  0.1010 -0.0433  1.7905
17761THY    CP224795   1.696   0.070   5.266  0.4072 -0.0652 -0.5924
17761THY    HP224796   1.624   0.035   5.192 -1.3399  1.6040 -0.6799
17761THY    HP324797   1.661   0.054   5.369  2.2930  0.4944 -1.4839
17761THY    HP424798   1.792   0.017   5.262  0.5973  0.9188 -0.3512
17761THY    CP324799   1.801   0.276   5.376 -0.3561  0.1973  0.1103
17761THY    HP524800   1.721   0.289   5.450 -1.6663 -1.3497  1.2022
17761THY    HP624801   1.858   0.367   5.355  1.9812  1.1958 -1.0415
17761THY    HP724802   1.875   0.204   5.414  0.0888 -2.2874 -0.8574
17761THY    CA324803   1.489   0.282   5.284  0.5074 -0.0700 -1.0454
17761THY    HA324804   1.485   0.213   5.367 -2.3259  0.1055 -0.7995
17761THY    CA424805   1.373   0.356   5.243 -0.5915 -0.3961  0.0292
17761THY    HA424806   1.281   0.340   5.297 -0.7870 -0.6646  0.2585
17761THY    CA524807   1.378   0.454   5.137 -0.2068 -0.5486 -0.2087
17761THY    CM124808   1.257   0.534   5.112  0.5911  0.2959 -0.5576
17761THY    HM124809   1.269   0.604   5.028 -0.7686 -0.8655 -1.6671
17761THY    HM224810   1.224   0.586   5.202  1.5318  0.0187  0.5655
17761THY    HM324811   1.179   0.460   5.092  1.4809 -0.5827 -1.3064
17761THY    CA624812   1.495   0.474   5.071 -0.4171 -0.2601 -0.1724
17761THY    HA624813   1.504   0.546   4.990  1.2068  0.2336  0.2267
17762THY      O24814   1.361   4.337   2.318 -0.4898  0.0685  0.0659
17762THY     HO24815   1.434   4.276   2.338 -0.6800 -1.0574 -0.5765
17762THY    CA124816   1.323   4.309   2.190 -0.0387  0.5754 -0.2387
17762THY    CA224817   1.257   4.410   2.122  0.0653  0.4422  0.0183
17762THY    CP124818   1.237   4.552   2.181 -0.3447  0.2746 -0.1585
17762THY    HP124819   1.266   4.561   2.287  2.4353 -0.4964  1.0004
17762THY    CP224820   1.101   4.605   2.158  0.5537  0.6667 -0.8290
17762THY    HP224821   1.029   4.526   2.183 -0.2208  2.1101  0.2871
17762THY    HP324822   1.096   4.629   2.051  0.3045  0.5887 -1.2140
17762THY    HP424823   1.071   4.683   2.229  0.1054 -0.9039  0.4821
17762THY    CP324824   1.340   4.643   2.107  0.6275  0.1996 -0.0590
17762THY    HP524825   1.443   4.621   2.139  0.3368 -0.3568 -2.5224
17762THY    HP624826   1.310   4.747   2.128  1.3088  0.3799  0.1065
17762THY    HP724827   1.318   4.637   2.000 -0.8238  0.5557 -2.3779
17762THY    CA324828   1.219   4.380   1.983  0.2086 -0.2562 -0.6892
17762THY    HA324829   1.183   4.459   1.916  0.6897 -0.3297 -0.5329
17762THY    CA424830   1.237   4.244   1.932 -1.2308  0.2027 -0.0339
17762THY    HA424831   1.227   4.230   1.825  1.8198 -0.2286  0.4131
17762THY    CA524832   1.300   4.153   2.017 -0.1112 -0.3200  0.3254
17762THY    CM124833   1.334   4.019   1.969  0.1398 -0.9082  0.8849
17762THY    HM124834   1.332   3.943   2.047  0.8986 -1.7881 -0.0693
17762THY    HM224835   1.438   4.023   1.934  0.0517 -1.4719 -0.8564
17762THY    HM324836   1.262   3.990   1.892 -0.0271 -0.3559 -0.2002
17762THY    CA624837   1.337   4.183   2.149  0.6331  0.2481 -0.4821
17762THY    HA624838   1.376   4.109   2.218 -1.7097  1.8646 -0.3155
17763THY      O24839   1.675   8.378   4.185  0.5704  1.2365  0.1558
17763THY     HO24840   1.733   8.301   4.195 -0.4842  0.7179 -0.7266
17763THY    CA124841   1.572   8.326   4.112  0.1278  0.2399 -0.4667
17763THY    CA224842   1.443   8.362   4.135 -0.4982  0.6968 -0.1343
17763THY    CP124843   1.399   8.470   4.232 -0.1631  0.7046  1.0764
17763THY    HP124844   1.481   8.498   4.300  0.0147  0.6181  0.7656
17763THY    CP224845   1.293   8.428   4.327 -0.3935  0.2610 -0.4827
17763THY    HP224846   1.206   8.434   4.261 -0.4338  0.3857  0.4513
17763THY    HP324847   1.285   8.499   4.411  0.9876 -0.5287  0.6608
17763THY    HP424848   1.316   8.330   4.369 -1.7236 -1.9797 -1.8380
17763THY    CP324849   1.358   8.597   4.159  0.1823 -0.3921 -0.4398
17763THY    HP524850   1.284   8.578   4.081  1.7167 -1.9200 -0.3673
17763THY    HP624851   1.439   8.638   4.097  0.2795 -1.0324 -1.5659
17763THY    HP724852   1.320   8.668   4.234  0.8770  1.6345 -2.1127
17763THY    CA324853   1.339   8.305   4.060  0.2864  0.2585  0.3288
17763THY    HA324854   1.234   8.331   4.074 -0.0316 -1.4552  0.0782
17763THY    CA424855   1.369   8.208   3.963  0.8535  0.2213 -0.3128
17763THY    HA424856   1.292   8.157   3.905  0.9180  1.7295 -2.2294
17763THY    CA524857   1.498   8.173   3.940 -0.0567  0.0684  0.8402
17763THY    CM124858   1.529   8.089   3.816 -1.0415 -0.0624 -0.1402
17763THY    HM124859   1.468   8.099   3.725  2.4791 -2.5512  0.6672
17763THY    HM224860   1.533   7.985   3.851  1.3842 -0.2964 -0.1872
17763THY    HM324861   1.631   8.117   3.786 -1.7460 -0.7662  1.7871
17763THY    CA624862   1.599   8.232   4.015 -0.0012 -0.0569 -0.1739
17763THY    HA624863   1.703   8.211   3.990  0.1347 -0.5057  0.9758
17764THY      O24864   1.634   5.202   2.671 -0.0756 -0.6036 -0.0964
17764THY     HO24865   1.645   5.256   2.590  1.9733  1.7104  3.3638
17764THY    CA124866   1.759   5.209   2.729  0.8332  0.2294 -0.1084
17764THY    CA224867   1.779   5.243   2.861  0.7653 -0.4068 -0.6347
17764THY    CP124868   1.655   5.283   2.947 -0.2571  0.5543  0.4339
17764THY    HP124869   1.586   5.344   2.887 -1.7948  0.4626 -1.3191
17764THY    CP224870   1.687   5.375   3.057  0.2105 -0.6346 -0.7949
17764THY    HP224871   1.592   5.412   3.097  0.3735  2.0024 -2.8869
17764THY    HP324872   1.744   5.461   3.021  0.7646  0.0437 -0.8627
17764THY    HP424873   1.739   5.324   3.140 -1.5588  0.7288 -0.4691
17764THY    CP324874   1.582   5.157   2.998  0.0383  0.4607 -0.4594
17764THY    HP524875   1.509   5.181   3.076  0.2728  1.0967 -1.7506
17764THY    HP624876   1.644   5.088   3.056 -1.5077  1.8976 -0.7118
17764THY    HP724877   1.532   5.096   2.922 -1.0408  1.3740 -0.7365
17764THY    CA324878   1.908   5.246   2.908  0.1828  0.3577 -0.6705
17764THY    HA324879   1.928   5.275   3.011  0.1235  0.1796  0.0162
17764THY    CA424880   2.017   5.226   2.822  0.4049  0.4039  0.2300
17764THY    HA424881   2.119   5.234   2.858  0.3752  1.5568 -3.0671
17764THY    CA524882   1.987   5.193   2.687  0.0824 -0.0665 -0.2380
17764THY    CM124883   2.112   5.160   2.602  0.9743  0.1221  0.1316
17764THY    HM124884   2.202   5.183   2.660  1.2207 -0.1186 -0.2144
17764THY    HM224885   2.107   5.217   2.508  0.2683  0.1481  0.1200
17764THY    HM324886   2.120   5.053   2.583  0.5515  0.6524  0.0054
17764THY    CA624887   1.857   5.177   2.642  0.1302 -0.1722 -0.1398
17764THY    HA624888   1.833   5.150   2.540  0.5791  0.4767 -3.3663
17765THY      O24889   4.909   2.157   7.450  0.5100 -0.5643 -0.8342
17765THY     HO24890   4.907   2.242   7.497  2.1346 -1.0865 -0.4737
17765THY    CA124891   5.038   2.139   7.419  0.3055 -0.2435 -0.6139
17765THY    CA224892   5.093   2.030   7.349  0.2390  0.1101 -0.2949
17765THY    CP124893   5.014   1.915   7.290 -0.2560 -0.1289 -0.4100
17765THY    HP124894   4.909   1.932   7.314 -0.6503 -2.7598  1.4660
17765THY    CP224895   5.057   1.779   7.341 -0.5070 -0.5018  0.4694
17765THY    HP224896   4.984   1.704   7.310  1.5945 -1.1352 -1.4347
17765THY    HP324897   5.049   1.769   7.450 -3.8356 -0.7729 -1.1485
17765THY    HP424898   5.154   1.743   7.306  0.7271  4.1412 -1.3848
17765THY    CP324899   5.030   1.916   7.136  0.3224 -0.0766  0.4325
17765THY    HP524900   4.981   1.830   7.088 -0.4789  2.8053 -0.8394
17765THY    HP624901   5.137   1.908   7.118  0.4077 -0.2510  1.7014
17765THY    HP724902   4.984   2.011   7.105 -0.3804 -0.7249 -0.1049
17765THY    CA324903   5.234   2.024   7.334 -0.4966  0.2257 -0.4611
17765THY    HA324904   5.285   1.946   7.279 -0.6291 -0.9721  0.2758
17765THY    CA424905   5.310   2.133   7.383 -0.3325  0.3584  0.6168
17765THY    HA424906   5.418   2.125   7.374 -0.3322 -0.3190  1.3677
17765THY    CA524907   5.249   2.240   7.447 -0.0131 -0.2465  0.1426
17765THY    CM124908   5.321   2.349   7.516 -1.0487  0.5378  0.1949
17765THY    HM124909   5.424   2.360   7.479 -1.0078  0.8639  0.9191
17765THY    HM224910   5.306   2.320   7.621 -2.0449 -0.2440 -2.4383
17765THY    HM324911   5.282   2.446   7.485  1.2309 -0.3700  0.8916
17765THY    CA624912   5.118   2.241   7.474  0.4443 -0.0492  0.0294
17765THY    HA624913   5.060   2.313   7.532  0.2255 -1.2940  0.8836
17766THY      O24914   2.145   6.706   4.975  0.0597 -0.0410 -0.1480
17766THY     HO24915   2.095   6.650   5.036 -1.8644  0.4696  1.9730
17766THY    CA124916   2.236   6.780   5.044  0.8341 -0.7152  0.0097
17766THY    CA224917   2.354   6.817   4.982  0.1895  0.2863 -1.0054
17766THY    CP124918   2.387   6.763   4.834  0.2603 -0.8441  0.1997
17766THY    HP124919   2.310   6.701   4.787  1.8447 -3.7061  0.2133
17766THY    CP224920   2.513   6.673   4.815  0.1151  0.2128 -0.7723
17766THY    HP224921   2.524   6.647   4.709 -1.2040  0.2387 -1.5294
17766THY    HP324922   2.501   6.572   4.856  2.9750  0.5183 -1.0616
17766THY    HP424923   2.598   6.726   4.858 -0.2509  0.4753 -0.3920
17766THY    CP324924   2.395   6.889   4.744  0.2193  0.0686 -0.4714
17766THY    HP524925   2.323   6.963   4.782  1.3555  0.1163  0.6316
17766THY    HP624926   2.368   6.861   4.642 -0.7167  0.3660 -0.7087
17766THY    HP724927   2.495   6.932   4.754 -0.0883 -3.5353  1.4318
17766THY    CA324928   2.437   6.912   5.050 -0.4791 -0.0340  0.2156
17766THY    HA324929   2.537   6.938   5.014 -1.1389 -0.3309  2.5582
17766THY    CA424930   2.403   6.951   5.178  0.5204 -0.0874  0.6268
17766THY    HA424931   2.462   7.014   5.243 -0.3644  1.4495 -0.0732
17766THY    CA524932   2.284   6.904   5.246 -0.4460  0.7500  0.3303
17766THY    CM124933   2.247   6.955   5.377 -0.0452 -0.0247  0.2975
17766THY    HM124934   2.236   6.869   5.444 -1.8219  0.2976  0.7379
17766THY    HM224935   2.153   7.012   5.371  0.2503  1.7082  1.0132
17766THY    HM324936   2.317   7.024   5.426 -1.5881  0.3775  1.6421
17766THY    CA624937   2.205   6.809   5.183  0.7776  1.4861  0.3477
17766THY    HA624938   2.111   6.782   5.230  0.4120  0.5136 -0.1260
17767THY      O24939   5.924   5.239   2.048 -0.0397 -0.4099 -0.4184
17767THY     HO24940   5.896   5.332   2.045  1.3876  0.5598  0.0731
17767THY    CA124941   6.061   5.238   2.056 -1.0261 -0.0374 -0.6481
17767THY    CA224942   6.131   5.142   2.134  0.0548  0.6841  0.0753
17767THY    CP124943   6.050   5.050   2.224  0.3345  0.0219 -0.0825
17767THY    HP124944   5.946   5.036   2.191  0.5580  0.4055 -3.6463
17767THY    CP224945   6.033   5.100   2.361  0.2130 -0.0269 -1.1226
17767THY    HP224946   6.130   5.090   2.412 -0.9561  2.7106  0.2736
17767THY    HP324947   5.954   5.043   2.413  0.7146 -0.5880 -2.3613
17767THY    HP424948   5.999   5.204   2.350 -0.2252  3.0540 -0.8402
17767THY    CP324949   6.104   4.904   2.207  0.3894  0.0302  0.0788
17767THY    HP524950   6.041   4.837   2.266 -2.4613  0.4444  2.8803
17767THY    HP624951   6.212   4.901   2.219  0.3015  0.7329 -0.8854
17767THY    HP724952   6.092   4.875   2.102  0.7891 -0.1591  0.5911
17767THY    CA324953   6.271   5.144   2.140  0.0901  0.5282  0.2148
17767THY    HA324954   6.321   5.075   2.208  0.7398 -0.2656 -0.1037
17767THY    CA424955   6.344   5.229   2.053 -0.0484 -0.1074  0.0520
17767THY    HA424956   6.452   5.225   2.046  0.0456 -0.5650  2.4166
17767THY    CA524957   6.276   5.324   1.976  0.3504 -0.3935  0.8472
17767THY    CM124958   6.344   5.428   1.893 -0.3899  0.0434 -0.5979
17767THY    HM124959   6.342   5.528   1.937  3.9117 -0.0615 -0.3132
17767THY    HM224960   6.295   5.427   1.795 -2.2204  0.9056 -0.7033
17767THY    HM324961   6.449   5.404   1.874 -0.4169  1.8833 -2.4714
17767THY    CA624962   6.134   5.332   1.980  0.0868  0.2395  0.1436
17767THY    HA624963   6.087   5.408   1.918  2.0269  1.9007  2.8792
17768THY      O24964   4.132   4.811   6.537  0.1227  0.0381 -0.2264
17768THY     HO24965   4.040   4.785   6.552 -1.2408 -0.7594  3.4121
17768THY    CA124966   4.205   4.787   6.646  0.4068 -0.2850 -0.1813
17768THY    CA224967   4.345   4.796   6.650  0.1354 -0.5437  0.8896
17768THY    CP124968   4.428   4.847   6.535 -0.2894  0.7277 -0.3517
17768THY    HP124969   4.365   4.888   6.455 -1.4600  1.9198  0.2618
17768THY    CP224970   4.504   4.737   6.465 -0.3881  0.2763 -0.4544
17768THY    HP224971   4.562   4.781   6.382 -0.3726  0.2807 -0.4668
17768THY    HP324972   4.438   4.665   6.417  1.4174 -0.7881 -1.4801
17768THY    HP424973   4.573   4.697   6.540 -1.6195  2.0004  0.5464
17768THY    CP324974   4.525   4.964   6.564  0.6088 -0.1832 -0.3040
17768THY    HP524975   4.594   4.946   6.648 -0.6961  0.8317 -0.6768
17768THY    HP624976   4.462   5.051   6.584  0.6368  2.8265 -0.8691
17768THY    HP724977   4.581   4.993   6.474 -0.5321 -0.3288  1.6402
17768THY    CA324978   4.411   4.747   6.767 -0.3255 -0.1438 -0.0508
17768THY    HA324979   4.519   4.753   6.777 -0.3266 -0.2492  0.1723
17768THY    CA424980   4.345   4.695   6.873  0.3843 -0.6019 -0.3370
17768THY    HA424981   4.408   4.667   6.957  0.7369 -1.7672 -3.4902
17768THY    CA524982   4.206   4.704   6.878  0.5528  0.5538 -0.0132
17768THY    CM124983   4.125   4.636   6.990 -0.0212  0.4457 -1.1361
17768THY    HM124984   4.021   4.671   6.995  0.4995 -0.4432  0.6912
17768THY    HM224985   4.165   4.640   7.092  0.3907  0.2631 -0.0426
17768THY    HM324986   4.112   4.530   6.969 -1.6947  0.4872 -0.9598
17768THY    CA624987   4.139   4.745   6.757 -0.2840  0.4830  0.3598
17768THY    HA624988   4.031   4.737   6.760 -0.3564 -0.6181  0.8242
17769THY      O24989   0.340   4.611   7.850  0.0694 -0.0659 -1.0376
17769THY     HO24990   0.277   4.615   7.776  0.3458 -0.2437  1.9707
17769THY    CA124991   0.461   4.590   7.789 -0.1789 -0.0445 -0.2604
17769THY    CA224992   0.574   4.572   7.869  0.2623  0.0512 -0.1366
17769THY    CP124993   0.572   4.578   8.020  0.2571 -0.1213 -0.4739
17769THY    HP124994   0.481   4.625   8.059  0.9585 -1.3041  2.0344
17769THY    CP224995   0.683   4.672   8.068 -0.0544 -0.4402  0.4340
17769THY    HP224996   0.671   4.702   8.173 -0.1038 -0.3709  0.1745
17769THY    HP324997   0.671   4.761   8.005 -0.3009 -0.0824  0.6574
17769THY    HP424998   0.781   4.624   8.063 -0.4530 -2.7910 -0.2973
17769THY    CP324999   0.585   4.442   8.082 -0.5860  0.3043  1.0498
17769THY    HP525000   0.539   4.431   8.181 -0.3486  0.1632 -2.1097
17769THY    HP625001   0.689   4.407   8.088 -0.1732 -1.9781  1.7748
17769THY    HP725002   0.539   4.365   8.020 -0.4871  1.9301 -0.3694
17769THY    CA325003   0.702   4.537   7.815 -0.2003  0.2465  0.8471
17769THY    HA325004   0.792   4.529   7.875 -1.1240  1.4513 -1.4134
17769THY    CA425005   0.705   4.521   7.667 -0.1117 -0.4229  0.4458
17769THY    HA425006   0.790   4.479   7.615  0.2165  1.5097 -1.4364
17769THY    CA525007   0.593   4.555   7.596  0.2593  0.2648 -0.0189
17769THY    CM125008   0.599   4.553   7.447  0.1840  0.8628  0.8085
17769THY    HM125009   0.699   4.567   7.404  0.1389  0.8430  1.0669
17769THY    HM225010   0.541   4.634   7.401  1.8689 -2.0079  0.5258
17769THY    HM325011   0.561   4.458   7.408  3.3435  1.2348 -0.7441
17769THY    CA625012   0.473   4.590   7.655 -0.1447 -0.0555  0.1496
17769THY    HA625013   0.385   4.609   7.595 -0.4791  0.3256 -0.1598
17770THY      O25014   4.456   5.500   1.838 -0.1936  0.2443  0.2737
17770THY     HO25015   4.480   5.571   1.776  2.4981 -1.4749 -1.9386
17770THY    CA125016   4.321   5.492   1.838  0.0708  0.2196  0.1392
17770THY    CA225017   4.250   5.374   1.886 -0.1487 -0.1642 -0.0603
17770THY    CP125018   4.339   5.254   1.927  0.0803 -0.5363  0.5475
17770THY    HP125019   4.436   5.279   1.972  0.1603  0.4661 -1.3274
17770THY    CP225020   4.366   5.166   1.803  0.6615 -0.1149  0.0259
17770THY    HP225021   4.383   5.062   1.833 -4.0320  0.4584 -0.8054
17770THY    HP325022   4.455   5.201   1.751  0.2542 -0.7822  0.0979
17770THY    HP425023   4.276   5.177   1.740  2.2277 -2.3992  0.5779
17770THY    CP325024   4.268   5.165   2.031 -0.1414 -0.8137  0.5126
17770THY    HP525025   4.327   5.081   2.071 -0.2989 -2.4727 -0.4376
17770THY    HP625026   4.178   5.119   1.987  0.5366  0.2333 -1.9956
17770THY    HP725027   4.236   5.217   2.122 -0.6174 -1.1275  0.7840
17770THY    CA325028   4.106   5.380   1.889  0.4978  0.0787  0.3332
17770THY    HA325029   4.048   5.298   1.931 -2.0498 -0.7060  1.6180
17770THY    CA425030   4.042   5.494   1.851  0.0926  0.3907 -0.1073
17770THY    HA425031   3.934   5.504   1.850  0.0758  1.7442 -0.0041
17770THY    CA525032   4.111   5.602   1.801  0.1808  0.2736 -0.2614
17770THY    CM125033   4.039   5.726   1.753 -0.0708 -0.2022 -0.1469
17770THY    HM125034   4.091   5.809   1.802  0.9641  0.4049 -1.1102
17770THY    HM225035   3.934   5.725   1.785  0.3117  1.1164 -0.1893
17770THY    HM325036   4.042   5.734   1.644 -2.8928 -0.5903 -2.8143
17770THY    CA625037   4.253   5.601   1.789 -0.2220  0.3827 -0.2304
17770THY    HA625038   4.300   5.692   1.754 -0.1682  0.2896 -0.2942
17771THY      O25039   7.908   6.788   5.883 -0.5277  0.4213  0.1760
17771THY     HO25040   7.905   6.878   5.921 -0.6135  0.1899  0.2726
17771THY    CA125041   7.774   6.758   5.884 -0.3002 -0.2612  0.2938
17771THY    CA225042   7.726   6.641   5.820  0.6701  0.0264  0.7085
17771THY    CP125043   7.814   6.544   5.746 -0.7956  0.3690 -0.3058
17771THY    HP125044   7.749   6.463   5.710  0.4816  0.6876 -1.5256
17771THY    CP225045   7.924   6.479   5.836  0.3786  0.4390  0.0179
17771THY    HP225046   8.007   6.549   5.853  2.0522 -0.8929 -1.5126
17771THY    HP325047   7.967   6.403   5.770  4.2267  4.0926 -1.3441
17771THY    HP425048   7.876   6.423   5.917 -0.8678 -0.5538 -0.4079
17771THY    CP325049   7.880   6.600   5.613  0.2557 -0.2645  0.6986
17771THY    HP525050   7.799   6.633   5.546 -2.3345  1.8780 -0.8749
17771THY    HP625051   7.936   6.517   5.569 -0.0966  1.5486 -0.5580
17771THY    HP725052   7.960   6.670   5.638  1.6146 -2.0200 -0.1520
17771THY    CA325053   7.584   6.613   5.826 -0.7571 -0.0789 -0.4039
17771THY    HA325054   7.546   6.517   5.792  1.4093  1.6019 -1.9516
17771THY    CA425055   7.504   6.704   5.891 -0.2807  0.0108  0.0151
17771THY    HA425056   7.400   6.676   5.906 -0.9590 -3.2958  0.2977
17771THY    CA525057   7.547   6.819   5.946  0.5364 -0.7139  0.2310
17771THY    CM125058   7.447   6.898   6.029 -0.3857 -0.2690 -0.3270
17771THY    HM125059   7.359   6.919   5.966 -1.4289  1.3652  0.3821
17771THY    HM225060   7.494   6.986   6.074 -0.6126  1.3228 -0.9777
17771THY    HM325061   7.402   6.844   6.113 -0.5194  1.7326  2.7086
17771THY    CA625062   7.681   6.848   5.945 -0.6997 -0.7588 -0.1515
17771THY    HA625063   7.711   6.941   5.994 -0.2931  1.1795 -1.2387
17772THY      O25064   8.245   7.987   5.725  0.4867  0.3298 -0.0716
17772THY     HO25065   8.259   7.953   5.815 -0.0765  0.3089 -0.3734
17772THY    CA125066   8.125   7.937   5.687  0.8474  0.9339 -0.6748
17772THY    CA225067   8.085   7.932   5.551 -0.2922  0.3666 -0.1413
17772THY    CP125068   8.191   7.959   5.444 -0.4019  0.1093 -0.9758
17772THY    HP125069   8.293   7.971   5.482  0.3813 -2.1798  0.3472
17772THY    CP225070   8.157   8.095   5.363  0.1974  0.2514  0.3107
17772THY    HP225071   8.159   8.181   5.430 -0.2958  0.8179 -0.1107
17772THY    HP325072   8.056   8.091   5.322  0.6058 -0.7552 -2.7233
17772THY    HP425073   8.228   8.115   5.282 -0.9231 -1.3480 -1.7764
17772THY    CP325074   8.214   7.831   5.348 -0.2281  0.1436 -0.3916
17772THY    HP525075   8.231   7.747   5.416 -1.9245  2.7166  1.1916
17772THY    HP625076   8.296   7.836   5.276 -1.2911 -1.0549  0.7543
17772THY    HP725077   8.121   7.808   5.295 -2.2384  3.3591 -0.3172
17772THY    CA325078   7.952   7.900   5.519  0.1338 -0.3831 -0.2685
17772THY    HA325079   7.921   7.898   5.415 -0.6038 -0.2025  0.7849
17772THY    CA425080   7.865   7.856   5.618  0.3099 -0.0900  0.0267
17772THY    HA425081   7.762   7.835   5.589  0.3744 -0.6482  0.4527
17772THY    CA525082   7.910   7.858   5.756  0.5454  0.9007 -0.2370
17772THY    CM125083   7.816   7.831   5.872  0.1579  0.3101 -0.4213
17772THY    HM125084   7.797   7.725   5.892 -2.0262  0.1404 -0.1149
17772THY    HM225085   7.721   7.879   5.846  0.2329  0.0773 -0.3972
17772THY    HM325086   7.855   7.872   5.966 -0.6470  0.7146 -0.5493
17772THY    CA625087   8.040   7.901   5.786  0.7607  0.1164  0.0923
17772THY    HA625088   8.064   7.907   5.891 -0.7532  0.3964  3.3457
17773THY      O25089   4.735   2.725   3.808  0.5834  0.3681 -0.0203
17773THY     HO25090   4.827   2.693   3.815  0.8135  2.5160  0.9498
17773THY    CA125091   4.728   2.819   3.718 -0.2045  0.0972 -0.7732
17773THY    CA225092   4.609   2.890   3.689  0.0392  0.5641 -0.2516
17773THY    CP125093   4.476   2.863   3.766 -0.3070 -0.6551 -0.4660
17773THY    HP125094   4.506   2.822   3.863  4.3390 -1.6407  0.0544
17773THY    CP225095   4.388   2.763   3.696 -0.0445  0.4661 -0.3352
17773THY    HP225096   4.310   2.737   3.767 -0.4686  0.1591  0.0757
17773THY    HP325097   4.433   2.666   3.669 -0.1179 -2.0902  0.2568
17773THY    HP425098   4.336   2.796   3.605 -0.4992  1.3125  1.3757
17773THY    CP325099   4.396   2.991   3.790  0.2381 -0.1018  0.8821
17773THY    HP525100   4.345   3.024   3.699  0.8724  0.0972  2.5381
17773THY    HP625101   4.451   3.078   3.830  0.2645  0.2968  0.6861
17773THY    HP725102   4.315   2.958   3.856  0.4859 -0.0359  0.3996
17773THY    CA325103   4.608   2.964   3.570 -0.5169  0.7311 -0.1312
17773THY    HA325104   4.520   3.020   3.539  0.8411 -0.3176  1.5500
17773THY    CA425105   4.725   2.984   3.489 -0.4960 -0.3892 -0.8820
17773THY    HA425106   4.722   3.057   3.408  1.7904 -0.0713 -0.3543
17773THY    CA525107   4.842   2.937   3.540 -0.2387  0.2314 -0.1577
17773THY    CM125108   4.976   2.955   3.459  0.4142 -0.8373 -0.3423
17773THY    HM125109   4.968   3.058   3.423 -0.2967  0.1286 -0.0459
17773THY    HM225110   4.972   2.880   3.379 -0.5699  1.6664 -3.1356
17773THY    HM325111   5.068   2.941   3.517 -0.3141 -0.3719 -4.5739
17773THY    CA625112   4.845   2.850   3.654  0.1502  0.6935 -0.0932
17773THY    HA625113   4.938   2.801   3.682  0.1592  0.8515  0.0122
17774THY      O25114   1.386   8.863   6.044 -0.3105  0.6421  0.0722
17774THY     HO25115   1.470   8.845   5.998 -2.1809 -3.7671  1.0728
17774THY    CA125116   1.375   8.780   6.141 -0.1000 -0.2516  0.3540
17774THY    CA225117   1.291   8.815   6.251  0.5513 -0.1598  0.2154
17774THY    CP125118   1.217   8.947   6.253 -0.2546 -0.3668  0.0874
17774THY    HP125119   1.263   9.009   6.175  1.0399  0.0541 -0.3169
17774THY    CP225120   1.246   9.012   6.389 -0.3427 -0.6065 -0.3391
17774THY    HP225121   1.233   8.956   6.483 -0.1103  0.1840  0.8938
17774THY    HP325122   1.189   9.106   6.399  1.3505 -0.0073  0.6605
17774THY    HP425123   1.354   9.026   6.397 -0.4421 -1.7523  1.4340
17774THY    CP325124   1.067   8.944   6.223 -0.2896  0.3343 -0.2108
17774THY    HP525125   1.019   9.042   6.228 -2.0641 -0.4620 -0.9865
17774THY    HP625126   1.013   8.882   6.296  0.0559 -0.7640 -1.8741
17774THY    HP725127   1.034   8.904   6.126  0.8845 -0.5529  0.8967
17774THY    CA325128   1.266   8.714   6.352 -0.2303 -0.7163 -0.0149
17774THY    HA325129   1.195   8.727   6.433 -2.2422 -1.9846 -2.2891
17774THY    CA425130   1.329   8.590   6.337 -0.0784 -0.5476 -0.2455
17774THY    HA425131   1.310   8.519   6.416  0.7567 -0.4750 -0.4063
17774THY    CA525132   1.416   8.563   6.228  0.4024 -0.1991 -0.7628
17774THY    CM125133   1.475   8.426   6.217  0.1902  0.0635 -0.0476
17774THY    HM125134   1.525   8.410   6.121  0.1740 -0.1204  0.9604
17774THY    HM225135   1.397   8.349   6.216 -0.1707 -0.4547  0.3196
17774THY    HM325136   1.546   8.406   6.298 -1.3271  1.0741 -1.6157
17774THY    CA625137   1.439   8.658   6.132 -0.3123 -0.1719 -0.4426
17774THY    HA625138   1.500   8.635   6.045 -1.1741 -1.1691  0.9166
17775THY      O25139   6.677   8.497   5.612  0.5404 -0.3372 -0.2594
17775THY     HO25140   6.682   8.549   5.694 -1.6874  0.6500 -1.4671
17775THY    CA125141   6.652   8.573   5.507  0.9124 -0.0052  0.0975
17775THY    CA225142   6.607   8.521   5.381 -0.1791  0.5409  0.9288
17775THY    CP125143   6.585   8.365   5.364  0.4571  0.7832  0.1368
17775THY    HP125144   6.653   8.304   5.424 -1.0641  0.3300 -2.1407
17775THY    CP225145   6.618   8.331   5.208 -0.2089  0.2163  0.3770
17775THY    HP225146   6.525   8.345   5.153  0.0183 -0.3946 -0.4574
17775THY    HP325147   6.654   8.228   5.198 -3.5883  1.1779 -1.0419
17775THY    HP425148   6.696   8.394   5.165  2.5638  0.7345 -2.4626
17775THY    CP325149   6.439   8.325   5.409  0.7051  0.4972  0.2185
17775THY    HP525150   6.420   8.217   5.406  1.5150 -0.4188  0.0819
17775THY    HP625151   6.376   8.372   5.333  0.2335  0.0016 -1.1687
17775THY    HP725152   6.426   8.365   5.510  0.5495 -0.3637  2.4872
17775THY    CA325153   6.566   8.619   5.288  0.3249 -0.5604  0.9483
17775THY    HA325154   6.523   8.591   5.192 -1.6262  0.0144  1.7817
17775THY    CA425155   6.568   8.754   5.315 -0.0872  0.5082  0.7407
17775THY    HA425156   6.533   8.818   5.234 -2.1233 -0.7441 -1.7619
17775THY    CA525157   6.604   8.806   5.441 -0.5600  0.4403  0.2638
17775THY    CM125158   6.606   8.958   5.464 -0.0051  0.3208 -0.3221
17775THY    HM125159   6.708   8.979   5.498  0.0805  0.7028 -1.2726
17775THY    HM225160   6.532   8.981   5.541 -0.7643 -1.0017  2.0315
17775THY    HM325161   6.584   9.019   5.376 -0.7095 -0.3380 -1.4739
17775THY    CA625162   6.642   8.713   5.538  0.2118  0.0827  0.8678
17775THY    HA625163   6.657   8.752   5.638 -0.7333  1.5430 -2.2014
17776THY      O25164   7.751   5.140   5.829  0.2068 -0.0994  0.4009
17776THY     HO25165   7.667   5.103   5.861 -0.6339 -2.4383  0.1031
17776THY    CA125166   7.740   5.159   5.703  0.0330 -0.1305 -0.5973
17776THY    CA225167   7.847   5.197   5.624  0.4605 -0.1298  0.2370
17776THY    CP125168   7.984   5.230   5.680 -0.1034  0.5989  0.5084
17776THY    HP125169   7.969   5.283   5.775 -0.7453  0.2261  1.0022
17776THY    CP225170   8.067   5.320   5.598 -0.6463  0.3010 -0.1061
17776THY    HP225171   8.019   5.419   5.604 -2.0975 -1.3077 -0.6591
17776THY    HP325172   8.102   5.284   5.500  2.0152  0.3198  2.0662
17776THY    HP425173   8.155   5.330   5.663  0.1683 -0.4751 -1.8534
17776THY    CP325174   8.057   5.101   5.725 -0.3898  0.3024  0.0390
17776THY    HP525175   8.092   5.043   5.639 -3.1103 -0.9840  0.1644
17776THY    HP625176   7.991   5.042   5.790 -0.1433 -0.9493 -1.6959
17776THY    HP725177   8.146   5.136   5.779 -1.1453  1.6117  0.0126
17776THY    CA325178   7.832   5.203   5.487 -0.1435  0.1941 -0.1638
17776THY    HA325179   7.916   5.217   5.419 -1.2567 -1.2117 -0.1594
17776THY    CA425180   7.715   5.145   5.432  0.4639  0.4889  0.1805
17776THY    HA425181   7.702   5.132   5.325  0.9420  0.4895 -0.3489
17776THY    CA525182   7.609   5.102   5.513  0.0209  0.4695 -0.1961
17776THY    CM125183   7.482   5.066   5.446 -0.0135 -0.1884  0.4791
17776THY    HM125184   7.468   4.960   5.473 -1.2898 -0.0567  0.6658
17776THY    HM225185   7.489   5.086   5.339  0.4646 -0.4851 -1.1142
17776THY    HM325186   7.405   5.130   5.491  0.0373 -1.7236  1.6643
17776THY    CA625187   7.619   5.118   5.650  0.3761 -0.4249 -0.4670
17776THY    HA625188   7.528   5.110   5.707  0.0911 -0.2777  2.6559
17777THY      O25189   6.591   9.003   3.657  0.1172 -0.7732 -0.4635
17777THY     HO25190   6.507   9.025   3.613  0.7455 -0.6521  2.6651
17777THY    CA125191   6.678   9.092   3.609  0.3479 -0.5726  0.6675
17777THY    CA225192   6.778   9.136   3.698  0.3168  0.7996 -0.0731
17777THY    CP125193   6.777   9.096   3.852  0.2930  0.7365 -0.5826
17777THY    HP125194   6.728   8.998   3.866 -1.0752  0.1116 -0.0227
17777THY    CP225195   6.690   9.189   3.936 -0.6118  0.1347 -0.6098
17777THY    HP225196   6.682   9.158   4.041 -0.3923 -0.2933 -2.2030
17777THY    HP325197   6.584   9.183   3.908 -0.1700 -1.6584 -0.7499
17777THY    HP425198   6.722   9.294   3.932  0.9967  0.2559 -1.0592
17777THY    CP325199   6.914   9.088   3.902 -0.6486 -0.1609  0.3047
17777THY    HP525200   6.916   9.045   4.003 -1.2892  0.1203  0.9106
17777THY    HP625201   6.964   9.183   3.922 -0.7012  3.8798 -0.3557
17777THY    HP725202   6.973   9.034   3.827 -1.1028  0.6693 -1.4047
17777THY    CA325203   6.861   9.235   3.642 -0.1471  0.5748 -0.6774
17777THY    HA325204   6.944   9.274   3.700 -1.4060  0.2431  2.7855
17777THY    CA425205   6.841   9.282   3.511 -0.4125 -0.4173 -0.1822
17777THY    HA425206   6.913   9.354   3.475 -0.6601 -0.7331 -0.0890
17777THY    CA525207   6.741   9.239   3.433 -0.6550 -0.2921 -0.6807
17777THY    CM125208   6.700   9.309   3.302  0.0578  0.0474  0.7300
17777THY    HM125209   6.782   9.366   3.257  2.3589  1.3150 -1.3524
17777THY    HM225210   6.611   9.370   3.318 -0.9621  1.8347 -1.0936
17777THY    HM325211   6.680   9.233   3.225 -0.1979  2.3468 -1.7125
17777THY    CA625212   6.658   9.147   3.480  0.0068 -0.1696 -0.0536
17777THY    HA625213   6.571   9.117   3.421 -0.8507  0.5123  1.0092
17778THY      O25214   5.363   5.169   3.100  0.0309 -1.1338  0.5058
17778THY     HO25215   5.267   5.160   3.109  0.3204  0.0513 -3.2284
17778THY    CA125216   5.401   5.290   3.053 -0.2659 -0.3585 -0.7286
17778THY    CA225217   5.502   5.361   3.117  0.3881  0.0891  0.0006
17778THY    CP125218   5.572   5.316   3.249  0.0600 -0.4655  0.4022
17778THY    HP125219   5.578   5.207   3.233  1.4825  0.3677  0.3255
17778THY    CP225220   5.499   5.343   3.375  0.4123 -0.4266 -0.1069
17778THY    HP225221   5.516   5.272   3.457 -0.2991  0.9116  1.2066
17778THY    HP325222   5.392   5.342   3.350  0.3592 -0.1976 -0.2360
17778THY    HP425223   5.519   5.446   3.409  3.0482  1.0202 -0.9898
17778THY    CP325224   5.719   5.368   3.261  0.2323 -1.1695 -0.5863
17778THY    HP525225   5.734   5.475   3.277  0.3984  4.7249 -1.1670
17778THY    HP625226   5.758   5.346   3.161 -2.4231 -2.2251 -0.8420
17778THY    HP725227   5.764   5.332   3.354 -3.2810  1.3739  1.0392
17778THY    CA325228   5.536   5.482   3.057  0.1719 -1.5991 -0.4785
17778THY    HA325229   5.613   5.548   3.094 -0.4185 -1.7537  0.3087
17778THY    CA425230   5.476   5.528   2.942  0.5897  0.2108  0.1558
17778THY    HA425231   5.500   5.619   2.889 -0.5778 -0.1279  0.2866
17778THY    CA525232   5.369   5.457   2.884  0.0528  0.1955 -0.5214
17778THY    CM125233   5.296   5.509   2.764 -0.5788  0.4204  0.4147
17778THY    HM125234   5.216   5.576   2.796  0.4188  0.1707  1.7819
17778THY    HM225235   5.261   5.433   2.693 -0.7789 -2.6736  3.1616
17778THY    HM325236   5.363   5.566   2.697  2.3042  1.6877 -1.2331
17778THY    CA625237   5.331   5.338   2.944  0.2680  0.2808 -0.1405
17778THY    HA625238   5.259   5.272   2.896  1.2243 -0.7356 -0.4793
17779THY      O25239   0.814   5.275   6.005 -0.2610 -0.6439  0.2894
17779THY     HO25240   0.771   5.200   5.958  0.9494  0.3065 -1.0506
17779THY    CA125241   0.734   5.382   5.978 -0.0696 -0.3775  0.6175
17779THY    CA225242   0.762   5.513   6.038  0.2210  0.2070  0.0760
17779THY    CP125243   0.887   5.523   6.127  0.2758 -0.5864 -0.8780
17779THY    HP125244   0.950   5.434   6.119 -0.6791 -2.1961 -1.4555
17779THY    CP225245   0.842   5.522   6.277  0.4169 -0.0317 -0.0638
17779THY    HP225246   0.939   5.540   6.326  1.4575 -0.7212 -3.1468
17779THY    HP325247   0.792   5.435   6.320  0.8705  1.7871  0.5185
17779THY    HP425248   0.772   5.605   6.295  0.4727  2.1841 -0.4411
17779THY    CP325249   0.964   5.653   6.084 -1.0465 -0.3268 -0.2269
17779THY    HP525250   1.009   5.631   5.986  1.6979  0.7146  0.3254
17779THY    HP625251   1.055   5.670   6.143 -0.8944 -0.0515 -1.8521
17779THY    HP725252   0.904   5.745   6.082 -1.9184 -0.0474 -0.7840
17779THY    CA325253   0.669   5.619   6.022 -0.8507 -0.2951 -0.7303
17779THY    HA325254   0.685   5.718   6.063  0.1047  1.1054 -1.4358
17779THY    CA425255   0.552   5.604   5.947  0.5193  0.4722  0.0659
17779THY    HA425256   0.489   5.686   5.917 -1.0135  0.1092 -1.2018
17779THY    CA525257   0.523   5.478   5.889  0.1712 -0.3292 -0.2864
17779THY    CM125258   0.404   5.464   5.816 -0.3254  0.1226  0.1870
17779THY    HM125259   0.346   5.555   5.794 -1.8743 -0.1038 -0.8248
17779THY    HM225260   0.330   5.407   5.873 -0.5320  0.5389  0.8665
17779THY    HM325261   0.424   5.403   5.727  0.4231  0.7753 -0.5431
17779THY    CA625262   0.612   5.366   5.912 -0.0065 -0.4580  0.8662
17779THY    HA625263   0.589   5.263   5.887  0.1064 -0.3993  0.8262
17780THY      O25264   5.174   3.314   5.059 -0.2818 -0.3331  0.1810
17780THY     HO25265   5.190   3.265   4.978 -0.5734  1.7758 -3.7831
17780THY    CA125266   5.191   3.225   5.159  0.3049  0.8014  0.0517
17780THY    CA225267   5.234   3.256   5.289 -0.0768  0.0699 -0.3871
17780THY    CP125268   5.261   3.410   5.310 -0.4147 -0.1225 -0.2668
17780THY    HP125269   5.184   3.464   5.254 -0.0153 -0.6241 -0.2152
17780THY    CP225270   5.398   3.440   5.247  0.9832 -0.1822 -0.1857
17780THY    HP225271   5.383   3.454   5.140  0.6088 -0.1346 -0.2067
17780THY    HP325272   5.480   3.369   5.262  3.6312  0.5930  2.7985
17780THY    HP425273   5.442   3.529   5.294  0.4158  0.6447 -0.3248
17780THY    CP325274   5.260   3.450   5.465  0.1298  0.0702  0.6545
17780THY    HP525275   5.337   3.391   5.516 -1.4342  0.5021 -1.1081
17780THY    HP625276   5.163   3.431   5.511  0.0473 -0.3384  0.0758
17780THY    HP725277   5.277   3.558   5.478  1.1772 -1.3370  0.6895
17780THY    CA325278   5.257   3.160   5.389 -0.3183  0.2713 -0.6323
17780THY    HA325279   5.277   3.189   5.492 -1.3351  0.3938 -0.3026
17780THY    CA425280   5.245   3.026   5.357  0.2656  0.4461 -0.4503
17780THY    HA425281   5.256   2.951   5.435  0.1983  0.5616 -0.3398
17780THY    CA525282   5.198   2.998   5.234  0.3246 -0.2499  0.7706
17780THY    CM125283   5.171   2.854   5.208  0.3551  0.1875 -0.0534
17780THY    HM125284   5.180   2.783   5.292  1.4768 -0.2352 -0.4215
17780THY    HM225285   5.245   2.817   5.137  1.3583  1.3185 -0.2902
17780THY    HM325286   5.074   2.843   5.157  1.2070 -1.2706 -1.1420
17780THY    CA625287   5.170   3.091   5.132  0.5247  0.2745  0.0238
17780THY    HA625288   5.118   3.061   5.042  1.6132 -0.9015  1.4947
17781THY      O25289   2.171   4.278   2.877 -0.4090  0.6105 -0.5716
17781THY     HO25290   2.247   4.225   2.906  1.2347 -0.8866  0.8481
17781THY    CA125291   2.179   4.269   2.743  0.4820 -0.5026  0.1930
17781THY    CA225292   2.091   4.342   2.662  0.1869 -0.4439  0.4834
17781THY    CP125293   1.987   4.433   2.727 -0.4107  0.4511  0.0662
17781THY    HP125294   1.998   4.441   2.835 -4.2547  0.9065  1.5991
17781THY    CP225295   1.845   4.371   2.712  0.3054  0.9371  1.1906
17781THY    HP225296   1.771   4.422   2.774 -0.5965  0.8660  0.0187
17781THY    HP325297   1.838   4.264   2.735  1.2393 -0.4730  0.8018
17781THY    HP425298   1.817   4.375   2.606 -0.4663  1.1455  1.3302
17781THY    CP325299   2.001   4.572   2.670  0.6806  0.7510 -0.3151
17781THY    HP525300   1.934   4.649   2.710 -2.8295 -0.4933 -2.4608
17781THY    HP625301   1.990   4.594   2.563  4.8801  0.5056  1.4946
17781THY    HP725302   2.106   4.600   2.681  0.6072  0.2716  0.1700
17781THY    CA325303   2.099   4.333   2.525 -0.5863  0.0934  0.3097
17781THY    HA325304   2.032   4.379   2.454  0.2654  0.7780  2.7221
17781THY    CA425305   2.191   4.241   2.465  0.5553 -0.1499  0.2662
17781THY    HA425306   2.190   4.215   2.359 -0.5501  0.6301 -3.3122
17781THY    CA525307   2.280   4.172   2.549  0.4781  0.1501 -0.1806
17781THY    CM125308   2.379   4.075   2.480 -1.0368 -0.7717  0.2560
17781THY    HM125309   2.469   4.118   2.434  0.3828 -0.3668 -2.0773
17781THY    HM225310   2.329   4.026   2.396 -0.2030 -0.2561 -1.5327
17781THY    HM325311   2.405   4.005   2.560 -0.8333  0.9457  2.1745
17781THY    CA625312   2.272   4.183   2.693 -0.2443 -0.0338  0.0247
17781THY    HA625313   2.346   4.133   2.755 -0.0107  0.0965  0.5281
17782THY      O25314   5.188   8.279   4.157  0.5780 -0.0491  0.0019
17782THY     HO25315   5.251   8.333   4.108  2.0543  0.6855 -1.0011
17782THY    CA125316   5.274   8.175   4.191  0.2808  0.4119 -0.4675
17782THY    CA225317   5.248   8.074   4.284 -0.1972  0.1691 -0.8886
17782THY    CP125318   5.118   8.089   4.359  0.8190  0.4304  0.4325
17782THY    HP125319   5.050   8.144   4.292 -0.5379  0.3763 -1.2127
17782THY    CP225320   5.143   8.146   4.500  0.6717  0.2503 -0.1779
17782THY    HP225321   5.186   8.247   4.494  1.5805 -3.6311 -0.6084
17782THY    HP325322   5.208   8.081   4.559  2.8064 -0.1085  1.5134
17782THY    HP425323   5.047   8.168   4.546  2.1773  3.1733  0.7885
17782THY    CP325324   5.057   7.950   4.382  0.5153  0.1722 -0.2135
17782THY    HP525325   5.119   7.890   4.449  2.1301 -1.3678 -0.3629
17782THY    HP625326   5.045   7.892   4.290 -1.8868 -0.7662  1.5933
17782THY    HP725327   4.963   7.968   4.436  0.7304  0.4058  0.2436
17782THY    CA325328   5.351   7.982   4.316 -0.1937 -0.0748 -0.1680
17782THY    HA325329   5.336   7.904   4.390 -2.2438  1.4314  1.5204
17782THY    CA425330   5.468   7.975   4.240  0.4702  0.0585  0.7168
17782THY    HA425331   5.543   7.898   4.257 -0.1398 -0.3115  0.0334
17782THY    CA525332   5.491   8.070   4.141  0.6082  0.4028 -0.8940
17782THY    CM125333   5.624   8.073   4.073  0.5174  0.4511  0.0445
17782THY    HM125334   5.653   7.975   4.033 -1.5256 -0.3723 -0.2773
17782THY    HM225335   5.701   8.100   4.146 -1.4538  2.7508 -0.1912
17782THY    HM325336   5.618   8.144   3.990 -1.0987  0.4400 -0.0712
17782THY    CA625337   5.392   8.160   4.114  0.0106 -0.0927 -0.1575
17782THY    HA625338   5.415   8.232   4.035 -0.6241 -0.2284 -0.0973
17783THY      O25339   7.503   9.173   4.807  0.1168  0.2956 -1.0532
17783THY     HO25340   7.555   9.227   4.745 -1.6233 -1.0952 -0.8706
17783THY    CA125341   7.577   9.180   4.921  0.1270  0.2816  0.5250
17783THY    CA225342   7.529   9.132   5.048  0.2856 -0.2484 -0.7154
17783THY    CP125343   7.397   9.053   5.060 -0.1585  0.0470 -0.0481
17783THY    HP125344   7.370   9.021   4.959 -2.3864  0.5852 -0.0616
17783THY    CP225345   7.286   9.150   5.113  0.3424 -0.2362 -0.2088
17783THY    HP225346   7.189   9.100   5.124  0.5787  0.2019 -0.5757
17783THY    HP325347   7.281   9.241   5.052 -0.5417  1.6637  1.0997
17783THY    HP425348   7.330   9.179   5.210  1.0660 -1.2065  2.2281
17783THY    CP325349   7.413   8.917   5.134  0.6052 -0.1378 -0.5402
17783THY    HP525350   7.326   8.850   5.123  1.4755 -0.5541 -1.6318
17783THY    HP625351   7.429   8.945   5.238 -1.2406  0.2617 -0.8342
17783THY    HP725352   7.499   8.854   5.109  1.4945  1.9546 -0.2430
17783THY    CA325353   7.611   9.162   5.157 -0.4681 -0.9700  0.3340
17783THY    HA325354   7.570   9.132   5.254 -1.6987 -1.0169  1.7173
17783THY    CA425355   7.738   9.226   5.144 -0.7309 -0.6665  1.2432
17783THY    HA425356   7.805   9.250   5.226  0.9676 -1.6595  0.0039
17783THY    CA525357   7.794   9.246   5.020  1.0555  0.2977  0.1923
17783THY    CM125358   7.928   9.310   5.003 -0.4198 -0.0478  0.0436
17783THY    HM125359   7.943   9.402   5.061  2.4329 -0.8791  0.1915
17783THY    HM225360   7.930   9.360   4.905 -2.1121  0.9398  2.2489
17783THY    HM325361   8.017   9.248   5.012 -1.2620 -0.7514 -1.3084
17783THY    CA625362   7.703   9.243   4.908 -0.0722  0.2929  0.3329
17783THY    HA625363   7.736   9.290   4.816 -1.5511  0.6620  2.2340
17784THY      O25364   8.378   6.196   4.016 -0.7453 -0.0808  0.4511
17784THY     HO25365   8.380   6.139   3.937 -1.5067  0.2198 -0.0085
17784THY    CA125366   8.244   6.209   4.057  0.5402 -0.0514 -0.4777
17784THY    CA225367   8.199   6.324   4.124 -0.5455 -0.0554 -0.0890
17784THY    CP125368   8.286   6.446   4.124 -0.1992  0.2440 -0.4047
17784THY    HP125369   8.363   6.438   4.047  2.3251  2.8072 -3.2549
17784THY    CP225370   8.381   6.444   4.256  0.0827  0.3621 -0.1256
17784THY    HP225371   8.437   6.351   4.240 -0.9658 -0.4177 -0.6530
17784THY    HP325372   8.314   6.429   4.341  1.3878  1.6959  1.3234
17784THY    HP425373   8.441   6.535   4.271  0.6756  1.7852 -0.7214
17784THY    CP325374   8.210   6.574   4.118  0.7472 -0.0026 -0.4045
17784THY    HP525375   8.171   6.598   4.218  0.8224  0.2895 -1.4264
17784THY    HP625376   8.128   6.558   4.047  0.2316  0.8184 -1.6287
17784THY    HP725377   8.281   6.653   4.091  0.5177 -1.1900 -0.5848
17784THY    CA325378   8.064   6.327   4.155 -0.2075  0.9180 -0.1152
17784THY    HA325379   8.020   6.417   4.196 -0.4761  1.3429 -0.4365
17784THY    CA425380   7.981   6.216   4.134  0.3036  0.2023 -0.5429
17784THY    HA425381   7.880   6.227   4.171  1.0137  1.8488  1.2985
17784THY    CA525382   8.032   6.099   4.083 -0.3832  0.4284  0.2411
17784THY    CM125383   7.943   5.982   4.062 -0.2162  0.3550  0.0709
17784THY    HM125384   7.875   5.992   3.977  0.4014  0.0510  2.6475
17784THY    HM225385   7.889   5.958   4.154  1.1019  0.8522 -1.0978
17784THY    HM325386   8.013   5.899   4.047 -0.4981 -0.9910  0.0554
17784THY    CA625387   8.164   6.101   4.034  0.1894 -0.4186  0.2515
17784THY    HA625388   8.202   6.012   3.986  0.7223 -0.7734  0.6639
17785THY      O25389   7.648   6.728   4.948 -0.3273 -0.2248 -0.8887
17785THY     HO25390   7.675   6.693   5.035  0.7940 -0.4800 -0.6858
17785THY    CA125391   7.527   6.791   4.966  0.4434  0.0467  0.3071
17785THY    CA225392   7.451   6.835   4.860  0.6427 -0.2197  0.1462
17785THY    CP125393   7.504   6.846   4.720 -0.2554 -0.7346  0.6734
17785THY    HP125394   7.545   6.748   4.694 -0.0742  2.0278 -0.0707
17785THY    CP225395   7.610   6.960   4.709  0.0120 -0.2687  0.3295
17785THY    HP225396   7.633   6.976   4.603 -0.2030 -0.7143 -2.0288
17785THY    HP325397   7.696   6.928   4.769  1.6974 -1.7059  1.9680
17785THY    HP425398   7.566   7.053   4.747  2.0602 -0.8809  1.6159
17785THY    CP325399   7.405   6.867   4.605 -0.2987  0.5706  0.9439
17785THY    HP525400   7.461   6.852   4.512  2.1332  2.2204 -0.9671
17785THY    HP625401   7.347   6.960   4.605 -0.2485  0.7820  0.9756
17785THY    HP725402   7.333   6.785   4.612  0.5179 -1.4348 -0.0144
17785THY    CA325403   7.323   6.876   4.893 -0.0953 -0.4866  0.1699
17785THY    HA325404   7.259   6.919   4.816 -1.9487  1.6299  1.3717
17785THY    CA425405   7.278   6.878   5.025  0.0517  0.0469  0.2628
17785THY    HA425406   7.182   6.920   5.052  0.9401  1.7457  1.3163
17785THY    CA525407   7.358   6.829   5.124 -0.8490  0.1433  0.4418
17785THY    CM125408   7.313   6.842   5.272 -0.2335 -0.3766 -0.1560
17785THY    HM125409   7.218   6.894   5.282  1.2958  0.2650  2.6837
17785THY    HM225410   7.381   6.889   5.344  1.6677 -0.0295 -3.1386
17785THY    HM325411   7.290   6.741   5.307  0.1748 -0.8993 -0.4397
17785THY    CA625412   7.489   6.792   5.099  0.2198  0.0794  0.2518
17785THY    HA625413   7.554   6.764   5.180  0.8656 -0.4922  0.0691
17786THY      O25414   6.204   3.998   5.881 -0.3487  0.1987 -0.0406
17786THY     HO25415   6.183   3.904   5.891 -1.4526  0.6691  0.2428
17786THY    CA125416   6.210   4.037   6.008 -0.8710 -0.4574 -0.3089
17786THY    CA225417   6.280   4.163   6.041 -0.0561  0.0185 -0.2053
17786THY    CP125418   6.370   4.230   5.942  0.3413  0.1741  0.5427
17786THY    HP125419   6.319   4.213   5.846 -0.4786  0.6460  0.2894
17786THY    CP225420   6.510   4.155   5.928  0.7663 -0.0502  0.5525
17786THY    HP225421   6.500   4.046   5.914  1.1017  2.6842  0.0900
17786THY    HP325422   6.557   4.153   6.028 -0.4981  0.5739  1.0840
17786THY    HP425423   6.579   4.201   5.856  0.9094 -0.1727  0.1531
17786THY    CP325424   6.390   4.378   5.948  0.0932 -0.1542  0.6989
17786THY    HP525425   6.297   4.433   5.932  0.9446  0.0454  2.2385
17786THY    HP625426   6.448   4.404   5.858 -1.7857 -2.3802 -2.1294
17786THY    HP725427   6.435   4.415   6.041 -0.3745  0.1358  0.5414
17786THY    CA325428   6.263   4.213   6.171 -0.1438  0.2556  0.0316
17786THY    HA325429   6.316   4.301   6.205 -1.3943  0.7688  0.6139
17786THY    CA425430   6.182   4.131   6.262  0.2031  1.3301  0.4943
17786THY    HA425431   6.180   4.158   6.367 -1.4130  1.1544  1.1445
17786THY    CA525432   6.120   4.017   6.232  0.0079  0.1721 -0.2217
17786THY    CM125433   6.039   3.957   6.329  0.1275 -0.0289 -0.3017
17786THY    HM125434   6.056   3.849   6.341  3.4503  1.1308  0.2228
17786THY    HM225435   5.937   3.970   6.291  0.7746 -2.1826 -1.1593
17786THY    HM325436   6.044   4.002   6.429  1.8189 -0.0669 -0.3237
17786THY    CA625437   6.134   3.970   6.102 -0.1488  0.1205 -0.1324
17786THY    HA625438   6.079   3.881   6.075 -2.1390 -1.6153  1.4984
17787THY      O25439   3.437   5.536   2.372  0.6102  0.1467 -0.6226
17787THY     HO25440   3.399   5.571   2.454  1.3283 -0.3406  1.4578
17787THY    CA125441   3.569   5.575   2.378 -0.3872  0.3569 -0.1839
17787THY    CA225442   3.671   5.504   2.305  0.4867 -0.4255  0.1901
17787THY    CP125443   3.632   5.390   2.204 -0.5925  0.3415 -0.3308
17787THY    HP125444   3.529   5.406   2.170 -0.2002 -0.7764 -0.1310
17787THY    CP225445   3.648   5.255   2.279 -0.2754 -0.4271  0.3262
17787THY    HP225446   3.584   5.276   2.365  0.7382 -0.3235  3.4144
17787THY    HP325447   3.750   5.232   2.312  0.2503 -1.5284  0.9935
17787THY    HP425448   3.602   5.174   2.221  1.5943 -1.3772 -0.1212
17787THY    CP325449   3.727   5.394   2.074  0.7902  0.4483  0.3847
17787THY    HP525450   3.763   5.496   2.059  0.6062 -1.4725  0.1945
17787THY    HP625451   3.675   5.354   1.986  0.7440  0.4893  0.3539
17787THY    HP725452   3.809   5.326   2.100  0.7060  1.8360  0.7770
17787THY    CA325453   3.804   5.544   2.329 -0.5069  0.7113  0.7540
17787THY    HA325454   3.883   5.490   2.278 -0.7584  2.0011 -0.9181
17787THY    CA425455   3.832   5.642   2.429 -0.4896 -0.0014  0.6182
17787THY    HA425456   3.934   5.678   2.439  0.0521  0.9243 -1.1066
17787THY    CA525457   3.730   5.702   2.498 -0.1312  0.2117 -0.3967
17787THY    CM125458   3.766   5.804   2.605  0.1940 -0.1251  0.1947
17787THY    HM125459   3.852   5.871   2.589 -0.1598  0.4816  0.8042
17787THY    HM225460   3.801   5.747   2.692  1.4442 -0.3964  0.5085
17787THY    HM325461   3.681   5.867   2.634 -1.7602  1.1525 -2.8237
17787THY    CA625462   3.599   5.664   2.485  0.0513  0.1249  0.3252
17787THY    HA625463   3.516   5.715   2.532 -0.8412 -0.0777 -0.8969
17788THY      O25464   0.292   5.956   3.631 -0.0114 -0.6384  0.0421
17788THY     HO25465   0.258   5.970   3.721 -1.1669 -0.7294 -1.7954
17788THY    CA125466   0.431   5.968   3.638 -0.6818  0.5033 -0.5011
17788THY    CA225467   0.505   5.973   3.515 -0.0204 -0.2387  0.4978
17788THY    CP125468   0.428   5.969   3.378 -0.4311  0.4957  0.1246
17788THY    HP125469   0.333   6.018   3.402 -0.0475  0.4644  0.8939
17788THY    CP225470   0.403   5.832   3.319 -0.3806  0.0086  0.1398
17788THY    HP225471   0.343   5.769   3.386  1.6572  0.2598 -1.6548
17788THY    HP325472   0.498   5.782   3.298 -1.2247 -0.2935 -1.4120
17788THY    HP425473   0.355   5.837   3.220  0.6170 -0.4437  0.8870
17788THY    CP325474   0.488   6.062   3.282 -0.3723 -0.1557  0.8152
17788THY    HP525475   0.422   6.060   3.194  0.6962 -0.9682 -0.2779
17788THY    HP625476   0.584   6.030   3.241 -1.2891 -0.8042 -1.3323
17788THY    HP725477   0.491   6.166   3.316 -2.5883  1.7798  0.3499
17788THY    CA325478   0.643   5.969   3.517 -0.0986  0.8876 -0.2724
17788THY    HA325479   0.705   5.969   3.428  0.4207  1.2382  0.2759
17788THY    CA425480   0.709   5.959   3.645 -0.1475  0.8674 -0.4424
17788THY    HA425481   0.817   5.952   3.646 -0.0157  1.5568  1.2002
17788THY    CA525482   0.638   5.965   3.767 -0.0983 -0.3463 -0.0596
17788THY    CM125483   0.701   5.953   3.903 -0.0646  0.1457 -0.1196
17788THY    HM125484   0.797   5.904   3.885 -0.2479 -0.9689 -0.0951
17788THY    HM225485   0.639   5.886   3.962  0.3482 -0.1763 -0.7954
17788THY    HM325486   0.720   6.045   3.959  0.8239  0.1901 -0.3233
17788THY    CA625487   0.498   5.974   3.759  0.5088  0.0573 -0.2146
17788THY    HA625488   0.441   5.979   3.851  0.8248  0.2226  0.7287
17789THY      O25489   1.476   7.948   6.796 -0.2387 -0.2309  0.0773
17789THY     HO25490   1.540   7.901   6.853 -1.8185  1.6256  0.0514
17789THY    CA125491   1.453   7.859   6.704 -0.1264 -0.7954 -0.0014
17789THY    CA225492   1.426   7.900   6.576  0.4079  0.1674 -0.0319
17789THY    CP125493   1.446   8.047   6.537  0.0430  1.1733 -0.6510
17789THY    HP125494   1.456   8.107   6.628 -0.9521  1.2203 -0.5356
17789THY    CP225495   1.323   8.095   6.451 -0.4906 -1.2935 -0.5992
17789THY    HP225496   1.317   8.204   6.440 -2.5253 -0.0578 -0.5346
17789THY    HP325497   1.236   8.067   6.511 -0.5264  0.4118  2.6581
17789THY    HP425498   1.317   8.044   6.354  1.0999 -1.6655 -0.1379
17789THY    CP325499   1.576   8.076   6.462  0.2633  0.3405  0.0869
17789THY    HP525500   1.586   8.185   6.458  0.0477 -0.3116  0.0826
17789THY    HP625501   1.595   8.031   6.364  0.9233 -0.3647  1.8163
17789THY    HP725502   1.650   8.036   6.533 -0.6388  0.2854 -1.7520
17789THY    CA325503   1.378   7.809   6.486 -0.2151  0.1551  0.8581
17789THY    HA325504   1.358   7.834   6.383 -0.3408 -0.2054 -0.6132
17789THY    CA425505   1.359   7.671   6.523  0.1598  0.2849 -0.2035
17789THY    HA425506   1.324   7.590   6.459 -1.1609  2.3964 -1.3972
17789THY    CA525507   1.382   7.633   6.654  0.2890 -0.3592 -0.1014
17789THY    CM125508   1.331   7.497   6.709 -0.3490  0.5418  0.3218
17789THY    HM125509   1.271   7.439   6.638  0.2481 -0.3126  0.7358
17789THY    HM225510   1.280   7.521   6.803 -1.4427 -0.4656  2.1867
17789THY    HM325511   1.411   7.426   6.733 -0.8082  1.3531  0.0640
17789THY    CA625512   1.437   7.724   6.743  0.5208  0.2895  0.5486
17789THY    HA625513   1.446   7.688   6.845  0.7335 -0.4773 -1.7363
17790THY      O25514   2.373   4.504   3.288  0.6480  0.3191  0.2169
17790THY     HO25515   2.295   4.548   3.250  2.0627 -1.9810  0.8733
17790THY    CA125516   2.353   4.470   3.414  0.1592 -0.5513  1.6284
17790THY    CA225517   2.450   4.393   3.484  0.2323 -0.0148 -0.1869
17790THY    CP125518   2.586   4.358   3.414 -1.5329 -0.0751  0.0785
17790THY    HP125519   2.580   4.381   3.307  1.8344 -0.1294  1.3076
17790THY    CP225520   2.630   4.216   3.438 -0.2558 -0.1255 -0.3279
17790THY    HP225521   2.697   4.197   3.523  0.8614 -1.4616 -3.0070
17790THY    HP325522   2.685   4.173   3.354  0.8827  0.7870 -0.7340
17790THY    HP425523   2.536   4.162   3.451 -0.2863 -1.3268 -0.5955
17790THY    CP325524   2.696   4.459   3.455  0.2773  0.5485 -0.3154
17790THY    HP525525   2.736   4.437   3.555 -0.0129  0.3556 -1.8112
17790THY    HP625526   2.644   4.555   3.457 -1.9380  2.7064 -1.4537
17790THY    HP725527   2.777   4.468   3.382 -0.8250 -0.4865  1.9758
17790THY    CA325528   2.423   4.354   3.622  0.3709  0.3989  0.2372
17790THY    HA325529   2.493   4.291   3.676 -0.1804  0.1126 -0.6326
17790THY    CA425530   2.297   4.373   3.673 -0.3166  0.0125  0.0486
17790THY    HA425531   2.271   4.339   3.773 -0.2106  0.2831  0.7445
17790THY    CA525532   2.198   4.431   3.597 -0.8635 -0.4138  0.3598
17790THY    CM125533   2.053   4.438   3.652  0.2560  0.0633  0.0386
17790THY    HM125534   2.018   4.541   3.668  0.7348  1.4869 -0.0063
17790THY    HM225535   2.037   4.381   3.744 -1.5644 -0.9975 -1.2368
17790THY    HM325536   1.982   4.389   3.584  0.6630  0.1637 -0.7092
17790THY    CA625537   2.231   4.489   3.472 -0.2630 -0.4661  0.3528
17790THY    HA625538   2.149   4.532   3.415 -1.9038  1.5411  0.0430
17791THY      O25539   7.594   8.723   5.736  0.0578  0.0715 -0.6597
17791THY     HO25540   7.605   8.629   5.757 -0.1407  3.1490 -0.1236
17791THY    CA125541   7.580   8.729   5.604 -0.3360  0.2293 -0.0956
17791THY    CA225542   7.652   8.817   5.525 -0.3326  0.1358  0.3968
17791THY    CP125543   7.742   8.922   5.584 -0.6463 -0.2959  0.0588
17791THY    HP125544   7.737   8.924   5.694  1.5369 -0.1552  0.2053
17791THY    CP225545   7.710   9.058   5.528  0.1982  0.1646  1.1184
17791THY    HP225546   7.793   9.123   5.558  1.1133  1.7928 -0.7044
17791THY    HP325547   7.630   9.104   5.587  0.6830 -0.0483  2.2751
17791THY    HP425548   7.677   9.052   5.424  0.5555  0.1350 -0.9461
17791THY    CP325549   7.889   8.897   5.540 -0.1135  0.5399  0.0989
17791THY    HP525550   7.952   8.979   5.574  1.8479 -0.9970 -0.6825
17791THY    HP625551   7.907   8.888   5.432 -1.2156  0.5003 -2.6151
17791THY    HP725552   7.923   8.800   5.579  1.0607 -0.4652  0.0769
17791THY    CA325553   7.646   8.801   5.380  0.6572  0.1980 -0.5890
17791THY    HA325554   7.697   8.860   5.304 -0.6062 -0.5412 -0.4178
17791THY    CA425555   7.561   8.702   5.323  0.1711 -0.0951 -0.4145
17791THY    HA425556   7.570   8.681   5.217 -0.6469 -0.1406 -0.5499
17791THY    CA525557   7.503   8.610   5.409  0.4187  0.0567 -0.4714
17791THY    CM125558   7.418   8.499   5.358 -0.2894  0.0199 -0.2554
17791THY    HM125559   7.339   8.466   5.426 -2.1154 -0.8748  2.0041
17791THY    HM225560   7.488   8.423   5.323  0.9967  1.5323  0.1698
17791THY    HM325561   7.361   8.528   5.269 -0.5801  0.2020 -0.2634
17791THY    CA625562   7.512   8.628   5.548  0.7174 -0.3117 -0.3356
17791THY    HA625563   7.473   8.544   5.605 -0.0228  0.9571  0.8300
17792THY      O25564   6.222   1.954   6.620 -0.0734  0.3948 -0.0294
17792THY     HO25565   6.312   1.949   6.655  0.4705 -0.4116  2.5228
17792THY    CA125566   6.187   2.078   6.661  0.9219 -0.0319 -0.4794
17792THY    CA225567   6.189   2.179   6.571  0.2527  0.2483  0.2340
17792THY    CP125568   6.230   2.154   6.423  0.1914 -0.7672  0.3542
17792THY    HP125569   6.291   2.063   6.423 -0.2559 -0.6281  0.0512
17792THY    CP225570   6.326   2.264   6.380  0.2961  0.0785  0.5393
17792THY    HP225571   6.374   2.233   6.286 -0.1673 -0.3512  1.1184
17792THY    HP325572   6.407   2.267   6.454 -0.2136  0.7532 -1.3459
17792THY    HP425573   6.275   2.357   6.352  2.5765 -0.1518  1.8099
17792THY    CP325574   6.111   2.137   6.329 -0.2358 -0.5720 -0.0050
17792THY    HP525575   6.151   2.086   6.240 -0.1428  0.3641 -1.6579
17792THY    HP625576   6.047   2.224   6.312 -0.7029 -0.1882 -0.2683
17792THY    HP725577   6.037   2.074   6.379 -0.5789  1.2488  1.7608
17792THY    CA325578   6.149   2.310   6.609  0.4388  0.0898  0.8220
17792THY    HA325579   6.166   2.394   6.543 -0.0743 -1.5899 -0.3561
17792THY    CA425580   6.112   2.330   6.742  0.2097 -0.0525  0.1216
17792THY    HA425581   6.091   2.431   6.777  2.0832  0.7433  0.2708
17792THY    CA525582   6.113   2.225   6.833  0.5482 -0.0045 -0.3979
17792THY    CM125583   6.065   2.254   6.971 -0.3177 -0.3318  0.8206
17792THY    HM125584   6.147   2.290   7.034 -0.0999 -0.3469  0.3632
17792THY    HM225585   6.021   2.168   7.024  1.9626  3.2810  1.6932
17792THY    HM325586   5.993   2.336   6.966  0.4769 -1.3007  1.4873
17792THY    CA625587   6.155   2.099   6.792 -0.2922  0.7025  0.0274
17792THY    HA625588   6.155   2.010   6.855  2.3828 -0.1984 -0.7317
17793THY      O25589   8.896   5.312   2.348 -0.4279 -0.4273 -0.3640
17793THY     HO25590   8.825   5.254   2.315 -1.3929  1.0989 -0.1144
17793THY    CA125591   9.014   5.256   2.306  0.8244  0.4636  0.9214
17793THY    CA225592   9.139   5.311   2.337  0.0368  1.0231 -0.0038
17793THY    CP125593   9.143   5.431   2.430 -0.4531  1.2858  0.2152
17793THY    HP125594   9.046   5.483   2.419 -0.5201 -1.4211 -0.3306
17793THY    CP225595   9.257   5.529   2.395 -0.0732 -0.1743  0.5274
17793THY    HP225596   9.273   5.556   2.290  2.2891 -0.8659 -2.7855
17793THY    HP325597   9.349   5.473   2.419 -0.9309 -1.4685 -1.5922
17793THY    HP425598   9.244   5.619   2.456  0.8146  1.9739 -0.6994
17793THY    CP325599   9.162   5.374   2.567 -0.5673  0.2402 -0.1566
17793THY    HP525600   9.169   5.455   2.641  1.0953  0.1685 -0.2128
17793THY    HP625601   9.262   5.329   2.576 -0.6127 -1.6462 -0.7040
17793THY    HP725602   9.082   5.311   2.608  0.4101  1.3343 -0.7368
17793THY    CA325603   9.248   5.252   2.280  0.2038 -0.0587 -0.3747
17793THY    HA325604   9.344   5.300   2.298  0.2865 -0.4917 -0.3771
17793THY    CA425605   9.247   5.133   2.221  0.4580  0.2331 -0.1067
17793THY    HA425606   9.339   5.085   2.189 -1.0786 -0.0765 -3.0477
17793THY    CA525607   9.122   5.071   2.191 -0.8449  0.2530 -0.4382
17793THY    CM125608   9.120   4.937   2.129  0.0847  0.7930  0.3862
17793THY    HM125609   9.211   4.914   2.072  0.3669  1.7331 -0.9031
17793THY    HM225610   9.039   4.942   2.055 -0.0485  0.7917 -1.3075
17793THY    HM325611   9.097   4.857   2.200  1.5877  1.3187  0.3902
17793THY    CA625612   9.009   5.138   2.228  0.1886 -0.7148  0.1938
17793THY    HA625613   8.912   5.091   2.218  0.5128 -0.7395 -0.4841
17794THY      O25614   5.353   4.570   7.847  0.4052 -0.4297 -0.0603
17794THY     HO25615   5.367   4.475   7.863  1.3684  0.6045  0.2323
17794THY    CA125616   5.223   4.590   7.814 -0.5427 -0.1381 -0.1601
17794THY    CA225617   5.163   4.715   7.787  0.3730 -0.5666  0.2543
17794THY    CP125618   5.249   4.843   7.776  0.0244  0.4540  0.3373
17794THY    HP125619   5.342   4.833   7.832  1.9972 -2.3598  1.7022
17794THY    CP225620   5.185   4.966   7.844 -0.0568  0.0556  0.4952
17794THY    HP225621   5.124   4.937   7.930 -0.4135 -1.1314 -2.6949
17794THY    HP325622   5.130   5.024   7.768  3.9679 -1.0689  3.3183
17794THY    HP425623   5.270   5.032   7.866  0.1209 -1.1181  0.6850
17794THY    CP325624   5.274   4.870   7.624  0.0063 -0.1443 -0.6546
17794THY    HP525625   5.183   4.848   7.568  0.3556 -2.5627  3.1938
17794THY    HP625626   5.354   4.806   7.585  0.9408  1.0249 -0.2628
17794THY    HP725627   5.287   4.977   7.601 -1.5475  1.4167 -0.0693
17794THY    CA325628   5.025   4.728   7.781 -0.6003 -0.6639  0.1070
17794THY    HA325629   4.976   4.825   7.771  1.3371  1.3115  1.3942
17794THY    CA425630   4.955   4.609   7.795  0.7165  0.2011 -0.0185
17794THY    HA425631   4.847   4.610   7.779  0.7596 -0.2920  2.2258
17794THY    CA525632   5.008   4.484   7.814  0.1686  0.6253 -0.0025
17794THY    CM125633   4.921   4.365   7.833 -0.8314  0.1346  0.2800
17794THY    HM125634   4.956   4.286   7.766 -3.2083 -2.6818  1.4493
17794THY    HM225635   4.815   4.385   7.813 -0.6906 -0.7983  0.1092
17794THY    HM325636   4.933   4.349   7.941  1.7303 -0.3441 -1.5876
17794THY    CA625637   5.148   4.472   7.824  0.3411  0.3034 -0.2055
17794THY    HA625638   5.191   4.375   7.849  0.6416  0.0854 -0.1302
17795THY      O25639   4.959   1.849   4.526  0.1786  0.7565  0.0033
17795THY     HO25640   4.962   1.845   4.623 -0.9492  0.7808 -0.7029
17795THY    CA125641   5.078   1.795   4.475 -0.0843 -0.3898  0.9042
17795THY    CA225642   5.102   1.779   4.333  0.3251  0.5024  0.0489
17795THY    CP125643   5.004   1.825   4.225 -0.2039 -0.4622 -0.6922
17795THY    HP125644   4.913   1.848   4.282 -0.0432 -0.6368  0.4302
17795THY    CP225645   4.960   1.709   4.132 -0.6166 -0.0658  0.3814
17795THY    HP225646   5.047   1.680   4.072 -0.2933  1.4212 -2.0577
17795THY    HP325647   4.886   1.752   4.064 -0.4279  0.4339  1.5276
17795THY    HP425648   4.929   1.628   4.199 -0.5519 -0.3475  0.1224
17795THY    CP325649   5.054   1.958   4.165  0.4910  0.0595  0.0919
17795THY    HP525650   4.984   2.042   4.156 -0.9152 -0.0472 -1.0661
17795THY    HP625651   5.131   1.930   4.092  0.1582 -0.4656  0.5489
17795THY    HP725652   5.118   2.006   4.241 -1.7884 -0.2348  4.0696
17795THY    CA325653   5.227   1.731   4.292 -0.5517  0.0593 -0.1500
17795THY    HA325654   5.247   1.732   4.185  0.9366  0.3151  0.8664
17795THY    CA425655   5.325   1.686   4.387  0.2600  0.5611 -0.3856
17795THY    HA425656   5.419   1.637   4.363  0.2017  1.8954 -1.1810
17795THY    CA525657   5.294   1.694   4.528  0.0400 -0.1386  0.4193
17795THY    CM125658   5.382   1.636   4.633 -0.1440 -0.3852  0.3916
17795THY    HM125659   5.381   1.682   4.732  1.0708  0.2926 -0.9504
17795THY    HM225660   5.480   1.633   4.584  0.3513  0.4535  1.8121
17795THY    HM325661   5.352   1.534   4.660  2.9601  0.7177 -0.3388
17795THY    CA625662   5.173   1.747   4.562 -0.2353 -0.5061 -0.4509
17795THY    HA625663   5.156   1.757   4.669  1.5159 -0.1742 -0.5733
17796THY      O25664   4.775   7.137   6.594  0.8124  0.4869  0.4075
17796THY     HO25665   4.778   7.234   6.605  3.0105 -1.6772  0.6760
17796THY    CA125666   4.900   7.093   6.621 -0.1877 -0.2103  0.2948
17796THY    CA225667   4.932   6.959   6.588 -0.3242 -0.5099  0.4190
17796THY    CP125668   4.820   6.865   6.539  0.2437  0.7611 -0.2562
17796THY    HP125669   4.730   6.921   6.512 -0.7688  0.3790 -2.0164
17796THY    CP225670   4.770   6.768   6.646 -0.2066  0.4885 -0.4087
17796THY    HP225671   4.779   6.833   6.734  3.1506  0.2634 -0.4100
17796THY    HP325672   4.841   6.685   6.652  1.6570 -0.8323  1.0180
17796THY    HP425673   4.673   6.716   6.645 -0.0855  2.9429 -0.8058
17796THY    CP325674   4.851   6.774   6.419  0.2659 -0.5694  0.0113
17796THY    HP525675   4.924   6.699   6.451  0.4266  2.1857  1.2214
17796THY    HP625676   4.892   6.842   6.343 -0.8840 -1.1746  0.0577
17796THY    HP725677   4.765   6.717   6.382 -0.8280  2.5720 -0.5906
17796THY    CA325678   5.072   6.914   6.597 -0.1355  0.4129  0.0067
17796THY    HA325679   5.107   6.815   6.568 -0.3930 -2.5699  0.6778
17796THY    CA425680   5.163   7.005   6.657  0.0720  0.1344  0.4187
17796THY    HA425681   5.264   6.971   6.674 -0.9933  1.0166 -2.6688
17796THY    CA525682   5.133   7.134   6.688 -0.5042 -0.9585 -0.1147
17796THY    CM125683   5.234   7.232   6.749  0.2653 -0.1202  0.0316
17796THY    HM125684   5.193   7.319   6.802  1.5958  4.0782 -1.6188
17796THY    HM225685   5.306   7.261   6.673 -0.1650  0.2750  2.3850
17796THY    HM325686   5.282   7.171   6.827 -1.8231 -0.0253 -1.6342
17796THY    CA625687   4.999   7.179   6.660 -0.7964  0.0742  0.3704
17796THY    HA625688   4.971   7.280   6.688 -1.7128  0.4000  0.0426
17797THY      O25689   6.270   3.734   5.824  0.2084 -0.1492 -0.3437
17797THY     HO25690   6.233   3.717   5.736 -0.2503  0.1271 -0.7902
17797THY    CA125691   6.355   3.628   5.842 -0.0332 -0.1292 -0.0414
17797THY    CA225692   6.392   3.592   5.977 -0.2390  0.0666 -0.5581
17797THY    CP125693   6.322   3.640   6.097  0.2247  0.0801 -0.5959
17797THY    HP125694   6.225   3.675   6.058  0.3310 -0.7137 -1.1671
17797THY    CP225695   6.396   3.764   6.155 -0.6615 -0.4888  0.5928
17797THY    HP225696   6.502   3.743   6.174 -0.5181 -0.7677  1.0248
17797THY    HP325697   6.350   3.801   6.247  0.9939  0.4077  0.5547
17797THY    HP425698   6.399   3.850   6.086  2.8878 -0.7970  0.3816
17797THY    CP325699   6.298   3.544   6.206 -0.0432 -0.2269 -0.1486
17797THY    HP525700   6.394   3.502   6.235  0.4478  0.1939  1.2108
17797THY    HP625701   6.233   3.464   6.170 -1.2766  1.1441  0.1981
17797THY    HP725702   6.247   3.590   6.291  0.2071  0.5409 -1.2703
17797THY    CA325703   6.493   3.488   5.983  0.4618 -0.6097  0.2081
17797THY    HA325704   6.526   3.459   6.082 -1.4385  0.3676  1.2253
17797THY    CA425705   6.530   3.413   5.867 -0.4212 -0.1836  0.2899
17797THY    HA425706   6.606   3.337   5.882 -0.1024 -1.7712  0.2696
17797THY    CA525707   6.485   3.456   5.736  0.0619  0.0526  0.9506
17797THY    CM125708   6.527   3.407   5.604 -0.0744  0.0305 -0.2671
17797THY    HM125709   6.613   3.341   5.622 -0.3803  2.0568 -0.1681
17797THY    HM225710   6.529   3.490   5.532  1.1371  1.1442  0.7308
17797THY    HM325711   6.452   3.340   5.561  1.7003  1.4446 -3.3855
17797THY    CA625712   6.403   3.567   5.731 -0.1465 -0.1970 -0.6688
17797THY    HA625713   6.381   3.608   5.632 -0.3654  1.1882  2.9797
17798THY      O25714   3.350   1.679   2.867  0.0870 -0.5484  0.6360
17798THY     HO25715   3.271   1.708   2.818  0.6124 -2.3087 -0.6948
17798THY    CA125716   3.343   1.542   2.861  0.2406 -0.4596  0.0108
17798THY    CA225717   3.453   1.462   2.883 -0.0214  0.1850  0.1541
17798THY    CP125718   3.595   1.529   2.908 -0.5203  0.0396 -0.1090
17798THY    HP125719   3.607   1.611   2.837 -3.1442 -0.0050  0.3044
17798THY    CP225720   3.712   1.439   2.873 -0.9436 -0.2668 -0.1608
17798THY    HP225721   3.716   1.404   2.769  0.9092 -0.1109 -0.5383
17798THY    HP325722   3.715   1.350   2.937 -0.0446  0.5449  0.4383
17798THY    HP425723   3.804   1.492   2.899 -0.8746  2.1499 -1.3493
17798THY    CP325724   3.612   1.575   3.056  0.0606  0.3855 -0.1905
17798THY    HP525725   3.714   1.614   3.063 -0.1430  0.4375  0.3447
17798THY    HP625726   3.603   1.493   3.128 -0.6228  1.9343  1.2029
17798THY    HP725727   3.530   1.641   3.087  0.1547  1.4757 -0.5732
17798THY    CA325728   3.430   1.324   2.878  0.0401 -0.5758  0.6532
17798THY    HA325729   3.509   1.254   2.901  0.1919  2.8314  1.7791
17798THY    CA425730   3.300   1.267   2.843  0.5995 -0.0966 -0.6463
17798THY    HA425731   3.281   1.160   2.838  0.1251 -0.5185 -0.5465
17798THY    CA525732   3.197   1.352   2.818 -0.2489  0.0882 -0.2668
17798THY    CM125733   3.068   1.302   2.760 -0.1530 -0.5963  0.3939
17798THY    HM125734   3.052   1.196   2.785  0.4466 -0.1903  0.3890
17798THY    HM225735   3.063   1.305   2.651  0.1576 -0.6689 -0.8579
17798THY    HM325736   2.984   1.361   2.799 -0.2369 -1.2360  0.7028
17798THY    CA625737   3.218   1.489   2.834  0.7698 -0.0125 -0.2427
17798THY    HA625738   3.138   1.556   2.805 -2.3183  0.6359 -3.3193
17799THY      O25739   5.347   6.299   6.715  0.0696  0.2778 -0.1481
17799THY     HO25740   5.281   6.353   6.669  0.8144  0.3965  0.8875
17799THY    CA125741   5.414   6.385   6.799 -0.0866  0.3760 -0.1026
17799THY    CA225742   5.527   6.351   6.869 -0.0892 -0.1643 -0.4383
17799THY    CP125743   5.582   6.208   6.871 -0.0196 -0.4746 -0.5107
17799THY    HP125744   5.529   6.150   6.795 -0.1356 -0.4934 -0.3780
17799THY    CP225745   5.557   6.140   7.012 -0.0738  0.2520 -0.3244
17799THY    HP225746   5.455   6.156   7.047 -0.2625  0.0815 -1.1177
17799THY    HP325747   5.641   6.155   7.082  2.5957 -2.6232 -0.7799
17799THY    HP425748   5.561   6.035   6.981 -2.5109  0.0333 -0.3951
17799THY    CP325749   5.732   6.207   6.834 -0.7040 -0.0599  0.2391
17799THY    HP525750   5.795   6.253   6.911  0.3750 -0.3926 -0.6414
17799THY    HP625751   5.754   6.261   6.742 -2.0776 -0.2510  0.5119
17799THY    HP725752   5.758   6.101   6.824  0.4103 -0.0643  0.5012
17799THY    CA325753   5.576   6.447   6.950 -0.9081  0.3563 -0.5647
17799THY    HA325754   5.662   6.430   7.014  0.3908 -0.9725  0.8164
17799THY    CA425755   5.531   6.577   6.953  0.1300 -0.1620  0.1072
17799THY    HA425756   5.581   6.644   7.022 -0.3988 -0.4931  0.8517
17799THY    CA525757   5.421   6.613   6.889 -0.2881  0.7580  0.7731
17799THY    CM125758   5.383   6.761   6.872  0.2951 -0.6571 -0.5566
17799THY    HM125759   5.460   6.832   6.905  0.2079  2.7494 -1.8328
17799THY    HM225760   5.296   6.786   6.933  1.0998  0.6361 -0.7907
17799THY    HM325761   5.364   6.786   6.767  1.2855 -0.6016  0.5109
17799THY    CA625762   5.354   6.513   6.808 -0.1131 -0.2503  0.5557
17799THY    HA625763   5.271   6.545   6.746  0.4268 -1.4662 -0.3149
17800THY      O25764   8.619   6.480   1.954 -0.0671 -0.0151 -0.1770
17800THY     HO25765   8.550   6.514   1.895 -0.8340  1.1495  0.3554
17800THY    CA125766   8.572   6.356   1.993  0.7191  0.5190 -0.6041
17800THY    CA225767   8.651   6.238   2.004 -0.1714 -0.0467 -0.0067
17800THY    CP125768   8.805   6.250   1.977  0.0550 -0.1331 -0.0562
17800THY    HP125769   8.830   6.355   1.993  0.0292  1.0521 -0.2220
17800THY    CP225770   8.831   6.210   1.832 -0.6826  0.0331 -0.4377
17800THY    HP225771   8.775   6.275   1.764 -1.0092 -0.5888 -1.3481
17800THY    HP325772   8.799   6.108   1.810  0.3056 -1.6000 -0.4176
17800THY    HP425773   8.935   6.233   1.805 -1.5669 -0.3447  3.8590
17800THY    CP325774   8.884   6.179   2.085  0.6605  0.1468 -0.1742
17800THY    HP525775   8.990   6.190   2.063  0.7023  0.7816  0.7873
17800THY    HP625776   8.864   6.071   2.081 -2.2696 -1.8195  0.3253
17800THY    HP725777   8.868   6.233   2.179  0.9390  0.2503 -0.2707
17800THY    CA325778   8.590   6.112   2.036  0.0972  0.5019 -0.0011
17800THY    HA325779   8.648   6.020   2.037  0.3324  0.1716  0.1428
17800THY    CA425780   8.448   6.114   2.053 -0.3603  0.2651 -0.4677
17800THY    HA425781   8.393   6.022   2.066 -1.4676  1.2508  0.2960
17800THY    CA525782   8.374   6.232   2.050 -0.2501  0.5572 -0.2490
17800THY    CM125783   8.227   6.231   2.063  0.4441 -0.0054 -0.8666
17800THY    HM125784   8.177   6.235   1.965  1.2114 -0.4021 -0.5420
17800THY    HM225785   8.191   6.320   2.117  0.4787 -0.3676 -0.6289
17800THY    HM325786   8.197   6.144   2.122 -0.4044  1.0908  0.1305
17800THY    CA625787   8.435   6.348   2.021  0.1261 -0.1069 -0.7191
17800THY    HA625788   8.374   6.437   2.011 -0.6962  1.7477 -1.0240
17801THY      O25789   2.810   1.948   4.069  0.1825 -0.1344 -0.3344
17801THY     HO25790   2.823   1.896   4.150  0.9156 -0.8764 -1.3591
17801THY    CA125791   2.883   2.066   4.086  0.9456  0.5357  0.5023
17801THY    CA225792   2.849   2.170   4.002 -0.1772  0.0646 -0.8893
17801THY    CP125793   2.751   2.159   3.889 -0.0166  0.4594  0.0224
17801THY    HP125794   2.762   2.062   3.839 -1.4559 -1.9513  1.0166
17801THY    CP225795   2.766   2.265   3.780 -0.6904  0.3594  0.3035
17801THY    HP225796   2.865   2.284   3.735 -1.7533 -2.2600  0.0581
17801THY    HP325797   2.728   2.353   3.832  0.2756  1.5133  0.0565
17801THY    HP425798   2.690   2.248   3.703 -0.0521 -0.0530 -0.7765
17801THY    CP325799   2.607   2.164   3.932  0.1716 -0.2815  0.3495
17801THY    HP525800   2.568   2.264   3.954  1.8140  1.7736  0.5955
17801THY    HP625801   2.590   2.117   4.030  0.7272  0.6236  1.9666
17801THY    HP725802   2.548   2.117   3.852  1.4960 -0.3340 -1.3018
17801THY    CA325803   2.922   2.291   4.026 -0.3790  0.4797  0.3187
17801THY    HA325804   2.910   2.383   3.970  0.3659 -2.5455 -1.2785
17801THY    CA425805   3.019   2.295   4.133 -0.4202  0.0950  0.8027
17801THY    HA425806   3.064   2.390   4.163  0.2270  0.6340  0.3392
17801THY    CA525807   3.031   2.187   4.218  0.5763  0.9692  0.6481
17801THY    CM125808   3.111   2.196   4.342  0.2412 -0.8557 -0.1485
17801THY    HM125809   3.111   2.294   4.392  1.2368  0.4195 -0.7724
17801THY    HM225810   3.214   2.190   4.305 -0.3271 -2.3845 -1.0852
17801THY    HM325811   3.083   2.123   4.419  0.0838 -0.4405  0.3326
17801THY    CA625812   2.975   2.068   4.185  0.8233  0.4273  0.2228
17801THY    HA625813   2.993   1.989   4.257  1.2412  2.5961  2.1838
17802THY      O25814   3.144   4.121   4.161  0.0682 -0.7070  0.5531
17802THY     HO25815   3.158   4.062   4.086  3.8920 -0.2084  0.6270
17802THY    CA125816   3.201   4.058   4.264  0.1680 -0.4496  0.3459
17802THY    CA225817   3.203   4.123   4.394 -0.3509  0.0720 -0.0521
17802THY    CP125818   3.144   4.264   4.406  0.3323 -0.1224 -0.5786
17802THY    HP125819   3.110   4.305   4.310  0.5591 -0.0754 -0.2798
17802THY    CP225820   3.252   4.367   4.457 -0.1099  0.6826  0.1318
17802THY    HP225821   3.305   4.320   4.540 -1.9148  1.3900 -0.7755
17802THY    HP325822   3.216   4.466   4.487  0.2412 -0.2126  0.5359
17802THY    HP425823   3.323   4.390   4.376  0.0415  0.9467  0.6010
17802THY    CP325824   3.026   4.251   4.507 -0.4719  0.2513 -0.1072
17802THY    HP525825   3.064   4.204   4.598  0.4417 -1.8706 -3.8928
17802THY    HP625826   2.936   4.210   4.461  0.7326  0.1902 -2.8964
17802THY    HP725827   3.001   4.356   4.531  0.2709 -0.2925  0.2019
17802THY    CA325828   3.279   4.054   4.493  0.2304 -0.1040 -0.2584
17802THY    HA325829   3.284   4.105   4.589 -0.3721 -0.7819  1.1350
17802THY    CA425830   3.330   3.930   4.472 -0.5261 -0.2406  0.3591
17802THY    HA425831   3.382   3.878   4.552  1.7456 -1.6710  0.2946
17802THY    CA525832   3.325   3.870   4.345 -0.2238 -0.0823  0.6756
17802THY    CM125833   3.383   3.731   4.320  0.0962 -0.2403 -0.6803
17802THY    HM125834   3.308   3.657   4.292 -0.8677 -1.1538  0.6005
17802THY    HM225835   3.435   3.688   4.407 -0.6732  1.0594  0.8949
17802THY    HM325836   3.456   3.730   4.238 -0.7997 -1.0922 -3.2486
17802THY    CA625837   3.265   3.940   4.241  0.0225 -0.8586  0.4508
17802THY    HA625838   3.265   3.893   4.144 -1.9841 -0.5386 -0.3075
17803THY      O25839   3.068   0.834   7.791  0.3418  0.0581 -0.3142
17803THY     HO25840   3.062   0.858   7.886  0.9640 -0.1008  0.5290
17803THY    CA125841   2.960   0.894   7.725 -0.7958  0.5489 -0.2206
17803THY    CA225842   2.883   0.826   7.626 -0.7028 -0.6853  0.2750
17803THY    CP125843   2.937   0.697   7.558  0.0282 -0.1426  0.0297
17803THY    HP125844   3.012   0.657   7.629  0.7174 -2.4410 -3.1337
17803THY    CP225845   3.001   0.704   7.415  0.6737 -0.1176  0.3299
17803THY    HP225846   3.062   0.614   7.398 -0.8444  0.8690 -0.9579
17803THY    HP325847   3.065   0.792   7.404  0.3630  0.3027  0.6146
17803THY    HP425848   2.925   0.713   7.336  0.4801 -0.5918 -3.5336
17803THY    CP325849   2.834   0.588   7.562  0.2492 -0.4427  0.7899
17803THY    HP525850   2.741   0.584   7.504 -0.5999  0.8638  0.8501
17803THY    HP625851   2.781   0.575   7.657 -2.5997 -1.9795  0.1362
17803THY    HP725852   2.889   0.496   7.539 -1.1450  0.4439 -0.3001
17803THY    CA325853   2.763   0.883   7.576 -0.0015 -0.3373 -0.3858
17803THY    HA325854   2.693   0.840   7.505 -1.6200  0.7441  0.3701
17803THY    CA425855   2.732   1.012   7.624  0.2927  0.6082  0.2192
17803THY    HA425856   2.635   1.048   7.590  0.7436 -2.8355 -1.4442
17803THY    CA525857   2.798   1.070   7.732  0.4061  0.1578  0.0932
17803THY    CM125858   2.754   1.193   7.794  0.0964 -0.3684 -0.2167
17803THY    HM125859   2.658   1.224   7.752 -0.5693  0.3293 -1.2988
17803THY    HM225860   2.832   1.270   7.786  0.2397 -1.2613 -0.4367
17803THY    HM325861   2.736   1.168   7.899  1.5098 -0.5875 -2.4349
17803THY    CA625862   2.911   1.011   7.780 -0.8136  0.1327 -0.0817
17803THY    HA625863   2.959   1.046   7.871  0.0648  0.3069 -1.6459
17804THY      O25864   1.414   2.914   5.354  0.3281  0.1871  0.0703
17804THY     HO25865   1.496   2.966   5.365 -0.0686 -0.2438  0.7941
17804THY    CA125866   1.432   2.805   5.275 -0.0055 -0.1100  0.3566
17804THY    CA225867   1.381   2.680   5.314 -0.7079 -0.6032  0.0405
17804THY    CP125868   1.290   2.652   5.436 -0.6956  0.1606 -0.3992
17804THY    HP125869   1.335   2.706   5.520  1.1911 -0.8289 -0.3450
17804THY    CP225870   1.301   2.508   5.491 -0.1020  0.2361 -0.3920
17804THY    HP225871   1.408   2.491   5.508  0.2815  0.4454  1.8572
17804THY    HP325872   1.273   2.449   5.402  2.0993 -3.3247  3.3883
17804THY    HP425873   1.230   2.492   5.572  1.4224  2.0185  1.3535
17804THY    CP325874   1.150   2.696   5.400  0.2205 -0.1846 -0.4135
17804THY    HP525875   1.153   2.806   5.397  0.7877 -0.3742 -0.4335
17804THY    HP625876   1.069   2.675   5.471 -1.0365 -1.2672  0.6358
17804THY    HP725877   1.119   2.670   5.299 -0.0953 -0.2133  0.0618
17804THY    CA325878   1.413   2.573   5.218 -0.1744 -0.2520  0.3639
17804THY    HA325879   1.362   2.478   5.232  1.6637 -0.4782 -0.6940
17804THY    CA425880   1.504   2.584   5.118 -0.5129 -0.9152  0.2578
17804THY    HA425881   1.529   2.497   5.057  1.6959  1.0390 -0.5821
17804THY    CA525882   1.562   2.704   5.097 -0.3305 -0.0378 -0.1889
17804THY    CM125883   1.677   2.708   4.998  0.3382  0.4550 -0.0651
17804THY    HM125884   1.759   2.642   5.030 -0.0981  2.6228  0.3461
17804THY    HM225885   1.722   2.808   5.002  1.0091 -0.3561 -0.3243
17804THY    HM325886   1.652   2.671   4.898  1.2156  0.5080 -0.8486
17804THY    CA625887   1.523   2.817   5.175  0.2526 -0.1085  1.0267
17804THY    HA625888   1.566   2.916   5.157  2.0280  0.1211  0.3469
17805THY      O25889   9.033   0.435   3.438  0.0966  0.3999 -0.0115
17805THY     HO25890   8.996   0.345   3.447  0.2010  0.3329 -0.0613
17805THY    CA125891   8.926   0.516   3.458 -0.0639 -0.0764 -0.0967
17805THY    CA225892   8.929   0.650   3.470 -0.0988 -0.0990 -0.0643
17805THY    CP125893   9.063   0.714   3.487  0.4943 -0.1300  0.3509
17805THY    HP125894   9.132   0.649   3.542  0.6188 -0.0170  0.5761
17805THY    CP225895   9.053   0.826   3.578  0.2956 -0.1512 -0.7956
17805THY    HP225896   8.986   0.819   3.664  0.0581 -0.4124 -1.8173
17805THY    HP325897   9.018   0.915   3.524 -1.9420  2.7964  0.2578
17805THY    HP425898   9.150   0.856   3.619  0.5477 -1.9835  1.1649
17805THY    CP325899   9.118   0.754   3.350  0.8190 -0.2061 -0.1789
17805THY    HP525900   9.154   0.670   3.289  0.7601 -0.9817  0.3534
17805THY    HP625901   9.196   0.829   3.367 -0.7931 -0.1127  1.5560
17805THY    HP725902   9.041   0.813   3.300  0.0917 -0.7296 -1.5195
17805THY    CA325903   8.806   0.723   3.476  0.1189  0.2934 -0.4945
17805THY    HA325904   8.807   0.830   3.494 -1.2008  1.0629 -0.5880
17805THY    CA425905   8.684   0.660   3.453  0.0835 -0.0641  0.1870
17805THY    HA425906   8.583   0.701   3.449  0.0394 -1.9404 -0.0324
17805THY    CA525907   8.686   0.522   3.436  0.2985 -0.1292 -0.1567
17805THY    CM125908   8.565   0.446   3.438  0.3014 -0.2841  0.7090
17805THY    HM125909   8.483   0.499   3.489  0.3387  1.0329 -0.4577
17805THY    HM225910   8.571   0.357   3.502 -2.1426  2.7412  2.5155
17805THY    HM325911   8.523   0.425   3.338  0.4479 -0.5938  1.8447
17805THY    CA625912   8.807   0.449   3.452 -0.0453 -0.3166 -0.0909
17805THY    HA625913   8.803   0.340   3.456 -0.6920  0.6334 -0.0464
17806THY      O25914   0.557   1.270   3.678 -0.2180 -0.5852  0.0928
17806THY     HO25915   0.554   1.211   3.601  1.4809  0.9834 -2.2693
17806THY    CA125916   0.620   1.194   3.757  0.2559 -0.4063  0.3935
17806THY    CA225917   0.652   1.229   3.892 -0.0637  0.5238 -0.1501
17806THY    CP125918   0.609   1.362   3.945 -0.5220  0.3811  0.5005
17806THY    HP125919   0.641   1.431   3.867  1.7463  3.8403  3.7599
17806THY    CP225920   0.701   1.413   4.067 -0.2432 -0.0728  0.6161
17806THY    HP225921   0.670   1.365   4.160  1.8670  0.5697  0.4055
17806THY    HP325922   0.695   1.522   4.078 -0.0712  1.7036  0.4786
17806THY    HP425923   0.808   1.393   4.049 -0.3315 -1.2164  1.0977
17806THY    CP325924   0.457   1.370   3.989  0.3940 -0.3584  0.0032
17806THY    HP525925   0.383   1.364   3.909 -1.0559  0.8523  0.8911
17806THY    HP625926   0.438   1.470   4.031 -1.0754 -0.9323 -0.0216
17806THY    HP725927   0.427   1.300   4.067 -3.4337 -2.7613 -1.3273
17806THY    CA325928   0.745   1.149   3.967  0.2173 -0.2342 -0.1228
17806THY    HA325929   0.778   1.174   4.067  2.5495 -1.0891  0.4692
17806THY    CA425930   0.788   1.038   3.902 -0.2275  0.2575 -0.5757
17806THY    HA425931   0.863   0.974   3.949  1.3487 -2.2804 -0.7351
17806THY    CA525932   0.744   1.002   3.772 -0.4000 -0.4963  0.2848
17806THY    CM125933   0.778   0.866   3.718  0.0769  0.8726  0.4860
17806THY    HM125934   0.723   0.847   3.625 -1.1021  1.5014  0.6830
17806THY    HM225935   0.735   0.803   3.797 -0.8419  0.8174  1.0180
17806THY    HM325936   0.887   0.858   3.708 -0.1794 -0.6784 -2.1302
17806THY    CA625937   0.662   1.075   3.699 -0.5324  0.6859 -0.1914
17806THY    HA625938   0.645   1.042   3.597  0.8176  0.6477 -0.8167
17807THY      O25939   8.968   2.064   6.013 -0.2162  0.7876  0.4793
17807THY     HO25940   9.053   2.085   5.970 -1.1036 -0.5079  1.6151
17807THY    CA125941   8.887   2.081   5.903 -0.3842 -0.6360 -0.2428
17807THY    CA225942   8.751   2.051   5.911 -0.3300  0.2694 -0.2055
17807THY    CP125943   8.689   1.976   6.029 -0.5175 -0.3995 -0.4234
17807THY    HP125944   8.748   1.999   6.119 -1.7920  0.2230  0.5752
17807THY    CP225945   8.697   1.825   5.995 -0.6504  0.0406 -0.9043
17807THY    HP225946   8.644   1.808   5.901 -0.3095 -1.1924  3.6829
17807THY    HP325947   8.661   1.760   6.076 -1.3678  0.7628  0.3410
17807THY    HP425948   8.803   1.806   5.974 -0.4485 -0.1577  0.3824
17807THY    CP325949   8.537   2.011   6.060 -0.6453  0.6464  0.5987
17807THY    HP525950   8.517   2.116   6.088 -0.6248 -0.9439  1.0441
17807THY    HP625951   8.500   1.939   6.134 -0.4775 -1.3070 -1.5871
17807THY    HP725952   8.470   1.988   5.977 -2.0235  1.6259  0.9668
17807THY    CA325953   8.672   2.083   5.797  0.3179  0.0951  0.4580
17807THY    HA325954   8.566   2.059   5.799  0.2543 -2.2382  0.3855
17807THY    CA425955   8.722   2.151   5.683 -0.0733 -0.2513 -0.8046
17807THY    HA425956   8.655   2.167   5.599 -3.3481  2.3834  0.4690
17807THY    CA525957   8.857   2.188   5.687  0.3033  0.0517  0.3398
17807THY    CM125958   8.912   2.253   5.567 -0.3680 -0.2247  0.5366
17807THY    HM125959   8.918   2.358   5.597 -0.2128  4.5536 -0.6139
17807THY    HM225960   8.846   2.251   5.480 -1.9936  0.9188  1.8351
17807THY    HM325961   9.009   2.214   5.534  0.9840  3.9726 -0.1936
17807THY    CA625962   8.944   2.152   5.791  0.1515  0.1462 -0.2386
17807THY    HA625963   9.047   2.186   5.797 -0.3718  0.9981  1.3224
17808THY      O25964   6.145   8.951   7.089  0.0644 -0.6257 -0.1354
17808THY     HO25965   6.238   8.951   7.062  1.0251  2.0385  2.9809
17808THY    CA125966   6.084   8.852   7.024 -0.3275  0.1004 -0.9298
17808THY    CA225967   5.990   8.762   7.075 -0.5229  0.1934 -1.2299
17808THY    CP125968   5.925   8.797   7.207  0.0836  0.0296 -0.4319
17808THY    HP125969   5.965   8.886   7.256  0.9876  0.7392 -1.2051
17808THY    CP225970   5.937   8.688   7.304 -0.3060 -0.2106 -0.4247
17808THY    HP225971   5.928   8.590   7.254 -1.1322  1.0110 -0.9993
17808THY    HP325972   5.878   8.699   7.396  2.0804  1.1397  2.4721
17808THY    HP425973   6.041   8.700   7.334 -0.3277 -0.8151  1.6900
17808THY    CP325974   5.775   8.829   7.178  0.0108  0.6769  0.5044
17808THY    HP525975   5.755   8.902   7.098 -1.5756  1.6437  1.1952
17808THY    HP625976   5.732   8.863   7.273  1.1912  1.2460  0.4636
17808THY    HP725977   5.723   8.737   7.148 -0.7705  0.1183  1.1196
17808THY    CA325978   5.929   8.663   7.001  0.1569  0.0954 -0.0714
17808THY    HA325979   5.859   8.598   7.052  1.0223  3.1475  1.2266
17808THY    CA425980   5.967   8.643   6.867  0.9899  0.4980 -0.0723
17808THY    HA425981   5.926   8.561   6.809  0.4565  0.0819  0.4825
17808THY    CA525982   6.071   8.722   6.816 -0.3123 -0.3422  0.1060
17808THY    CM125983   6.109   8.691   6.681 -0.8276  0.7657  0.4333
17808THY    HM125984   6.032   8.712   6.606  2.4422 -3.4600 -1.3430
17808THY    HM225985   6.128   8.584   6.672  0.9907  3.0775  0.4757
17808THY    HM325986   6.198   8.742   6.642  0.5585  0.2996 -2.1662
17808THY    CA625987   6.134   8.822   6.892 -0.1423 -0.2601  0.2926
17808THY    HA625988   6.219   8.873   6.847  1.3174  0.8077 -1.1002
17809THY      O25989   5.254   1.803   3.213 -0.7215  0.0412 -0.1059
17809THY     HO25990   5.345   1.768   3.217 -0.2543 -0.7024  0.9660
17809THY    CA125991   5.265   1.906   3.127 -0.4053  0.4297  0.3101
17809THY    CA225992   5.249   2.037   3.169  0.8073 -0.8491 -0.6524
17809THY    CP125993   5.211   2.076   3.314  0.3821  0.1048  0.1873
17809THY    HP125994   5.174   1.991   3.372  1.6923  1.2313  0.3444
17809THY    CP225995   5.086   2.165   3.313  0.2405  0.2405 -0.3117
17809THY    HP225996   4.999   2.115   3.267 -1.5204  0.7089  2.1568
17809THY    HP325997   5.107   2.259   3.261 -0.5168 -0.6858 -0.6376
17809THY    HP425998   5.053   2.198   3.412  0.6787  1.3696 -2.9722
17809THY    CP325999   5.316   2.140   3.395 -0.7557 -0.5782  0.3997
17809THY    HP526000   5.301   2.149   3.503 -2.8644 -0.7729 -0.2687
17809THY    HP626001   5.332   2.239   3.352 -1.4329  0.2579  0.8839
17809THY    HP726002   5.411   2.087   3.380 -0.9478  1.6800 -0.6953
17809THY    CA326003   5.257   2.136   3.071 -0.2149  0.8072 -0.0585
17809THY    HA326004   5.243   2.241   3.094 -3.1746 -2.4600  0.4636
17809THY    CA426005   5.266   2.100   2.935 -0.0491 -0.2528  0.7073
17809THY    HA426006   5.276   2.175   2.857 -0.1871 -1.0207 -0.0592
17809THY    CA526007   5.276   1.960   2.902  0.1780  0.2028  0.5986
17809THY    CM126008   5.307   1.912   2.763  0.4700 -0.3618 -0.0768
17809THY    HM126009   5.258   1.815   2.746 -3.1413  1.0735  1.3229
17809THY    HM226010   5.415   1.915   2.744  0.7187  0.9619  0.2137
17809THY    HM326011   5.250   1.983   2.702 -1.1998  0.4877 -0.6218
17809THY    CA626012   5.278   1.863   2.999  0.1537 -1.0665  0.4781
17809THY    HA626013   5.269   1.758   2.970  0.5432  2.3473 -0.5961
17810THY      O26014   1.643   5.908   6.595 -0.1779  0.3679  0.0934
17810THY     HO26015   1.664   5.854   6.517 -2.9087 -1.2178  1.0839
17810THY    CA126016   1.605   6.029   6.549 -1.0095  0.3210  1.1664
17810THY    CA226017   1.568   6.128   6.633 -0.3606 -0.3427 -0.2614
17810THY    CP126018   1.549   6.115   6.782 -0.6482 -0.8534  0.3452
17810THY    HP126019   1.590   6.017   6.808 -0.1221 -1.2107  0.4633
17810THY    CP226020   1.411   6.120   6.833 -0.0427  0.4985  0.3424
17810THY    HP226021   1.358   6.204   6.786 -0.2397  0.8233  0.4029
17810THY    HP326022   1.407   6.120   6.943 -0.1674  0.5265 -1.4347
17810THY    HP426023   1.357   6.034   6.791 -1.3151  2.1349  0.2795
17810THY    CP326024   1.650   6.208   6.857  0.2215  0.1506  0.2854
17810THY    HP526025   1.673   6.176   6.959  0.3256 -0.6873 -2.5472
17810THY    HP626026   1.615   6.312   6.863  1.1344  1.8325  0.5279
17810THY    HP726027   1.747   6.209   6.808  0.0612 -0.1854  1.5012
17810THY    CA326028   1.535   6.254   6.583 -0.2171  0.3578 -0.2391
17810THY    HA326029   1.502   6.338   6.643  0.3736  2.9900 -1.7752
17810THY    CA426030   1.529   6.267   6.447 -0.0919  0.1704  0.3179
17810THY    HA426031   1.508   6.363   6.401 -3.5025  1.5619  0.3479
17810THY    CA526032   1.550   6.161   6.360 -0.0783  0.1902 -0.7554
17810THY    CM126033   1.534   6.179   6.212 -0.7382  0.2819 -0.1208
17810THY    HM126034   1.611   6.248   6.177  2.2387 -1.5941 -4.0229
17810THY    HM226035   1.432   6.219   6.198  0.2911  1.1676  3.1031
17810THY    HM326036   1.545   6.083   6.160 -1.6459  2.2386 -1.3484
17810THY    CA626037   1.605   6.048   6.412  0.0244 -0.1796 -0.3617
17810THY    HA626038   1.633   5.968   6.344  2.8630  0.5547 -0.1105
17811THY      O26039   5.174   6.789   5.736  0.7278 -0.2942  0.0255
17811THY     HO26040   5.146   6.877   5.766 -1.4499 -3.2289  0.4839
17811THY    CA126041   5.102   6.700   5.797 -0.0813  0.2432 -0.0541
17811THY    CA226042   5.125   6.560   5.794  0.3618  0.5673  0.9636
17811THY    CP126043   5.256   6.503   5.741  0.2432  0.3718  0.8010
17811THY    HP126044   5.305   6.575   5.675 -2.4648 -1.4974  1.0736
17811THY    CP226045   5.249   6.368   5.669  0.0585 -0.1961  0.7332
17811THY    HP226046   5.153   6.342   5.622 -0.6753  1.3244  0.5530
17811THY    HP326047   5.273   6.287   5.740 -1.5382 -0.7196 -0.2508
17811THY    HP426048   5.326   6.350   5.594 -0.6853 -0.2468 -3.1061
17811THY    CP326049   5.343   6.492   5.865  0.9373 -0.2466  0.7963
17811THY    HP526050   5.288   6.437   5.942 -2.4150 -1.4033  2.2678
17811THY    HP626051   5.355   6.592   5.905  3.5272 -0.7569  0.7570
17811THY    HP726052   5.440   6.441   5.852  0.9072  2.0158  0.0748
17811THY    CA326053   5.033   6.468   5.853 -0.2146 -0.4112  0.1196
17811THY    HA326054   5.056   6.363   5.863 -0.9801  0.3198  0.0047
17811THY    CA426055   4.915   6.523   5.913  0.5138  0.3161  0.8712
17811THY    HA426056   4.854   6.452   5.968 -0.8322 -2.3443 -0.1820
17811THY    CA526057   4.884   6.658   5.902  0.0089  0.5408 -0.6344
17811THY    CM126058   4.758   6.704   5.967  0.2280 -0.1583  0.0864
17811THY    HM126059   4.766   6.694   6.076  1.3850 -0.2178  0.1852
17811THY    HM226060   4.671   6.645   5.937 -0.0315  1.7584 -0.5975
17811THY    HM326061   4.733   6.807   5.939  0.2520 -0.8325 -0.0893
17811THY    CA626062   4.977   6.747   5.838  0.2192  0.7012  0.5482
17811THY    HA626063   4.944   6.851   5.834 -2.1976 -1.8759 -0.1940
17812THY      O26064   8.774   1.407   5.706 -0.2044 -0.3029 -0.0723
17812THY     HO26065   8.804   1.443   5.621  0.5721 -0.3884 -0.9003
17812THY    CA126066   8.779   1.274   5.676 -0.1205  0.4635 -0.2315
17812THY    CA226067   8.730   1.177   5.774 -0.1016 -0.4222  0.0417
17812THY    CP126068   8.685   1.223   5.913  0.1444  0.5359 -0.4876
17812THY    HP126069   8.676   1.332   5.925 -1.1253 -0.2309 -0.4943
17812THY    CP226070   8.786   1.173   6.023  0.3915 -0.4336  0.1493
17812THY    HP226071   8.886   1.214   6.002  0.3306 -3.4756 -0.9829
17812THY    HP326072   8.794   1.064   6.019  0.8135 -1.6431  0.2072
17812THY    HP426073   8.757   1.187   6.128  0.1822 -0.3306 -0.9602
17812THY    CP326074   8.540   1.175   5.943  0.4511 -0.0194 -0.2736
17812THY    HP526075   8.529   1.066   5.937 -2.2801 -1.5957 -0.0041
17812THY    HP626076   8.473   1.220   5.869 -1.7604  3.2226  2.3329
17812THY    HP726077   8.502   1.217   6.037 -0.5973 -0.2763 -0.6208
17812THY    CA326078   8.735   1.042   5.744 -0.0122 -0.3569 -0.3252
17812THY    HA326079   8.699   0.970   5.818 -1.1703  0.5684  1.1268
17812THY    CA426080   8.784   0.997   5.616 -0.2551  0.3337 -0.1390
17812THY    HA426081   8.789   0.893   5.588 -1.4655 -2.2216  0.3971
17812THY    CA526082   8.827   1.092   5.525  0.5338  0.2743  0.0174
17812THY    CM126083   8.866   1.057   5.384  0.8149  0.4951 -0.2098
17812THY    HM126084   8.817   0.963   5.356 -1.2907  0.5700  0.8035
17812THY    HM226085   8.973   1.057   5.360  0.5083 -0.9793 -1.0095
17812THY    HM326086   8.819   1.122   5.309  1.1885 -0.8372 -1.4182
17812THY    CA626087   8.829   1.229   5.556  0.7462  0.5771  0.3689
17812THY    HA626088   8.847   1.297   5.473 -0.3172 -0.2047 -0.2686
17813THY      O26089   8.916   5.752   4.239  0.1232  0.0001 -0.3533
17813THY     HO26090   8.979   5.801   4.184  0.2158  2.6920  2.9187
17813THY    CA126091   8.800   5.825   4.231 -0.1390 -0.1995  0.5422
17813THY    CA226092   8.681   5.775   4.280  1.6073 -0.4395 -0.0104
17813THY    CP126093   8.671   5.652   4.373  0.2782  0.3942 -0.4580
17813THY    HP126094   8.773   5.615   4.388  1.6854 -0.7550  2.6204
17813THY    CP226095   8.588   5.539   4.309  0.0684  0.1757  0.4547
17813THY    HP226096   8.481   5.561   4.309  0.2958 -0.9486  1.6577
17813THY    HP326097   8.619   5.444   4.355  1.4466 -0.3928  0.6019
17813THY    HP426098   8.611   5.533   4.202 -2.5589 -0.5896  2.5737
17813THY    CP326099   8.615   5.686   4.512 -0.0313  0.8118  0.6314
17813THY    HP526100   8.529   5.754   4.519 -0.4319 -2.8613  0.6924
17813THY    HP626101   8.702   5.728   4.563 -0.3955  2.4801 -0.5253
17813THY    HP726102   8.589   5.595   4.568 -0.5258 -1.6613 -0.8377
17813THY    CA326103   8.567   5.853   4.250  0.6025 -0.6935 -0.5276
17813THY    HA326104   8.472   5.821   4.291  0.5811 -0.9114 -0.7399
17813THY    CA426105   8.578   5.982   4.186  0.2626 -0.3928 -0.0593
17813THY    HA426106   8.492   6.049   4.182  0.3521  0.5490  0.1317
17813THY    CA526107   8.700   6.023   4.134 -0.4507 -1.2700 -0.0092
17813THY    CM126108   8.708   6.153   4.056  0.6050  0.5179 -0.0162
17813THY    HM126109   8.735   6.130   3.952  1.7313  0.7772  0.0732
17813THY    HM226110   8.790   6.211   4.100 -0.2683 -0.6758  2.2273
17813THY    HM326111   8.616   6.212   4.056  1.7052 -1.0078  1.8058
17813THY    CA626112   8.813   5.943   4.155  0.7428  0.0216  0.2368
17813THY    HA626113   8.912   5.970   4.119  0.4149 -3.0079 -2.0114
17814THY      O26114   4.447   1.247   4.508 -0.2325  0.2019  0.0788
17814THY     HO26115   4.539   1.255   4.539 -0.1446  0.2968 -1.0451
17814THY    CA126116   4.438   1.310   4.387 -0.0363 -0.8189 -0.2735
17814THY    CA226117   4.336   1.279   4.292  0.3898  0.1937 -0.0124
17814THY    CP126118   4.240   1.162   4.316  0.8019  0.4378  0.2464
17814THY    HP126119   4.250   1.135   4.422  1.7212 -0.5435 -3.9918
17814THY    CP226120   4.282   1.047   4.228  0.3383  0.4591  0.3944
17814THY    HP226121   4.267   1.084   4.126 -0.5656  1.6137  3.4494
17814THY    HP326122   4.212   0.963   4.231 -1.7565 -1.5400  1.9463
17814THY    HP426123   4.382   1.011   4.255  0.0561  2.0723  0.7551
17814THY    CP326124   4.087   1.199   4.300  0.2859  0.2528  0.1416
17814THY    HP526125   4.065   1.226   4.196  1.5927  0.6634  3.1908
17814THY    HP626126   4.065   1.293   4.351 -2.8563 -1.2135  0.3324
17814THY    HP726127   4.020   1.125   4.344 -0.5202  1.4808  1.5547
17814THY    CA326128   4.331   1.349   4.169 -0.3806 -0.1331 -0.4098
17814THY    HA326129   4.254   1.316   4.100 -0.1262 -0.9301  0.5887
17814THY    CA426130   4.416   1.461   4.148 -0.1619  0.6223  0.7942
17814THY    HA426131   4.413   1.515   4.054  0.9154 -0.2303 -0.5530
17814THY    CA526132   4.513   1.491   4.249  0.2596  0.2939 -0.0787
17814THY    CM126133   4.611   1.608   4.237 -0.2515  0.0805  0.0730
17814THY    HM126134   4.551   1.699   4.244  1.2300  1.7731  0.9891
17814THY    HM226135   4.648   1.610   4.134  2.5833  0.9760 -0.8607
17814THY    HM326136   4.694   1.613   4.308 -0.4609  0.6852 -3.2128
17814THY    CA626137   4.525   1.420   4.368  0.9826 -0.0228 -0.5970
17814THY    HA626138   4.596   1.453   4.444 -0.5844  1.8266 -1.2744
17815THY      O26139   8.859   3.871   7.627  0.2188 -0.0505  0.4314
17815THY     HO26140   8.776   3.885   7.579  1.3550 -1.5549  2.8354
17815THY    CA126141   8.943   3.826   7.522  1.0021 -0.2503  0.2496
17815THY    CA226142   9.056   3.744   7.537  0.1084 -0.3642  0.2558
17815THY    CP126143   9.089   3.684   7.667 -0.6554 -0.2946 -1.2752
17815THY    HP126144   9.008   3.711   7.736  0.5753  1.0982 -1.0040
17815THY    CP226145   9.213   3.745   7.730 -0.0342  0.3412  0.2716
17815THY    HP226146   9.303   3.707   7.680 -1.5127 -1.4713 -0.9973
17815THY    HP326147   9.223   3.719   7.836 -0.9987  0.4733  0.3894
17815THY    HP426148   9.210   3.855   7.739  0.4550  0.8500  0.2525
17815THY    CP326149   9.103   3.534   7.680 -0.7062  0.0580 -0.1224
17815THY    HP526150   9.095   3.503   7.785 -1.3754  0.3034  0.8608
17815THY    HP626151   9.197   3.502   7.633 -1.4077 -0.5075 -1.4580
17815THY    HP726152   9.026   3.486   7.619  0.5593 -2.4088  0.7869
17815THY    CA326153   9.124   3.709   7.421  0.0135 -0.1295 -0.5845
17815THY    HA326154   9.188   3.622   7.430 -1.0835  0.1228 -1.3746
17815THY    CA426155   9.091   3.765   7.295  0.0209 -0.4825 -0.0924
17815THY    HA426156   9.149   3.738   7.207 -0.6234 -1.1987  0.7884
17815THY    CA526157   8.980   3.840   7.285  0.4467  0.2312  0.5451
17815THY    CM126158   8.933   3.888   7.155 -0.2889  0.9695 -1.2479
17815THY    HM126159   8.828   3.861   7.139 -0.4316  1.4245 -0.9596
17815THY    HM226160   8.994   3.841   7.076  1.0880  1.6159 -0.5937
17815THY    HM326161   8.941   3.997   7.149 -2.0014  1.8543 -1.0416
17815THY    CA626162   8.906   3.867   7.397  0.2592 -0.1798 -0.3052
17815THY    HA626163   8.828   3.942   7.385  1.5060 -1.5528  0.8197
17816THY      O26164   8.210   2.026   1.876  0.3793 -0.0436 -0.3611
17816THY     HO26165   8.238   2.119   1.884  0.0378 -0.4157 -0.2244
17816THY    CA126166   8.231   1.971   2.001  0.6126 -0.2420  0.1752
17816THY    CA226167   8.163   1.860   2.058  0.5398 -0.5779  0.3437
17816THY    CP126168   8.058   1.779   1.979 -0.5645  0.1486  0.1755
17816THY    HP126169   8.055   1.818   1.877  3.4980  0.2455  1.1634
17816THY    CP226170   7.915   1.791   2.048 -0.1226  0.6210  0.2786
17816THY    HP226171   7.829   1.759   1.989  1.1732 -0.7751 -0.7471
17816THY    HP326172   7.902   1.899   2.065 -3.2632  1.5470 -0.1472
17816THY    HP426173   7.912   1.749   2.149 -1.1181 -0.9032 -3.7450
17816THY    CP326174   8.113   1.638   1.949  0.3279 -0.4331  0.1258
17816THY    HP526175   8.116   1.569   2.034  0.6953 -0.2886  0.3197
17816THY    HP626176   8.216   1.637   1.910  0.6165  0.0562 -3.2459
17816THY    HP726177   8.042   1.587   1.883 -0.6125  0.3642  0.3756
17816THY    CA326178   8.196   1.807   2.187 -0.2268  0.5205  0.1386
17816THY    HA326179   8.156   1.711   2.218 -0.3465  1.4570  0.4839
17816THY    CA426180   8.290   1.878   2.264 -0.6001  1.2179 -0.6133
17816THY    HA426181   8.317   1.836   2.361 -1.3549  0.3277 -3.3457
17816THY    CA526182   8.365   1.981   2.208 -0.1356 -0.1537  1.1744
17816THY    CM126183   8.475   2.044   2.292  0.1914 -0.4935  0.2842
17816THY    HM126184   8.435   2.059   2.392  3.4676  0.8424  1.0819
17816THY    HM226185   8.498   2.146   2.259  1.4918 -1.5366 -0.3100
17816THY    HM326186   8.563   1.979   2.295  0.1386 -2.0570  0.1020
17816THY    CA626187   8.335   2.023   2.080 -0.8960 -0.0230 -0.6637
17816THY    HA626188   8.385   2.110   2.038 -1.1167 -1.1557 -1.0676
17817THY      O26189   3.595   8.386   2.641  0.4815  0.0762 -0.2334
17817THY     HO26190   3.639   8.413   2.558 -1.3943 -1.0535 -0.4129
17817THY    CA126191   3.598   8.493   2.727  0.2829 -0.5986 -0.2104
17817THY    CA226192   3.495   8.509   2.820  1.8847 -0.5443 -0.0636
17817THY    CP126193   3.378   8.407   2.851 -0.1577  0.4639 -0.3895
17817THY    HP126194   3.369   8.347   2.760 -1.9516  1.5524 -1.8341
17817THY    CP226195   3.243   8.475   2.882 -0.2226  0.0303  0.0241
17817THY    HP226196   3.206   8.526   2.793 -0.9337 -0.7658 -1.7932
17817THY    HP326197   3.246   8.538   2.972  0.5785 -0.4079  0.6247
17817THY    HP426198   3.175   8.391   2.899 -0.8437 -1.7037  0.1401
17817THY    CP326199   3.412   8.326   2.974  0.6940  0.7038  0.5264
17817THY    HP526200   3.498   8.261   2.954  0.1537 -0.4974  0.1520
17817THY    HP626201   3.330   8.262   3.008  0.4517 -0.1978  0.3343
17817THY    HP726202   3.447   8.400   3.047  2.1783  0.6544 -0.0802
17817THY    CA326203   3.500   8.622   2.900  0.1025 -0.0783  0.1131
17817THY    HA326204   3.430   8.629   2.982  1.6171  1.5044 -2.0402
17817THY    CA426205   3.589   8.723   2.887 -0.5422 -0.6551 -0.0670
17817THY    HA426206   3.588   8.810   2.952  1.5838 -2.0650  1.1173
17817THY    CA526207   3.683   8.711   2.785 -0.5104 -0.3186 -0.1521
17817THY    CM126208   3.792   8.813   2.756 -0.2641 -0.4432 -0.1733
17817THY    HM126209   3.894   8.774   2.752  2.0047 -0.8029  5.1018
17817THY    HM226210   3.786   8.896   2.827  2.8003 -0.5983  0.2777
17817THY    HM326211   3.780   8.843   2.651 -3.0420 -0.4866 -1.0677
17817THY    CA626212   3.696   8.587   2.713  0.0930  0.5071  0.1872
17817THY    HA626213   3.772   8.578   2.636  1.3556  1.6044  1.0788
17818THY      O26214   1.638   1.456   5.321  0.7371 -1.1464 -0.4437
17818THY     HO26215   1.597   1.541   5.346 -0.6641  1.6902 -1.7889
17818THY    CA126216   1.648   1.385   5.440  0.3468  0.1120 -0.5448
17818THY    CA226217   1.632   1.245   5.442  0.3242 -0.4441 -0.0365
17818THY    CP126218   1.603   1.171   5.309 -0.9615 -0.0985 -0.0867
17818THY    HP126219   1.597   1.235   5.221  2.1423  0.3743  0.9946
17818THY    CP226220   1.470   1.103   5.320 -0.6980  0.5908  0.9108
17818THY    HP226221   1.389   1.177   5.324 -0.5426 -0.6227  1.1537
17818THY    HP326222   1.463   1.033   5.405 -0.8569  0.0177  0.2166
17818THY    HP426223   1.458   1.061   5.219  1.5801  0.1008  1.3503
17818THY    CP326224   1.703   1.066   5.282 -0.0444  0.5728  0.6372
17818THY    HP526225   1.680   0.980   5.346 -0.5606 -0.0339  0.3125
17818THY    HP626226   1.811   1.080   5.297  0.7123 -1.0101 -2.4289
17818THY    HP726227   1.696   1.019   5.183  0.2650  1.4280 -1.3294
17818THY    CA326228   1.652   1.176   5.564 -0.0613  0.1364  0.2832
17818THY    HA326229   1.664   1.069   5.567  1.0975 -0.2442  0.3858
17818THY    CA426230   1.679   1.251   5.678  0.2331 -0.4257  0.2032
17818THY    HA426231   1.690   1.198   5.772 -1.3104 -0.6247 -0.5312
17818THY    CA526232   1.708   1.391   5.677 -0.1953  0.4159 -0.0838
17818THY    CM126233   1.771   1.457   5.796 -0.5494 -0.6588  0.0657
17818THY    HM126234   1.705   1.475   5.881  0.9136  1.1352 -2.4818
17818THY    HM226235   1.823   1.551   5.773  1.6927  2.3604 -0.2770
17818THY    HM326236   1.841   1.385   5.840 -2.9409 -1.1693 -2.7166
17818THY    CA626237   1.691   1.461   5.554  0.2656  0.2684  0.0950
17818THY    HA626238   1.712   1.566   5.539  0.5766  0.1762  0.0187
17819THY      O26239   7.629   7.450   3.704  0.2830 -0.1328  0.1958
17819THY     HO26240   7.578   7.443   3.622 -0.6101  0.5238 -2.6432
17819THY    CA126241   7.699   7.334   3.721  0.2393  0.1465 -0.3314
17819THY    CA226242   7.813   7.320   3.809 -0.5972  0.3735  0.1291
17819THY    CP126243   7.859   7.441   3.891 -0.0626 -0.2421  0.1228
17819THY    HP126244   7.824   7.530   3.836  3.0695 -0.3761  1.3760
17819THY    CP226245   8.011   7.465   3.891 -0.0420 -0.0150  0.3721
17819THY    HP226246   8.051   7.384   3.954 -1.9613 -1.5635 -1.9369
17819THY    HP326247   8.043   7.566   3.919 -0.9891 -1.4503  1.1024
17819THY    HP426248   8.054   7.443   3.793  1.9654  0.8054  0.4379
17819THY    CP326249   7.813   7.437   4.032  0.4820 -0.2957 -0.0032
17819THY    HP526250   7.876   7.383   4.104  1.9834  0.2489  2.3319
17819THY    HP626251   7.706   7.413   4.030  0.5951 -4.3629 -0.8988
17819THY    HP726252   7.828   7.538   4.072  0.4035 -0.6892  0.1652
17819THY    CA326253   7.882   7.200   3.819 -0.4110  0.3396  0.5361
17819THY    HA326254   7.976   7.197   3.873 -1.5017  2.3203 -2.8185
17819THY    CA426255   7.845   7.093   3.734 -0.0065  0.6597  0.5193
17819THY    HA426256   7.897   6.997   3.733 -0.9196 -3.6351 -0.1305
17819THY    CA526257   7.726   7.106   3.657  0.4031 -1.1099  0.0362
17819THY    CM126258   7.681   6.999   3.564  0.4721  0.1851 -0.4549
17819THY    HM126259   7.741   6.909   3.582 -0.2659 -0.5063 -1.0997
17819THY    HM226260   7.690   7.025   3.458 -0.8837  0.5441  1.7564
17819THY    HM326261   7.578   6.972   3.592 -0.0453 -0.5307  0.6701
17819THY    CA626262   7.656   7.227   3.658  0.1113  0.2355  0.6153
17819THY    HA626263   7.562   7.236   3.605  0.5065 -0.9762 -1.5940
17820THY      O26264   1.477   5.455   3.913  0.0627  0.2271  0.4073
17820THY     HO26265   1.489   5.504   3.830 -1.1798 -0.3663 -0.2583
17820THY    CA126266   1.541   5.339   3.875  0.3449  0.1546 -0.3270
17820THY    CA226267   1.491   5.209   3.900 -0.1955  0.9694  0.1743
17820THY    CP126268   1.382   5.190   3.998  0.2150  0.2416 -0.0462
17820THY    HP126269   1.374   5.281   4.058 -0.2222  2.5744 -1.5278
17820THY    CP226270   1.409   5.072   4.093 -0.1315  0.6093  0.5563
17820THY    HP226271   1.324   5.074   4.162  1.1440  2.2307  2.1169
17820THY    HP326272   1.497   5.092   4.155 -0.0589  0.4677  0.6835
17820THY    HP426273   1.425   4.976   4.042  2.1835 -0.4843  1.4399
17820THY    CP326274   1.253   5.165   3.932  0.1908  0.6001 -0.4787
17820THY    HP526275   1.241   5.209   3.832 -0.9792  0.2424 -1.5408
17820THY    HP626276   1.173   5.201   3.998  1.2231  1.6220  0.0064
17820THY    HP726277   1.226   5.059   3.921 -0.2099 -0.1892 -0.3000
17820THY    CA326278   1.555   5.098   3.839  0.1028 -0.3263  0.0065
17820THY    HA326279   1.512   5.000   3.860 -2.1822 -1.6523  0.6418
17820THY    CA426280   1.663   5.117   3.755 -0.5847  0.3294  0.7672
17820THY    HA426281   1.716   5.038   3.703  0.2796  0.3032  1.3489
17820THY    CA526282   1.717   5.244   3.734  0.2372  0.0509 -0.0193
17820THY    CM126283   1.843   5.254   3.656  0.8263 -0.7182  0.3495
17820THY    HM126284   1.898   5.165   3.623  1.6422 -2.4758  1.4528
17820THY    HM226285   1.913   5.317   3.712 -0.6181 -0.5059  1.8072
17820THY    HM326286   1.815   5.307   3.564 -0.0756  0.1488  1.4209
17820THY    CA626287   1.659   5.351   3.794 -0.7132  0.1904 -0.5989
17820THY    HA626288   1.703   5.447   3.768  1.0274  0.9732 -1.1436
17821THY      O26289   0.593   2.182   3.650  0.1318 -0.1835  0.3084
17821THY     HO26290   0.550   2.264   3.620 -0.4546 -1.3703 -0.4063
17821THY    CA126291   0.659   2.127   3.548 -0.1275  0.3768  0.2077
17821THY    CA226292   0.741   2.013   3.561  0.1524  0.0276 -0.5099
17821THY    CP126293   0.766   1.947   3.700 -0.1551 -0.1775  0.6860
17821THY    HP126294   0.731   2.011   3.781  0.1725  0.7507 -0.2847
17821THY    CP226295   0.914   1.934   3.718 -0.3039 -0.0155 -0.5480
17821THY    HP226296   0.965   2.028   3.699  1.5302  0.7959 -1.3417
17821THY    HP326297   0.973   1.864   3.657  0.8385  2.7578 -2.1652
17821THY    HP426298   0.931   1.919   3.825  0.1665 -0.2058 -1.4613
17821THY    CP326299   0.692   1.811   3.714  0.0630  0.2165  0.0746
17821THY    HP526300   0.701   1.756   3.808  1.8948  1.1213  1.7715
17821THY    HP626301   0.732   1.744   3.636  0.2487  0.4518 -0.0899
17821THY    HP726302   0.587   1.841   3.710  0.2313  0.8414  0.7569
17821THY    CA326303   0.808   1.962   3.449 -0.2094  0.0180 -0.2103
17821THY    HA326304   0.872   1.874   3.457  0.9491  0.5919  0.6528
17821THY    CA426305   0.791   2.025   3.326 -0.2580 -0.2136  0.1022
17821THY    HA426306   0.824   1.974   3.236 -1.7243  0.2103 -1.7125
17821THY    CA526307   0.708   2.137   3.314 -0.0539 -0.2522  0.6030
17821THY    CM126308   0.661   2.180   3.184  0.4087  1.0819 -0.2112
17821THY    HM126309   0.599   2.106   3.133  0.8800 -1.2276  0.9134
17821THY    HM226310   0.740   2.198   3.110 -0.5267 -0.5136 -2.2747
17821THY    HM326311   0.603   2.272   3.193  2.2958 -0.1509  1.1637
17821THY    CA626312   0.645   2.195   3.426  0.3194 -0.2940  0.7611
17821THY    HA626313   0.569   2.272   3.417 -0.7505 -1.1531 -0.3564
17822THY      O26314   7.623   9.162   7.335  0.7656  0.6045  0.4298
17822THY     HO26315   7.678   9.147   7.256 -0.4910 -0.2508  0.0820
17822THY    CA126316   7.496   9.134   7.291 -0.3307 -0.6577 -0.1237
17822THY    CA226317   7.390   9.179   7.362  0.4679  0.5882  0.0251
17822THY    CP126318   7.399   9.246   7.496 -0.1567 -0.9530 -0.0726
17822THY    HP126319   7.500   9.262   7.533 -0.4700 -0.9032  2.2167
17822THY    CP226320   7.330   9.161   7.598 -0.2021  0.1167 -0.3342
17822THY    HP226321   7.226   9.136   7.576 -1.2467  1.6076  2.3075
17822THY    HP326322   7.311   9.220   7.688  1.1793  0.3606 -0.2287
17822THY    HP426323   7.402   9.091   7.643  0.2091  2.3561  1.4102
17822THY    CP326324   7.344   9.393   7.491  0.3212 -0.3035  0.2264
17822THY    HP526325   7.314   9.427   7.591  0.2921  0.4526 -1.8958
17822THY    HP626326   7.266   9.394   7.414  0.4792 -0.4979  2.3070
17822THY    HP726327   7.434   9.449   7.462 -0.6375 -0.2249  1.8752
17822THY    CA326328   7.266   9.140   7.307  0.1992 -0.5013 -0.4419
17822THY    HA326329   7.169   9.165   7.348 -0.9436 -2.2522 -1.7432
17822THY    CA426330   7.254   9.061   7.199  0.3443  0.1359 -0.4915
17822THY    HA426331   7.152   9.038   7.169  0.2023 -0.9016  1.2608
17822THY    CA526332   7.361   9.023   7.125  0.4295 -0.0820  0.1620
17822THY    CM126333   7.331   8.952   6.996 -0.0100  0.1130  0.8120
17822THY    HM126334   7.279   8.860   7.026  0.0324  1.5651  1.2302
17822THY    HM226335   7.421   8.917   6.946 -0.1470  0.4627 -0.0796
17822THY    HM326336   7.269   9.002   6.921 -0.4877 -0.6027 -0.7623
17822THY    CA626337   7.488   9.064   7.168 -0.9569 -0.0150  0.3663
17822THY    HA626338   7.580   9.036   7.118 -0.2009  1.5187 -0.0248
17823THY      O26339   5.207   8.515   5.674 -0.0132  0.4560 -0.2232
17823THY     HO26340   5.213   8.510   5.577  0.1125  0.3972  0.8135
17823THY    CA126341   5.299   8.423   5.713  0.2869  0.0683 -0.0610
17823THY    CA226342   5.362   8.444   5.835 -0.7384 -0.2816 -0.5515
17823THY    CP126343   5.324   8.558   5.932  0.1241  0.1108  0.6486
17823THY    HP126344   5.218   8.583   5.919 -0.8761  0.0354 -3.1346
17823THY    CP226345   5.403   8.685   5.893  0.7429  0.5245  0.1141
17823THY    HP226346   5.402   8.701   5.785 -0.9645  0.3230 -1.1161
17823THY    HP326347   5.506   8.681   5.929  0.9784 -0.2245 -1.2053
17823THY    HP426348   5.340   8.768   5.928 -0.2133 -1.9425  0.5082
17823THY    CP326349   5.334   8.528   6.085 -0.5886 -0.0130 -0.8195
17823THY    HP526350   5.268   8.581   6.155  0.8376  0.7830 -0.0429
17823THY    HP626351   5.432   8.560   6.120 -0.8778 -0.7249  0.9499
17823THY    HP726352   5.318   8.420   6.094 -2.5098  2.2062 -0.4350
17823THY    CA326353   5.470   8.357   5.871  0.2279 -0.0491 -0.4965
17823THY    HA326354   5.526   8.367   5.963  2.4244 -1.4546  0.9207
17823THY    CA426355   5.496   8.251   5.785  0.2747 -0.3434 -0.2684
17823THY    HA426356   5.584   8.200   5.824 -0.3740  3.0904  0.9800
17823THY    CA526357   5.439   8.236   5.655 -0.1715  0.0697 -0.9320
17823THY    CM126358   5.474   8.122   5.557 -0.3695  0.7887 -0.1863
17823THY    HM126359   5.449   8.164   5.460 -0.8127  1.0909  0.2548
17823THY    HM226360   5.403   8.041   5.576  1.4930  0.6897 -1.9475
17823THY    HM326361   5.576   8.082   5.553 -1.1955  0.1450 -2.3757
17823THY    CA626362   5.343   8.329   5.619 -0.6787  0.4234 -0.0417
17823THY    HA626363   5.281   8.312   5.531 -2.8441  2.0997 -1.5070
17824THY      O26364   6.774   1.909   2.134  0.3484  0.2696  0.0680
17824THY     HO26365   6.814   1.852   2.067  0.0547 -2.4212  2.7339
17824THY    CA126366   6.643   1.905   2.103 -0.9285 -0.2984 -0.2674
17824THY    CA226367   6.538   1.898   2.202  0.4612  0.2438 -0.2170
17824THY    CP126368   6.563   1.916   2.348 -0.6430  0.2717  0.2977
17824THY    HP126369   6.670   1.933   2.363 -0.5971 -0.3104  0.5359
17824THY    CP226370   6.545   1.792   2.434 -0.2162 -0.1393  0.6207
17824THY    HP226371   6.562   1.826   2.536  2.2236 -0.8798  1.8445
17824THY    HP326372   6.611   1.706   2.416 -2.0946 -0.9030 -0.7405
17824THY    HP426373   6.441   1.756   2.424  0.5443 -1.4434 -1.3981
17824THY    CP326374   6.486   2.031   2.410  0.6863  0.0637  0.2995
17824THY    HP526375   6.517   2.054   2.512 -1.3766  1.5599 -2.9114
17824THY    HP626376   6.377   2.027   2.400  0.8846 -2.3243 -1.3171
17824THY    HP726377   6.508   2.124   2.355 -0.5986  0.8177  1.0752
17824THY    CA326378   6.408   1.860   2.155 -0.3237 -0.1263  0.3324
17824THY    HA326379   6.324   1.861   2.223 -0.3404 -0.1125 -1.0516
17824THY    CA426380   6.386   1.840   2.019 -0.1462  0.2797  0.2434
17824THY    HA426381   6.287   1.808   1.989  0.2783 -0.3639 -0.5050
17824THY    CA526382   6.491   1.860   1.928 -0.7307  0.0642 -0.2995
17824THY    CM126383   6.481   1.825   1.784 -0.0691  0.0845 -0.5537
17824THY    HM126384   6.384   1.790   1.746 -0.7135  0.4127  0.8203
17824THY    HM226385   6.557   1.748   1.761  2.1175  1.7688  0.9792
17824THY    HM326386   6.503   1.913   1.723 -0.5155  0.8578  0.1035
17824THY    CA626387   6.617   1.875   1.974  0.0807  0.0557  0.0893
17824THY    HA626388   6.700   1.876   1.904 -0.8585 -1.1290 -1.0929
17825THY      O26389   4.834   4.666   2.725  0.1498  0.1065  0.3086
17825THY     HO26390   4.930   4.684   2.727  0.2288  1.3022 -0.1558
17825THY    CA126391   4.810   4.597   2.838 -0.1727  0.0887 -0.7274
17825THY    CA226392   4.677   4.593   2.902 -0.0615 -0.0755 -0.3962
17825THY    CP126393   4.552   4.664   2.841  0.0481 -0.7897 -0.2425
17825THY    HP126394   4.578   4.687   2.736 -1.0758 -1.3096 -1.2446
17825THY    CP226395   4.531   4.796   2.899  0.7828  0.5793 -0.2758
17825THY    HP226396   4.620   4.860   2.893 -1.4773  0.8161  3.1794
17825THY    HP326397   4.503   4.776   3.004  0.3882  1.0468  2.3428
17825THY    HP426398   4.443   4.847   2.859 -1.0721  1.0194 -2.9112
17825THY    CP326399   4.430   4.572   2.846  0.2402 -0.0611 -0.1242
17825THY    HP526400   4.410   4.548   2.952  2.3199  0.6721  1.0889
17825THY    HP626401   4.446   4.480   2.790  0.3702 -2.9872  1.5527
17825THY    HP726402   4.343   4.618   2.797  1.7436 -2.1287  0.6417
17825THY    CA326403   4.669   4.512   3.019 -0.1829 -1.1928 -0.0511
17825THY    HA326404   4.577   4.500   3.075 -0.0363 -1.2866 -2.1031
17825THY    CA426405   4.783   4.439   3.060 -0.0877  0.1655  0.1863
17825THY    HA426406   4.765   4.361   3.134 -3.6116 -1.7156 -1.0488
17825THY    CA526407   4.908   4.450   2.995  0.3590  0.2190  0.2579
17825THY    CM126408   5.015   4.359   3.043 -0.2108  0.0110  0.5410
17825THY    HM126409   4.984   4.277   3.109  1.1449 -1.7674 -1.5417
17825THY    HM226410   5.074   4.425   3.107 -1.3154  0.0370  1.5363
17825THY    HM326411   5.073   4.319   2.958 -0.6363  0.8703 -2.1058
17825THY    CA626412   4.922   4.534   2.888 -0.5942 -0.1587 -0.0664
17825THY    HA626413   5.018   4.555   2.844 -0.8393 -0.2546  0.8650
17826THY      O26414   4.723   6.229   5.822  0.0978  0.0129  0.4314
17826THY     HO26415   4.707   6.285   5.745 -0.5990  0.2531  0.5691
17826THY    CA126416   4.796   6.126   5.783 -0.2138  0.1212 -0.0302
17826THY    CA226417   4.884   6.064   5.876 -0.3275 -0.3291  0.5464
17826THY    CP126418   4.871   6.104   6.024  0.2169  0.3078  0.4313
17826THY    HP126419   4.861   6.213   6.025 -0.1602  0.4438  0.3962
17826THY    CP226420   4.993   6.079   6.114 -0.5203  0.2981 -0.3686
17826THY    HP226421   5.084   6.122   6.071 -1.2199  0.5910  1.4803
17826THY    HP326422   5.006   5.975   6.146  0.6333  0.7374 -0.0955
17826THY    HP426423   4.983   6.147   6.199  1.0460 -0.3580  0.7403
17826THY    CP326424   4.750   6.043   6.086 -0.4094 -0.2712  0.2947
17826THY    HP526425   4.732   6.071   6.191  0.6634  0.3531 -1.2099
17826THY    HP626426   4.753   5.933   6.081 -2.2807  0.6812  0.1518
17826THY    HP726427   4.658   6.067   6.031 -1.5965 -0.5341 -3.9655
17826THY    CA326428   4.977   5.959   5.833 -0.1301 -0.8430  0.2643
17826THY    HA326429   5.045   5.907   5.899 -1.3542 -0.1211 -0.4949
17826THY    CA426430   4.978   5.934   5.698 -0.3745 -0.4783  0.3386
17826THY    HA426431   5.055   5.866   5.662 -0.0775 -0.1710  0.5099
17826THY    CA526432   4.893   6.001   5.608  0.2269 -0.5538 -0.6303
17826THY    CM126433   4.894   5.960   5.462 -0.7420 -0.7708  0.6275
17826THY    HM126434   4.877   5.853   5.446 -0.7026  1.0240  0.3322
17826THY    HM226435   4.987   5.984   5.410  1.0945  0.0538 -3.7142
17826THY    HM326436   4.816   6.012   5.404 -0.6938 -0.2811  1.2615
17826THY    CA626437   4.803   6.097   5.657 -0.7008 -0.0957 -0.4405
17826THY    HA626438   4.739   6.143   5.582 -0.8941 -0.5804 -1.4448
17827THY      O26439   7.509   0.092   3.889  0.2841 -0.1446  0.6949
17827THY     HO26440   7.434   0.052   3.937 -0.7407 -2.4760 -0.3637
17827THY    CA126441   7.453   0.207   3.871  0.0473  0.8211 -0.7198
17827THY    CA226442   7.527   0.327   3.854 -0.3263  0.4505  0.4099
17827THY    CP126443   7.680   0.333   3.861  0.4161 -0.6480  0.9684
17827THY    HP126444   7.719   0.232   3.877 -3.2572 -0.7610 -0.6464
17827THY    CP226445   7.733   0.423   3.970 -0.1562 -0.4298 -0.2227
17827THY    HP226446   7.695   0.391   4.069  0.4805 -0.1493 -0.1151
17827THY    HP326447   7.703   0.526   3.951 -1.0794  0.8187 -0.2364
17827THY    HP426448   7.842   0.418   3.977 -0.0853 -1.6165 -0.6393
17827THY    CP326449   7.746   0.384   3.738 -0.1098  0.2685  0.1256
17827THY    HP526450   7.715   0.328   3.649 -0.9608  0.5732  0.0951
17827THY    HP626451   7.848   0.347   3.756 -0.3576  1.7198  0.0904
17827THY    HP726452   7.741   0.491   3.713 -2.2769  1.2572  0.3022
17827THY    CA326453   7.456   0.445   3.829 -0.8032 -0.0284  0.5909
17827THY    HA326454   7.509   0.535   3.800  0.0009 -0.9739 -0.1600
17827THY    CA426455   7.321   0.446   3.841 -0.2398  0.2048  0.4192
17827THY    HA426456   7.262   0.535   3.822 -0.4106 -0.1188  0.2384
17827THY    CA526457   7.244   0.334   3.863  0.8305  0.1593 -0.0792
17827THY    CM126458   7.092   0.344   3.870 -0.5783  0.4501  0.1298
17827THY    HM126459   7.058   0.423   3.938 -4.8909 -0.7941 -0.3707
17827THY    HM226460   7.059   0.246   3.908  1.1669  2.8132  0.3642
17827THY    HM326461   7.055   0.350   3.767 -1.3937  0.5842 -1.7886
17827THY    CA626462   7.313   0.214   3.877 -0.0796 -0.3581 -0.7443
17827THY    HA626463   7.242   0.134   3.896 -1.2457  1.0857  0.5497
17828THY      O26464   2.909   8.765   3.956  0.8472 -0.4621 -0.7115
17828THY     HO26465   2.891   8.786   4.050  4.3871 -0.2063  1.9864
17828THY    CA126466   3.026   8.691   3.952  0.3849 -0.0544 -0.0978
17828THY    CA226467   3.097   8.668   3.828  0.2425  0.5267 -0.1844
17828THY    CP126468   3.059   8.736   3.699 -0.2475  0.8439 -0.6855
17828THY    HP126469   2.961   8.784   3.712 -0.7420 -2.2671 -0.6095
17828THY    CP226470   3.031   8.645   3.583  0.2738 -0.0953  0.3200
17828THY    HP226471   2.924   8.621   3.583  0.4952 -0.9659 -0.8094
17828THY    HP326472   3.070   8.543   3.596  2.1151  0.9305  1.1194
17828THY    HP426473   3.066   8.697   3.492  2.7625  1.1302  0.9425
17828THY    CP326474   3.170   8.840   3.646  0.2478 -0.0957  0.0597
17828THY    HP526475   3.252   8.781   3.605 -0.6504 -0.6813 -0.8174
17828THY    HP626476   3.209   8.891   3.735 -1.5704 -0.1170  1.6157
17828THY    HP726477   3.132   8.912   3.573  0.4168 -1.1225 -0.8593
17828THY    CA326478   3.209   8.583   3.824 -0.0544  0.1513 -0.0638
17828THY    HA326479   3.267   8.571   3.733 -0.7394 -0.1404 -1.2835
17828THY    CA426480   3.258   8.526   3.939  0.7154 -0.8726 -0.2434
17828THY    HA426481   3.353   8.475   3.944 -0.1474  1.3107 -1.7616
17828THY    CA526482   3.175   8.529   4.050  0.2788  0.5803 -0.5637
17828THY    CM126483   3.209   8.439   4.168 -0.0515 -0.0478 -0.6782
17828THY    HM126484   3.121   8.433   4.234  0.2673  0.3592 -0.8938
17828THY    HM226485   3.291   8.488   4.221  1.4074 -2.9097  0.2046
17828THY    HM326486   3.242   8.337   4.147 -1.7881 -1.2367 -1.0583
17828THY    CA626487   3.060   8.612   4.059 -1.4509  0.4364  0.7478
17828THY    HA626488   2.996   8.618   4.147 -1.6626  0.3717 -0.2648
17829THY      O26489   6.614   1.204   7.619 -0.4511  0.3101 -0.5275
17829THY     HO26490   6.701   1.224   7.579 -0.0096  0.9797 -1.0851
17829THY    CA126491   6.528   1.275   7.544  0.0767  0.0020 -0.4780
17829THY    CA226492   6.394   1.264   7.555 -0.6947 -0.0414  0.4316
17829THY    CP126493   6.334   1.169   7.664  0.2672 -0.2326  0.4929
17829THY    HP126494   6.403   1.101   7.714 -0.3995  1.3683  0.9537
17829THY    CP226495   6.222   1.074   7.603 -0.2553 -0.5028  0.3375
17829THY    HP226496   6.152   1.131   7.541 -0.2539 -2.0520 -1.2783
17829THY    HP326497   6.176   1.011   7.680 -0.5341 -3.1933 -3.0346
17829THY    HP426498   6.267   0.994   7.544 -0.2896  0.9677 -0.8238
17829THY    CP326499   6.273   1.251   7.779 -0.2631 -0.7808  0.0031
17829THY    HP526500   6.335   1.326   7.830 -1.2792 -0.4934  0.6630
17829THY    HP626501   6.234   1.196   7.865 -2.4588 -1.5306  0.2770
17829THY    HP726502   6.192   1.304   7.729 -0.7272  0.2293  0.2662
17829THY    CA326503   6.310   1.343   7.476  0.1934  0.1554 -0.0580
17829THY    HA326504   6.202   1.341   7.482 -0.0477 -0.7494  3.4870
17829THY    CA426505   6.365   1.430   7.377 -0.1839 -0.6313  0.6929
17829THY    HA426506   6.307   1.503   7.321 -0.6546 -1.9913 -0.6678
17829THY    CA526507   6.509   1.436   7.364  0.7052 -0.4532 -0.0007
17829THY    CM126508   6.576   1.528   7.268  0.5657 -0.4207 -1.1926
17829THY    HM126509   6.546   1.495   7.168  1.5746 -0.8102 -0.9670
17829THY    HM226510   6.685   1.533   7.274  0.9019 -3.3275 -2.6178
17829THY    HM326511   6.524   1.623   7.278 -0.6079 -0.1078 -1.8479
17829THY    CA626512   6.589   1.354   7.441 -0.0143 -0.2368 -1.0263
17829THY    HA626513   6.696   1.371   7.440 -0.0897  2.9153  0.1829
17830THY      O26514   4.133   2.278   2.469 -0.0627 -0.7709  0.2741
17830THY     HO26515   4.157   2.371   2.486 -0.3682  0.9995  0.0648
17830THY    CA126516   4.122   2.266   2.336 -0.2404  0.0183  0.2276
17830THY    CA226517   4.146   2.143   2.274 -0.2699 -0.2887 -0.1407
17830THY    CP126518   4.211   2.024   2.343  0.8030 -0.1995  0.3629
17830THY    HP126519   4.179   2.019   2.447  0.4577 -0.3834 -2.1669
17830THY    CP226520   4.366   2.025   2.347 -0.1087  0.3172 -0.1321
17830THY    HP226521   4.402   2.125   2.372 -4.1512  3.0993  0.8958
17830THY    HP326522   4.404   1.995   2.249  0.6947  0.0774  1.5737
17830THY    HP426523   4.416   1.959   2.419  2.7604 -0.3413  1.2123
17830THY    CP326524   4.146   1.890   2.290  0.2832  0.5835  0.0534
17830THY    HP526525   4.038   1.899   2.305  0.4742  1.2493  1.8306
17830THY    HP626526   4.187   1.801   2.338  1.0044 -1.7039 -0.9157
17830THY    HP726527   4.155   1.870   2.183 -1.6911 -0.0666  2.1970
17830THY    CA326528   4.141   2.142   2.133 -0.1605 -0.5515 -0.4324
17830THY    HA326529   4.164   2.047   2.085  1.1655 -0.5836 -0.1126
17830THY    CA426530   4.103   2.254   2.055 -0.3495  0.0021 -0.5929
17830THY    HA426531   4.097   2.248   1.947  1.1412 -0.0514 -1.3868
17830THY    CA526532   4.071   2.371   2.121  0.1981 -0.2146 -0.4883
17830THY    CM126533   4.039   2.499   2.051 -0.1056  0.5046 -0.6336
17830THY    HM126534   3.934   2.510   2.023 -0.1621  0.7521 -0.5048
17830THY    HM226535   4.090   2.526   1.958 -2.1278 -0.3465  0.5120
17830THY    HM326536   4.067   2.583   2.116  0.3471 -1.5815  0.9146
17830THY    CA626537   4.088   2.381   2.262 -0.2970  0.0324 -0.2089
17830THY    HA626538   4.063   2.473   2.315 -0.0267  1.5928 -1.0025
17831THY      O26539   6.839   5.920   3.400 -0.4552  0.6913  0.6539
17831THY     HO26540   6.757   5.870   3.394 -0.8397  0.6708  1.2732
17831THY    CA126541   6.841   5.989   3.280 -0.0017 -0.4010 -0.2126
17831THY    CA226542   6.950   6.033   3.211  0.0217 -0.7322 -0.4703
17831THY    CP126543   7.089   6.010   3.259  0.1565 -0.4783 -0.1108
17831THY    HP126544   7.078   5.990   3.366 -2.4059 -0.8763 -1.3225
17831THY    CP226545   7.183   6.131   3.248  0.2459  0.5702 -0.2940
17831THY    HP226546   7.148   6.212   3.313 -2.9555 -1.4005  0.1099
17831THY    HP326547   7.213   6.169   3.150  1.1178  1.1951  0.6915
17831THY    HP426548   7.279   6.107   3.295  0.7890 -0.5015 -0.2661
17831THY    CP326549   7.160   5.890   3.193  0.2860 -0.4424  0.7074
17831THY    HP526550   7.092   5.807   3.169  0.9879 -1.9990  0.5486
17831THY    HP626551   7.233   5.848   3.264 -1.5686  1.5066  0.5962
17831THY    HP726552   7.208   5.927   3.102  0.4627 -0.6593 -0.0505
17831THY    CA326553   6.932   6.121   3.098  0.9828  0.6474 -0.1927
17831THY    HA326554   7.015   6.169   3.047  0.1765 -0.7501 -0.2452
17831THY    CA426555   6.798   6.150   3.061  0.2398  0.2649  0.5512
17831THY    HA426556   6.781   6.228   2.986 -0.3194  0.3724  0.5360
17831THY    CA526557   6.688   6.089   3.121 -0.1804 -0.0689 -1.1080
17831THY    CM126558   6.546   6.128   3.080  0.2219 -0.3595  0.1744
17831THY    HM126559   6.508   6.102   2.980 -2.4818  0.7457 -0.4332
17831THY    HM226560   6.540   6.237   3.088 -0.9150  0.6475  0.0529
17831THY    HM326561   6.478   6.087   3.155 -0.3147 -0.7718  0.3005
17831THY    CA626562   6.709   6.009   3.229  0.3244 -0.8325  0.3084
17831THY    HA626563   6.626   5.960   3.278  0.9659 -1.5746 -1.5963
17832THY      O26564   2.906   3.383   2.593  0.3142 -0.5664 -0.3179
17832THY     HO26565   2.946   3.343   2.514  1.8463 -0.8259  1.5781
17832THY    CA126566   2.771   3.392   2.573 -0.2890 -0.1756  0.4351
17832THY    CA226567   2.682   3.421   2.673 -0.7746  0.3387 -0.4724
17832THY    CP126568   2.730   3.439   2.819  0.0511 -0.7569  0.5312
17832THY    HP126569   2.838   3.427   2.833 -0.2595  0.4275 -1.2972
17832THY    CP226570   2.689   3.315   2.891 -0.0790  0.3786  0.3820
17832THY    HP226571   2.723   3.304   2.995 -3.0859  1.4100 -0.0948
17832THY    HP326572   2.731   3.227   2.841 -0.3650 -1.1156  1.0672
17832THY    HP426573   2.581   3.297   2.890 -0.0317  0.8118  0.0749
17832THY    CP326574   2.678   3.566   2.888 -0.3327  0.1180  0.8319
17832THY    HP526575   2.723   3.655   2.841 -1.6656 -0.4173  1.2463
17832THY    HP626576   2.705   3.569   2.994 -1.8724  0.5291  0.9588
17832THY    HP726577   2.569   3.572   2.884 -0.6212  0.0013 -2.6201
17832THY    CA326578   2.544   3.438   2.643  0.2056 -0.1599  0.6194
17832THY    HA326579   2.481   3.474   2.724  1.7546  2.3039 -1.7955
17832THY    CA426580   2.499   3.412   2.517  0.8960 -0.3256 -0.7430
17832THY    HA426581   2.397   3.437   2.488 -0.2591  2.1190 -2.2454
17832THY    CA526582   2.590   3.370   2.419 -0.5601  0.1582  0.4144
17832THY    CM126583   2.538   3.333   2.283  1.0666 -0.2830 -0.1008
17832THY    HM126584   2.624   3.327   2.215  1.1975 -0.1584  0.3265
17832THY    HM226585   2.482   3.423   2.254 -0.2900  1.4603 -0.3278
17832THY    HM326586   2.474   3.244   2.281  0.6370  2.7351  0.0219
17832THY    CA626587   2.726   3.366   2.446  0.4212  0.0185 -0.9187
17832THY    HA626588   2.795   3.354   2.363  1.4227  1.0555 -2.7330
17833THY      O26589   2.422   4.967   5.617  0.1792  0.2344 -0.3728
17833THY     HO26590   2.381   4.911   5.685 -0.8664 -0.4628 -0.4764
17833THY    CA126591   2.402   4.895   5.506 -0.2026  0.2623 -0.0064
17833THY    CA226592   2.469   4.941   5.384  0.0525 -0.3318 -0.0505
17833THY    CP126593   2.563   5.067   5.386 -0.2449  0.6871 -0.1190
17833THY    HP126594   2.610   5.069   5.485 -0.3422  0.7349 -0.2000
17833THY    CP226595   2.478   5.191   5.394 -0.4838  0.2014 -0.7885
17833THY    HP226596   2.536   5.283   5.389  0.9628  0.2788 -1.6611
17833THY    HP326597   2.422   5.189   5.488 -1.8551 -0.5593  0.2608
17833THY    HP426598   2.404   5.190   5.313 -1.9234  1.4494 -2.5295
17833THY    CP326599   2.674   5.064   5.283  0.4251  0.8912 -0.6926
17833THY    HP526600   2.753   5.138   5.299 -0.6036 -0.7940  0.8540
17833THY    HP626601   2.622   5.084   5.188  0.9102  1.1372  2.2394
17833THY    HP726602   2.725   4.968   5.287  0.0377 -0.8767 -1.0061
17833THY    CA326603   2.437   4.867   5.266  0.0763 -0.2883 -0.5115
17833THY    HA326604   2.482   4.902   5.173 -0.5549  0.1845  1.6987
17833THY    CA426605   2.339   4.762   5.269  0.0628  0.0720 -0.2597
17833THY    HA426606   2.305   4.714   5.177  1.9797  0.4593 -2.5170
17833THY    CA526607   2.295   4.715   5.395  0.2097  0.0911 -0.3493
17833THY    CM126608   2.208   4.593   5.406 -0.3196  0.5196  0.7300
17833THY    HM126609   2.140   4.582   5.491  0.4649  1.2445  1.4175
17833THY    HM226610   2.269   4.503   5.402 -0.6897  0.0220  0.4907
17833THY    HM326611   2.137   4.599   5.322  0.2369 -0.0222 -0.1537
17833THY    CA626612   2.320   4.786   5.510  0.1640  0.2546 -0.6387
17833THY    HA626613   2.262   4.759   5.598 -2.2201 -0.3724  2.0528
17834THY      O26614   1.616   1.759   3.122 -0.2339 -0.0586  0.2489
17834THY     HO26615   1.536   1.737   3.171  0.1536 -0.0440 -1.1872
17834THY    CA126616   1.606   1.700   2.996 -0.2631 -0.2921 -0.6865
17834THY    CA226617   1.710   1.695   2.903 -0.2386  0.2988  0.4395
17834THY    CP126618   1.846   1.746   2.955  0.3460 -0.6915 -0.4089
17834THY    HP126619   1.827   1.820   3.034  2.2300 -1.1856  0.6708
17834THY    CP226620   1.922   1.830   2.847 -0.5997 -0.0705  0.1910
17834THY    HP226621   1.911   1.778   2.751  0.1248 -1.2330  2.0741
17834THY    HP326622   2.028   1.838   2.874 -0.6416  0.8767 -1.6904
17834THY    HP426623   1.872   1.926   2.829  2.9127 -1.9640  1.8616
17834THY    CP326624   1.933   1.636   3.026  0.2278  0.5107  0.4647
17834THY    HP526625   2.012   1.682   3.086  0.3725  0.8343 -0.1998
17834THY    HP626626   1.980   1.577   2.946  2.0905  1.0398  1.1661
17834THY    HP726627   1.877   1.574   3.096  1.3115 -0.2605 -1.4871
17834THY    CA326628   1.688   1.623   2.781  0.1675  0.2859 -0.5380
17834THY    HA326629   1.771   1.610   2.712 -0.9398 -1.1631 -0.1961
17834THY    CA426630   1.562   1.566   2.758 -0.0837  0.0809  0.0569
17834THY    HA426631   1.543   1.511   2.666 -0.6555 -0.8404  1.7177
17834THY    CA526632   1.452   1.590   2.840 -0.8880 -0.5125 -0.5882
17834THY    CM126633   1.324   1.542   2.809  0.2315 -0.1704 -0.7585
17834THY    HM126634   1.268   1.635   2.795  0.5685  0.2374 -0.4858
17834THY    HM226635   1.287   1.494   2.900  1.1141 -0.0326 -1.2061
17834THY    HM326636   1.318   1.479   2.719 -0.3593 -2.0483  1.8157
17834THY    CA626637   1.477   1.662   2.956  0.6297 -0.2648  1.1858
17834THY    HA626638   1.397   1.667   3.030  0.7154  0.3143 -2.9597
17835THY      O26639   6.659   8.588   5.878  0.4370 -0.1390 -0.3600
17835THY     HO26640   6.751   8.580   5.911  0.6383 -0.2486  1.1321
17835THY    CA126641   6.570   8.602   5.981 -0.1333 -0.4887  0.3670
17835THY    CA226642   6.435   8.546   5.985  0.1445 -0.7491  0.3355
17835THY    CP126643   6.374   8.490   5.861 -0.1547 -0.4816  0.4533
17835THY    HP126644   6.438   8.517   5.776  1.9094  0.0128 -2.4338
17835THY    CP226645   6.251   8.576   5.824  0.2247 -0.7056  0.0004
17835THY    HP226646   6.168   8.552   5.892  0.3739 -0.3665  0.4468
17835THY    HP326647   6.224   8.552   5.721 -1.5275 -0.3877  0.4261
17835THY    HP426648   6.283   8.680   5.830  1.2592 -0.9912 -0.2985
17835THY    CP326649   6.342   8.343   5.868 -0.2518 -0.3536 -0.0830
17835THY    HP526650   6.249   8.322   5.921  1.0381  2.3337  0.6231
17835THY    HP626651   6.434   8.302   5.912  0.5000 -1.1845  0.6506
17835THY    HP726652   6.329   8.299   5.768 -0.5427 -0.6596  0.6915
17835THY    CA326653   6.372   8.538   6.111  0.3931  0.1863  0.4706
17835THY    HA326654   6.279   8.484   6.126  1.2065  0.9179 -0.7785
17835THY    CA426655   6.442   8.585   6.226 -0.2510 -0.4912 -0.2229
17835THY    HA426656   6.423   8.545   6.325  0.9305  0.8517  2.2958
17835THY    CA526657   6.562   8.652   6.217 -0.2148  0.0723 -0.4553
17835THY    CM126658   6.623   8.712   6.340 -0.0667  0.4831  1.2243
17835THY    HM126659   6.651   8.631   6.409 -1.5585 -0.3518 -0.0703
17835THY    HM226660   6.570   8.785   6.402 -0.5269  0.4276  0.9442
17835THY    HM326661   6.715   8.765   6.313 -0.1627 -0.1781  1.0585
17835THY    CA626662   6.626   8.656   6.092  0.3628 -0.3058  0.2165
17835THY    HA626663   6.728   8.693   6.081 -0.2004 -1.6748  1.4361
17836THY      O26664   9.042   5.805   3.056 -0.0651  0.6003  0.0292
17836THY     HO26665   9.026   5.851   2.971 -0.5286 -0.1334 -1.4176
17836THY    CA126666   9.130   5.707   3.022 -1.2287 -0.9928  0.1798
17836THY    CA226667   9.168   5.606   3.111  0.5723 -0.2359 -0.3292
17836THY    CP126668   9.123   5.609   3.262 -0.0370 -0.0775  0.3600
17836THY    HP126669   9.109   5.713   3.292  1.2482  2.2147 -0.0691
17836THY    CP226670   9.224   5.564   3.358 -0.5497 -0.6537 -0.1554
17836THY    HP226671   9.217   5.615   3.455 -1.6147  0.4368 -2.2556
17836THY    HP326672   9.320   5.585   3.309  0.7100  0.7776 -2.1806
17836THY    HP426673   9.219   5.455   3.368 -0.1542  1.1086 -0.0394
17836THY    CP326674   8.991   5.526   3.289 -0.2879 -0.0738  0.0837
17836THY    HP526675   8.969   5.529   3.396  0.5247  0.1235 -0.6524
17836THY    HP626676   8.997   5.420   3.262 -3.5110  2.1538 -0.8099
17836THY    HP726677   8.916   5.577   3.228 -0.3762  2.0323  2.7295
17836THY    CA326678   9.255   5.505   3.067  0.5208 -0.3916 -0.1827
17836THY    HA326679   9.269   5.420   3.133 -1.2495  0.7466  0.3410
17836THY    CA426680   9.310   5.519   2.933 -0.4943 -0.3890  0.8670
17836THY    HA426681   9.386   5.447   2.904 -1.7213 -0.7204 -0.3479
17836THY    CA526682   9.280   5.625   2.856 -0.2379  0.3446 -0.2865
17836THY    CM126683   9.364   5.643   2.732  0.2798  0.2411  0.1858
17836THY    HM126684   9.460   5.693   2.750  2.4238 -2.8359 -2.3569
17836THY    HM226685   9.297   5.701   2.668  1.0768 -1.1583 -0.3684
17836THY    HM326686   9.387   5.544   2.691 -0.0380 -3.6936  1.5474
17836THY    CA626687   9.186   5.719   2.897  0.0590 -0.1323 -0.2712
17836THY    HA626688   9.163   5.806   2.836 -2.6966 -0.3314 -1.0577
17837THY      O26689   9.076   5.307   7.713 -0.3904  0.4862 -0.3855
17837THY     HO26690   9.173   5.316   7.705 -0.4749 -2.5709 -0.9634
17837THY    CA126691   9.050   5.192   7.659  0.4451  0.0700  0.2472
17837THY    CA226692   8.970   5.189   7.544  0.4926  0.1558  0.3149
17837THY    CP126693   8.923   5.318   7.474  0.0030  0.3406  0.0753
17837THY    HP126694   8.966   5.401   7.531 -0.6019 -0.0079  0.6252
17837THY    CP226695   8.768   5.342   7.468  0.4018 -0.0453 -0.3973
17837THY    HP226696   8.720   5.251   7.433 -1.2256 -0.9817  0.7694
17837THY    HP326697   8.740   5.433   7.414 -0.2266 -0.4820 -0.8449
17837THY    HP426698   8.735   5.340   7.573 -1.3158 -0.5741 -2.1401
17837THY    CP326699   8.991   5.341   7.338 -0.0643 -0.4559  0.2859
17837THY    HP526700   8.968   5.267   7.261  2.6255 -0.7394 -0.3433
17837THY    HP626701   9.100   5.344   7.350 -0.1857  1.1506 -0.2337
17837THY    HP726702   8.958   5.435   7.292 -2.1837 -1.3023 -0.7974
17837THY    CA326703   8.926   5.067   7.488 -0.4737 -0.1491 -0.4733
17837THY    HA326704   8.852   5.063   7.409 -1.6646  0.6791  2.4020
17837THY    CA426705   8.968   4.947   7.555  0.6998  0.0258 -0.4386
17837THY    HA426706   8.944   4.852   7.510 -0.0964  3.4140 -1.9995
17837THY    CA526707   9.061   4.958   7.664  0.9824 -0.0866  0.6211
17837THY    CM126708   9.121   4.831   7.722 -0.0563 -0.4871 -0.2625
17837THY    HM126709   9.064   4.802   7.811  1.1220  1.3781  2.7725
17837THY    HM226710   9.228   4.843   7.744 -0.2634 -0.0834  0.9267
17837THY    HM326711   9.120   4.743   7.656 -0.3396  0.1035 -0.7066
17837THY    CA626712   9.096   5.077   7.716  0.1380  0.3227 -0.2316
17837THY    HA626713   9.164   5.073   7.800  1.3919 -0.6867 -1.1290
17838THY      O26714   0.761   8.367   2.001  0.1341 -0.6216  0.5332
17838THY     HO26715   0.773   8.271   1.988 -0.9656  1.4987  0.0480
17838THY    CA126716   0.845   8.415   2.098  0.7573  0.5621  0.0312
17838THY    CA226717   0.853   8.552   2.129  0.0789  0.4240 -0.3767
17838THY    CP126718   0.772   8.651   2.050 -0.4689 -0.1161 -0.5865
17838THY    HP126719   0.693   8.598   1.996 -1.9441  0.8434  0.5515
17838THY    CP226720   0.852   8.729   1.946  0.0247  0.0044  0.6720
17838THY    HP226721   0.783   8.785   1.882  0.3190 -2.4433 -1.5724
17838THY    HP326722   0.909   8.660   1.882  1.4081  2.6202 -0.7627
17838THY    HP426723   0.928   8.797   1.988  0.0815  1.9292 -0.5035
17838THY    CP326724   0.691   8.748   2.130  0.0776  0.5425  0.3398
17838THY    HP526725   0.628   8.685   2.194  0.1405 -0.7072 -1.0593
17838THY    HP626726   0.626   8.809   2.065 -0.6363  0.6510 -0.2821
17838THY    HP726727   0.759   8.809   2.190  2.6210 -2.7840  1.0585
17838THY    CA326728   0.949   8.593   2.223  0.5871  0.1279  0.4418
17838THY    HA326729   0.962   8.701   2.233  2.4066 -3.3326  0.6865
17838THY    CA426730   1.030   8.497   2.283 -0.2689 -0.0387 -0.6084
17838THY    HA426731   1.085   8.542   2.366 -2.5898  0.5575  1.3255
17838THY    CA526732   1.020   8.362   2.251 -0.3809 -0.1471 -0.0138
17838THY    CM126733   1.101   8.264   2.328 -0.4073  0.4099  0.1685
17838THY    HM126734   1.159   8.208   2.253 -1.0356  0.3883 -0.4715
17838THY    HM226735   1.036   8.194   2.382 -1.0732  2.7371  2.4499
17838THY    HM326736   1.167   8.305   2.405  1.1216 -1.7056  1.9077
17838THY    CA626737   0.930   8.322   2.157 -0.5539  0.1269  0.1833
17838THY    HA626738   0.928   8.215   2.139  2.5503  0.0829  0.0356
17839THY      O26739   9.368   7.359   4.454  0.6057  0.3666 -0.4480
17839THY     HO26740   9.358   7.410   4.536 -2.1879  0.6427 -1.3021
17839THY    CA126741   9.239   7.325   4.418 -0.1956  0.3191 -0.4112
17839THY    CA226742   9.216   7.228   4.324 -0.7739 -0.8717  0.3154
17839THY    CP126743   9.336   7.149   4.261  0.7572  1.2528 -0.5133
17839THY    HP126744   9.430   7.188   4.300 -0.1698  1.5180  1.6044
17839THY    CP226745   9.327   7.175   4.106 -0.6668  0.2741 -0.3497
17839THY    HP226746   9.246   7.113   4.066 -0.4372 -2.7040  1.0969
17839THY    HP326747   9.425   7.147   4.063  0.2891  1.1483  1.5025
17839THY    HP426748   9.305   7.280   4.084 -2.8298  0.5862 -0.7041
17839THY    CP326749   9.325   7.004   4.296 -0.7374  0.1191  0.5342
17839THY    HP526750   9.339   7.006   4.405 -0.5510  0.0995  0.2937
17839THY    HP626751   9.418   6.966   4.251 -1.0011 -0.7166  0.8590
17839THY    HP726752   9.229   6.962   4.267 -0.5882 -0.2165  0.4194
17839THY    CA326753   9.082   7.183   4.297  0.1405  0.6052 -1.0265
17839THY    HA326754   9.060   7.109   4.221  1.2693  0.2369 -1.0011
17839THY    CA426755   8.972   7.236   4.362  0.7133 -0.6237  0.3747
17839THY    HA426756   8.872   7.201   4.338  0.9937 -0.7848 -0.3460
17839THY    CA526757   8.991   7.336   4.461 -0.7337 -0.0974 -0.9082
17839THY    CM126758   8.867   7.401   4.525  0.1765  0.2571  0.3512
17839THY    HM126759   8.889   7.422   4.630  1.8060 -0.0024  0.0346
17839THY    HM226760   8.784   7.329   4.523 -0.3222 -2.3374  0.9175
17839THY    HM326761   8.834   7.491   4.472 -0.4354  1.5704  0.9296
17839THY    CA626762   9.124   7.386   4.481 -0.6457  0.6030 -0.1870
17839THY    HA626763   9.140   7.462   4.558 -1.0525 -0.5390  1.1027
17840THY      O26764   9.077   4.954   3.407  0.3701  0.0168 -0.0766
17840THY     HO26765   9.117   4.876   3.367 -0.4523 -0.5993 -0.1837
17840THY    CA126766   9.065   4.915   3.540  1.1823  0.3403 -0.6513
17840THY    CA226767   9.041   5.010   3.653 -0.7110  0.1283 -0.2407
17840THY    CP126768   9.012   5.157   3.620 -0.7400 -0.3281 -0.1446
17840THY    HP126769   9.003   5.163   3.511  0.5136 -0.3777  1.5083
17840THY    CP226770   9.134   5.242   3.649  0.0560  0.4105  0.7693
17840THY    HP226771   9.218   5.203   3.591 -0.2304 -0.9870  2.1529
17840THY    HP326772   9.149   5.243   3.758 -0.6055  0.5131  0.4709
17840THY    HP426773   9.119   5.342   3.607 -2.4191 -0.0380  0.2738
17840THY    CP326774   8.887   5.198   3.692  0.6443 -0.2381  0.4574
17840THY    HP526775   8.908   5.227   3.796  1.6011 -0.1212 -0.6137
17840THY    HP626776   8.807   5.123   3.696  1.3769  0.5210 -0.3097
17840THY    HP726777   8.848   5.293   3.655 -0.0965  3.6429  1.8592
17840THY    CA326778   9.040   4.956   3.782 -0.0242 -0.2373  0.4003
17840THY    HA326779   9.039   5.029   3.863  1.5884 -0.3758  0.6238
17840THY    CA426780   9.047   4.815   3.805  0.7841  0.1735 -0.2079
17840THY    HA426781   9.040   4.766   3.902  0.5365  1.4590  2.2224
17840THY    CA526782   9.075   4.730   3.694  0.5193  0.2079  0.4647
17840THY    CM126783   9.089   4.572   3.714  0.8233 -0.4659 -0.2235
17840THY    HM126784   9.151   4.525   3.637  0.8788 -0.7188  0.2505
17840THY    HM226785   8.993   4.520   3.713  0.9287 -0.5675 -0.4163
17840THY    HM326786   9.147   4.563   3.807  0.8808 -0.4954 -0.1697
17840THY    CA626787   9.084   4.786   3.565  0.2021 -0.2233  0.7120
17840THY    HA626788   9.106   4.712   3.488 -1.8413  1.2539 -1.5761
17841THY      O26789   5.150   7.221   7.477  0.3146  0.5446  0.5872
17841THY     HO26790   5.089   7.223   7.553 -0.2873  0.1555 -1.1679
17841THY    CA126791   5.135   7.103   7.419  0.3450  0.3188  0.7016
17841THY    CA226792   5.182   7.079   7.288  0.4680  0.1138  0.4063
17841THY    CP126793   5.265   7.181   7.210 -0.1214 -0.2994  0.0752
17841THY    HP126794   5.317   7.252   7.276  0.7251 -1.6362  0.7538
17841THY    CP226795   5.181   7.272   7.112 -0.4933  0.5540 -0.6513
17841THY    HP226796   5.245   7.319   7.036  1.1442  2.4116  0.2773
17841THY    HP326797   5.118   7.344   7.164 -0.2314  1.6244 -1.1661
17841THY    HP426798   5.124   7.201   7.050 -0.5997  3.0546 -2.9124
17841THY    CP326799   5.375   7.104   7.150  0.3268  0.2086 -0.6229
17841THY    HP526800   5.443   7.184   7.116 -1.9653 -0.5745  1.1005
17841THY    HP626801   5.336   7.063   7.056 -0.0436  0.1283 -0.0929
17841THY    HP726802   5.424   7.031   7.216 -0.1937  0.4293 -0.7735
17841THY    CA326803   5.131   6.970   7.215  0.0649  0.6564  0.9897
17841THY    HA326804   5.163   6.947   7.114 -0.4022  0.4411  1.2795
17841THY    CA426805   5.057   6.871   7.282  0.4697 -0.9185 -0.1567
17841THY    HA426806   5.013   6.782   7.238 -0.9225 -0.3140  0.1997
17841THY    CA526807   5.022   6.886   7.416 -0.0955  0.7709 -0.0748
17841THY    CM126808   4.952   6.777   7.486  0.0373 -0.0006 -0.4253
17841THY    HM126809   5.024   6.727   7.551  1.4265 -1.0826  0.1234
17841THY    HM226810   4.911   6.701   7.419 -2.0170 -0.6437  1.1389
17841THY    HM326811   4.871   6.820   7.547  2.3020  1.4656  2.1352
17841THY    CA626812   5.046   7.008   7.476 -0.1108  0.4427 -0.2917
17841THY    HA626813   5.021   7.021   7.581 -0.7267  0.2833 -0.1237
17842THY      O26814   1.569   7.162   5.938  0.1440 -0.4006 -0.3577
17842THY     HO26815   1.544   7.087   5.882  0.4478 -1.2752  0.1858
17842THY    CA126816   1.563   7.120   6.067 -1.1683 -0.1665  0.4936
17842THY    CA226817   1.583   7.211   6.172  0.0914 -0.8383  0.0083
17842THY    CP126818   1.614   7.356   6.136  0.1615 -0.1524  0.1951
17842THY    HP126819   1.606   7.380   6.030 -0.1497 -0.0469  0.5786
17842THY    CP226820   1.760   7.403   6.175  0.6830 -0.0742  0.8020
17842THY    HP226821   1.785   7.505   6.145  0.5704  1.2887  1.2598
17842THY    HP326822   1.833   7.339   6.123  2.4767  3.1677 -0.0300
17842THY    HP426823   1.784   7.391   6.282  0.1911 -0.1085 -0.7079
17842THY    CP326824   1.510   7.454   6.204 -0.1341  1.1653 -0.1491
17842THY    HP526825   1.527   7.558   6.174  2.1061  1.2014 -0.4651
17842THY    HP626826   1.501   7.443   6.313 -0.3237  0.9783 -2.5311
17842THY    HP726827   1.409   7.433   6.167 -0.6202  0.8126  2.5573
17842THY    CA326828   1.571   7.155   6.303 -0.1450  0.1160 -0.5491
17842THY    HA326829   1.580   7.222   6.388  0.5680 -0.3694 -0.0049
17842THY    CA426830   1.527   7.027   6.323  0.3992  0.4434  0.1605
17842THY    HA426831   1.513   6.982   6.421 -1.3214 -0.5843 -1.7069
17842THY    CA526832   1.507   6.940   6.215  0.3405 -0.9390 -0.5965
17842THY    CM126833   1.452   6.801   6.241 -0.4709 -0.1805 -0.3381
17842THY    HM126834   1.383   6.806   6.326  0.2550  0.3614  1.3158
17842THY    HM226835   1.528   6.725   6.263 -1.3717  0.7875 -0.9756
17842THY    HM326836   1.383   6.771   6.162 -1.2901  0.0084  0.9690
17842THY    CA626837   1.529   6.985   6.087 -0.0689  0.2192 -0.4808
17842THY    HA626838   1.507   6.923   6.001  0.4732  1.4695 -2.4743
17843THY      O26839   1.922   7.990   5.844  0.0491 -0.1363 -0.6768
17843THY     HO26840   1.976   8.046   5.786 -0.5760 -0.4370 -0.3795
17843THY    CA126841   1.800   8.050   5.877 -0.9194  0.6042 -0.7526
17843THY    CA226842   1.704   7.984   5.961 -0.1718 -0.1113 -0.1962
17843THY    CP126843   1.732   7.851   6.023  0.3346 -0.2691  0.5620
17843THY    HP126844   1.828   7.816   5.982  0.9957  1.4813  0.2090
17843THY    CP226845   1.623   7.749   5.979  0.3533  0.3345 -0.7907
17843THY    HP226846   1.673   7.653   5.966 -0.3943 -1.6186 -0.9573
17843THY    HP326847   1.572   7.776   5.885  2.0096 -0.5447 -0.5532
17843THY    HP426848   1.541   7.748   6.051 -0.5085 -0.5775  0.7568
17843THY    CP326849   1.737   7.843   6.180 -0.0997  0.7604 -0.4654
17843THY    HP526850   1.640   7.849   6.231 -0.2438  0.5204 -0.7804
17843THY    HP626851   1.783   7.934   6.222  1.1270 -1.4920  0.0255
17843THY    HP726852   1.793   7.755   6.212 -0.1913 -0.5118 -1.0001
17843THY    CA326853   1.582   8.051   5.987  0.2063  0.0364 -0.4030
17843THY    HA326854   1.496   8.015   6.042  0.9902  1.7444  0.2102
17843THY    CA426855   1.556   8.170   5.914 -0.2789  0.0801  0.5118
17843THY    HA426856   1.464   8.223   5.935  0.5484 -0.6514  2.3120
17843THY    CA526857   1.645   8.225   5.820  0.5136  0.1175 -0.8018
17843THY    CM126858   1.621   8.351   5.735  0.5062  0.6437  0.3967
17843THY    HM126859   1.693   8.352   5.652 -0.9350 -0.7069 -1.4460
17843THY    HM226860   1.625   8.448   5.786  1.1540 -1.0119  1.2783
17843THY    HM326861   1.520   8.348   5.691 -0.1453  1.8328  2.5437
17843THY    CA626862   1.774   8.167   5.810  0.8283 -0.1166 -0.4867
17843THY    HA626863   1.841   8.205   5.733 -0.6909  0.3010  3.4189
17844THY      O26864   6.451   1.935   6.746  0.1234  0.2598 -0.3153
17844THY     HO26865   6.505   2.007   6.782  0.4393 -0.7958 -0.0135
17844THY    CA126866   6.524   1.832   6.700  0.6134  0.0358  0.0134
17844THY    CA226867   6.470   1.702   6.701  0.7727  0.4264 -0.1944
17844THY    CP126868   6.337   1.663   6.767  0.4894 -0.3870  0.3178
17844THY    HP126869   6.280   1.750   6.801  0.1608 -1.2502  0.4515
17844THY    CP226870   6.364   1.571   6.883  0.4172  0.4831  0.2980
17844THY    HP226871   6.278   1.552   6.949 -0.2658 -0.9367 -1.8666
17844THY    HP326872   6.447   1.621   6.935 -0.7397  1.5619  1.1440
17844THY    HP426873   6.405   1.475   6.849 -1.3480  0.1690 -0.3747
17844THY    CP326874   6.241   1.597   6.663 -0.3069 -0.7989 -1.3451
17844THY    HP526875   6.162   1.559   6.728  0.5619  0.0149 -1.8163
17844THY    HP626876   6.286   1.512   6.610 -0.9345 -2.4955 -0.6549
17844THY    HP726877   6.214   1.676   6.593  0.0478 -0.4521 -0.9096
17844THY    CA326878   6.545   1.593   6.640 -0.0031 -0.5696  0.1008
17844THY    HA326879   6.512   1.490   6.650 -1.0435  1.6360  0.5837
17844THY    CA426880   6.677   1.622   6.586  0.1658  0.4956 -0.2568
17844THY    HA426881   6.748   1.546   6.552 -0.3786  0.7748 -0.9045
17844THY    CA526882   6.717   1.756   6.574 -0.3004 -0.5043 -0.3934
17844THY    CM126883   6.834   1.791   6.494  0.2554 -0.2903 -0.3309
17844THY    HM126884   6.836   1.730   6.404 -1.4477 -1.7337  1.5905
17844THY    HM226885   6.927   1.776   6.551  0.1840 -0.2878 -0.7867
17844THY    HM326886   6.829   1.898   6.471 -0.9603  0.7452 -0.1332
17844THY    CA626887   6.644   1.858   6.633 -0.1919 -0.0484  0.7048
17844THY    HA626888   6.685   1.959   6.630 -0.7513 -0.5739  0.9214
17845THY      O26889   6.617   7.944   4.257  0.6837  0.6755  0.1793
17845THY     HO26890   6.545   7.934   4.192  0.5736  0.9360 -0.8127
17845THY    CA126891   6.548   8.013   4.357  0.0057  0.5464  0.2203
17845THY    CA226892   6.579   7.990   4.496 -0.1474 -0.0742 -0.6384
17845THY    CP126893   6.696   7.893   4.531 -0.2567 -0.1230 -0.0262
17845THY    HP126894   6.717   7.833   4.441 -0.6688 -1.9124  2.3302
17845THY    CP226895   6.687   7.782   4.645 -0.2798 -0.2879 -0.4134
17845THY    HP226896   6.663   7.821   4.745 -0.0775  0.1168 -1.3005
17845THY    HP326897   6.784   7.731   4.654 -1.2049 -2.7221 -2.7810
17845THY    HP426898   6.614   7.703   4.630  0.0774  1.5904 -1.1477
17845THY    CP326899   6.817   7.981   4.548 -0.5561 -0.0657 -0.6144
17845THY    HP526900   6.897   7.914   4.581  0.0154 -0.9991 -0.4075
17845THY    HP626901   6.802   8.059   4.624  0.0310 -1.1051  0.5323
17845THY    HP726902   6.848   8.031   4.456 -0.4524  0.6510  0.6806
17845THY    CA326903   6.510   8.067   4.596  0.7074 -0.7224  0.2903
17845THY    HA326904   6.534   8.053   4.701 -1.2401 -0.0395  1.6185
17845THY    CA426905   6.403   8.150   4.554  0.7917  0.6144  0.0676
17845THY    HA426906   6.332   8.177   4.633  1.5839  0.9069  1.4269
17845THY    CA526907   6.368   8.156   4.415  0.7887  0.0706 -0.0352
17845THY    CM126908   6.261   8.250   4.373 -0.7023  0.9665  0.7525
17845THY    HM126909   6.182   8.193   4.323  0.1877  0.0216  0.2993
17845THY    HM226910   6.300   8.334   4.314 -0.2215  2.1992  1.4163
17845THY    HM326911   6.219   8.302   4.459 -3.2331  1.6627 -2.2050
17845THY    CA626912   6.440   8.088   4.315 -0.4050 -0.4004  0.8322
17845THY    HA626913   6.422   8.093   4.208  0.6801 -0.6679 -0.4484
17846THY      O26914   6.645   6.514   4.390  0.7136  0.4647  0.1177
17846THY     HO26915   6.571   6.482   4.336  0.3542 -0.3921  2.2556
17846THY    CA126916   6.576   6.577   4.489  0.7271  0.0786  0.9143
17846THY    CA226917   6.605   6.696   4.553  0.5830  0.1822  0.2532
17846THY    CP126918   6.741   6.775   4.525 -0.5436 -0.6207  0.0017
17846THY    HP126919   6.773   6.735   4.428 -0.5318 -0.7661  0.3584
17846THY    CP226920   6.836   6.740   4.641 -0.0172  0.3986 -0.6988
17846THY    HP226921   6.930   6.796   4.639  0.0972 -2.6933 -0.8170
17846THY    HP326922   6.868   6.636   4.628  3.6701  1.7230  0.1276
17846THY    HP426923   6.773   6.757   4.729 -0.1779 -0.2249  2.5138
17846THY    CP326924   6.734   6.926   4.515  0.0061 -0.2853 -0.4789
17846THY    HP526925   6.669   6.974   4.590 -0.2626  0.1184 -1.4509
17846THY    HP626926   6.710   6.950   4.411 -0.4432  0.1199  0.9711
17846THY    HP726927   6.835   6.968   4.525 -1.3142 -0.5592  3.1257
17846THY    CA326928   6.509   6.755   4.642 -0.6734  0.7431 -0.4482
17846THY    HA326929   6.515   6.855   4.683 -1.3827  0.8718 -0.4510
17846THY    CA426930   6.383   6.696   4.650  0.2819 -0.3671 -0.5074
17846THY    HA426931   6.308   6.754   4.703 -1.4538 -2.4713 -0.6789
17846THY    CA526932   6.347   6.578   4.584 -1.5572 -0.0215 -0.8126
17846THY    CM126933   6.204   6.533   4.592 -0.4704 -0.3434 -0.3192
17846THY    HM126934   6.138   6.613   4.628  2.2654 -0.2546  2.0718
17846THY    HM226935   6.199   6.441   4.651 -1.8351 -0.2579 -0.2201
17846THY    HM326936   6.165   6.502   4.494  0.4557 -0.7135 -0.3402
17846THY    CA626937   6.447   6.520   4.503 -0.1973 -0.4141  0.4582
17846THY    HA626938   6.428   6.435   4.438 -1.4481 -2.4061  2.1687
17847THY      O26939   3.725   9.102   3.982  0.1113  0.3038  0.6773
17847THY     HO26940   3.809   9.147   3.959  0.5447  0.3719 -0.0732
17847THY    CA126941   3.640   9.129   3.883 -0.1702  0.3067 -0.4019
17847THY    CA226942   3.512   9.079   3.879 -0.6194 -0.1887 -0.1511
17847THY    CP126943   3.463   8.986   3.997  0.1244  0.7020 -0.2481
17847THY    HP126944   3.537   8.983   4.078 -0.1400  0.9596  0.0096
17847THY    CP226945   3.427   8.840   3.960 -0.4635  0.0935  0.8947
17847THY    HP226946   3.362   8.831   3.872  0.1834 -0.3596  0.6038
17847THY    HP326947   3.385   8.783   4.044  1.1164  1.3331  1.5048
17847THY    HP426948   3.522   8.790   3.939 -0.0534 -0.2498  1.8077
17847THY    CP326949   3.341   9.062   4.050 -1.1641 -0.2548  0.0118
17847THY    HP526950   3.343   9.031   4.155  2.4334 -0.0558  0.4744
17847THY    HP626951   3.242   9.036   4.011 -0.6266 -1.5357 -0.1505
17847THY    HP726952   3.359   9.170   4.041 -1.3682 -1.3074 -0.0352
17847THY    CA326953   3.427   9.111   3.774  0.2110  0.7553  0.1136
17847THY    HA326954   3.326   9.071   3.766  0.2882 -1.6638  0.2563
17847THY    CA426955   3.478   9.197   3.676 -0.3743 -0.1383  0.8336
17847THY    HA426956   3.414   9.243   3.602 -0.4368 -0.0618  0.8686
17847THY    CA526957   3.609   9.248   3.682 -0.3187  0.1272 -0.1805
17847THY    CM126958   3.659   9.336   3.576 -0.5744  0.0174  0.0244
17847THY    HM126959   3.766   9.355   3.584 -0.5680  0.2612 -0.1096
17847THY    HM226960   3.597   9.426   3.573  0.7240  1.3134  1.0042
17847THY    HM326961   3.652   9.282   3.480  1.7839  1.5502 -3.3721
17847THY    CA626962   3.690   9.211   3.780 -0.2917  0.0647  0.0957
17847THY    HA626963   3.792   9.245   3.796 -0.2528  4.2210 -1.3328
17848THY      O26964   2.128   1.858   5.629  0.0657 -0.0256  0.1265
17848THY     HO26965   2.071   1.797   5.579 -1.2569  0.8979  0.5489
17848THY    CA126966   2.045   1.931   5.707  0.0259 -0.5768  0.4602
17848THY    CA226967   2.094   2.050   5.773 -0.3107  0.3401 -0.2107
17848THY    CP126968   2.240   2.082   5.749  0.1513 -0.2289 -0.3568
17848THY    HP126969   2.282   2.030   5.662  1.2260 -0.4811  0.8633
17848THY    CP226970   2.328   2.050   5.869  0.4058  0.4103  0.0876
17848THY    HP226971   2.298   2.092   5.966  2.0236  0.0668  2.1536
17848THY    HP326972   2.431   2.078   5.845 -0.1243  0.6559  2.4512
17848THY    HP426973   2.327   1.940   5.873 -0.2969 -0.3858  0.0545
17848THY    CP326974   2.267   2.223   5.694  0.8150 -1.3907 -0.1791
17848THY    HP526975   2.197   2.249   5.614  2.0656 -2.2183  0.6945
17848THY    HP626976   2.369   2.235   5.656  0.9151 -0.6221  1.8171
17848THY    HP726977   2.242   2.297   5.771  0.4533 -1.4843 -0.1998
17848THY    CA326978   2.014   2.118   5.863 -0.3277 -0.0999  0.7612
17848THY    HA326979   2.059   2.192   5.929 -0.5924  1.0141 -0.0319
17848THY    CA426980   1.880   2.070   5.878  0.6931 -0.2086  0.5263
17848THY    HA426981   1.815   2.126   5.945 -1.2500 -0.9864 -0.6920
17848THY    CA526982   1.836   1.954   5.813 -0.1291  0.5159  0.2134
17848THY    CM126983   1.700   1.902   5.834  0.1127  0.2976  0.2433
17848THY    HM126984   1.626   1.979   5.862  0.4332 -2.4723  1.6669
17848THY    HM226985   1.703   1.830   5.917  3.5492 -2.0182 -2.5743
17848THY    HM326986   1.668   1.857   5.740  0.5140  1.0528 -1.7036
17848THY    CA626987   1.917   1.875   5.734  0.0937  0.6373 -0.1834
17848THY    HA626988   1.887   1.780   5.692  1.4656 -1.8123  0.3973
17849THY      O26989   8.914   8.569   6.850 -0.1902 -0.9414 -0.3793
17849THY     HO26990   8.861   8.592   6.772 -0.1871 -0.6114  0.8319
17849THY    CA126991   9.045   8.548   6.814  0.0816 -0.3218 -0.4277
17849THY    CA226992   9.141   8.510   6.911 -0.5643 -0.2021  0.2703
17849THY    CP126993   9.089   8.466   7.052  0.2836  0.2366 -0.6861
17849THY    HP126994   9.018   8.536   7.097  1.7596  1.0047  0.3736
17849THY    CP226995   9.201   8.467   7.157  0.6801  0.5115  0.0400
17849THY    HP226996   9.166   8.420   7.250  1.7654  0.9267  0.0264
17849THY    HP326997   9.235   8.570   7.174  0.1901 -1.8551  0.6544
17849THY    HP426998   9.288   8.411   7.121 -1.9458  0.0544 -4.1661
17849THY    CP326999   9.042   8.318   7.025  0.4662 -0.1212  0.4992
17849THY    HP527000   9.117   8.271   6.962  1.6753  0.7194  1.2369
17849THY    HP627001   8.954   8.320   6.959 -0.0745  0.3192 -3.0058
17849THY    HP727002   9.025   8.255   7.113  2.1638 -1.4991 -2.0143
17849THY    CA327003   9.275   8.497   6.866  0.0839 -0.2397  1.2054
17849THY    HA327004   9.354   8.457   6.929 -2.7015  2.1272 -1.0102
17849THY    CA427005   9.301   8.514   6.731  0.2990  0.3033  0.9986
17849THY    HA427006   9.397   8.475   6.699 -1.1520  0.7679 -3.5615
17849THY    CA527007   9.204   8.551   6.639  0.3845 -0.0995  0.4139
17849THY    CM127008   9.243   8.562   6.497 -1.0354 -0.5052 -0.4347
17849THY    HM127009   9.317   8.495   6.451 -0.6405 -1.3041  0.5113
17849THY    HM227010   9.256   8.667   6.467  0.9827 -0.8108 -0.7275
17849THY    HM327011   9.151   8.540   6.441 -2.3779 -0.4546  4.0125
17849THY    CA627012   9.074   8.568   6.681  0.6291 -0.3583 -0.4968
17849THY    HA627013   8.992   8.600   6.616 -0.4380  1.6966  1.2155
17850THY      O27014   3.154   2.969   3.601  0.0270  0.0400  0.6713
17850THY     HO27015   3.246   2.991   3.626 -0.5285  1.0114  2.0475
17850THY    CA127016   3.097   2.970   3.721  0.4347  0.1877  0.0475
17850THY    CA227017   2.982   2.895   3.748 -0.2571  0.0496 -0.2506
17850THY    CP127018   2.927   2.796   3.642  0.0808  0.1774  0.2151
17850THY    HP127019   2.991   2.796   3.553 -0.5126 -0.2742  1.6836
17850THY    CP227020   2.788   2.831   3.597  0.3463 -0.2106 -1.0769
17850THY    HP227021   2.724   2.783   3.672  1.3914  1.1272 -0.4401
17850THY    HP327022   2.762   2.788   3.499  1.6035 -0.0395 -2.3001
17850THY    HP427023   2.784   2.941   3.595  2.9674  0.2321 -0.9121
17850THY    CP327024   2.922   2.649   3.695 -0.1013  0.3319  0.0948
17850THY    HP527025   3.020   2.633   3.740 -1.0561  2.7937  0.6817
17850THY    HP627026   2.893   2.582   3.613 -1.2257  2.1994 -1.8181
17850THY    HP727027   2.840   2.649   3.768 -0.9954 -0.6311  0.7161
17850THY    CA327028   2.911   2.923   3.872  0.4584  0.3176  0.1235
17850THY    HA327029   2.810   2.886   3.884 -0.2835 -1.5673  1.3628
17850THY    CA427030   2.959   3.023   3.961  0.5880  0.3620 -0.1534
17850THY    HA427031   2.910   3.060   4.051  1.1703  0.9732 -0.8274
17850THY    CA527032   3.080   3.093   3.936  0.4056  1.2749  0.1578
17850THY    CM127033   3.142   3.195   4.027 -0.1336  0.7007 -0.5460
17850THY    HM127034   3.146   3.164   4.132  2.3951  1.2179  1.2849
17850THY    HM227035   3.086   3.288   4.013 -0.8379  1.3028 -0.8670
17850THY    HM327036   3.247   3.216   4.006 -0.6602 -2.4568 -0.5843
17850THY    CA627037   3.144   3.071   3.806  0.0586 -0.6446  0.7556
17850THY    HA627038   3.227   3.135   3.778 -0.6235 -0.8537  1.5698
17851THY      O27039   5.276   6.338   3.071 -0.1012 -0.2323 -0.4726
17851THY     HO27040   5.308   6.327   2.980  0.5939 -0.0040 -0.3802
17851THY    CA127041   5.142   6.349   3.080 -0.6289  0.2484 -0.3948
17851THY    CA227042   5.087   6.376   3.207 -0.3864  1.0349 -0.4630
17851THY    CP127043   5.182   6.373   3.326 -0.0321 -0.1471 -0.5530
17851THY    HP127044   5.284   6.341   3.300  0.0945 -0.2898 -0.0391
17851THY    CP227045   5.142   6.270   3.439  0.0018  0.8718  0.3650
17851THY    HP227046   5.056   6.302   3.498  0.0344  0.0241  2.0946
17851THY    HP327047   5.222   6.242   3.508  1.2895  0.0671  1.9269
17851THY    HP427048   5.113   6.172   3.399  0.5260  1.9929 -0.2680
17851THY    CP327049   5.190   6.515   3.396 -1.2056 -0.5243  0.8579
17851THY    HP527050   5.218   6.589   3.320 -1.4077  1.9119  3.6170
17851THY    HP627051   5.257   6.506   3.482  1.2368 -2.4981 -1.4212
17851THY    HP727052   5.094   6.532   3.446 -0.6972  1.0358 -0.5720
17851THY    CA327053   4.948   6.394   3.212  0.5085 -0.1632  0.1688
17851THY    HA327054   4.904   6.398   3.312  0.2806 -0.3241  2.5429
17851THY    CA427055   4.874   6.405   3.097 -0.3693  1.0487 -0.5467
17851THY    HA427056   4.769   6.433   3.105 -0.4249 -0.9511 -0.0199
17851THY    CA527057   4.928   6.387   2.965 -0.6214 -0.0100 -0.2089
17851THY    CM127058   4.841   6.389   2.850 -0.4446  0.3311 -0.6130
17851THY    HM127059   4.859   6.301   2.788 -2.5348 -0.3409 -0.6215
17851THY    HM227060   4.863   6.477   2.790 -3.0417 -1.2435 -0.9290
17851THY    HM327061   4.736   6.365   2.874 -0.5257 -0.9354 -1.6290
17851THY    CA627062   5.068   6.344   2.961 -0.0611  0.0354  0.5067
17851THY    HA627063   5.111   6.316   2.865  1.5872  1.1631 -1.0208
17852THY      O27064   5.582   3.259   3.892  0.5904 -0.3423 -0.3777
17852THY     HO27065   5.601   3.326   3.960  2.4669 -0.7943 -0.4068
17852THY    CA127066   5.612   3.302   3.771 -0.0318  1.1738  0.4214
17852THY    CA227067   5.563   3.236   3.651 -0.7233  0.0309 -0.4922
17852THY    CP127068   5.463   3.118   3.655  0.3679 -0.7860 -0.4897
17852THY    HP127069   5.482   3.064   3.749 -2.5784  1.1503  1.5230
17852THY    CP227070   5.486   3.019   3.546 -0.5439 -0.0537  0.0774
17852THY    HP227071   5.421   2.934   3.569 -0.5078  2.4955  0.6574
17852THY    HP327072   5.592   2.991   3.541 -0.7640 -1.2168 -0.6102
17852THY    HP427073   5.462   3.053   3.444  1.0772 -0.6303 -0.4391
17852THY    CP327074   5.319   3.176   3.655  0.8880  0.0434 -0.0647
17852THY    HP527075   5.315   3.238   3.564  3.6125 -1.4751 -1.9202
17852THY    HP627076   5.288   3.234   3.742 -0.7185  0.7863 -1.9157
17852THY    HP727077   5.244   3.096   3.654  2.3413  1.9611 -1.5429
17852THY    CA327078   5.602   3.282   3.527  0.2767  0.4689  0.1378
17852THY    HA327079   5.579   3.228   3.435  2.3706 -1.1774  1.8414
17852THY    CA427080   5.691   3.398   3.514 -0.0774  0.6789  0.4512
17852THY    HA427081   5.724   3.423   3.413 -2.8610 -0.4474  0.0062
17852THY    CA527082   5.733   3.461   3.632  0.4580 -0.3700  0.3376
17852THY    CM127083   5.820   3.578   3.626  0.4970 -0.0628 -0.5358
17852THY    HM127084   5.924   3.562   3.596  1.7725  3.5188  0.2104
17852THY    HM227085   5.822   3.637   3.718 -2.4548  1.4787 -2.5859
17852THY    HM327086   5.780   3.647   3.550 -0.3855  0.1278 -0.8249
17852THY    CA627087   5.695   3.418   3.761  0.2530 -0.2660  0.1111
17852THY    HA627088   5.729   3.472   3.849 -1.5728  0.6792 -0.1893
17853THY      O27089   4.016   6.530   6.725  0.0423  0.2643  0.6732
17853THY     HO27090   4.069   6.471   6.669 -0.0669  1.1146 -0.2665
17853THY    CA127091   3.937   6.598   6.643  0.1905  0.3623 -0.5908
17853THY    CA227092   3.828   6.673   6.700 -0.3153 -0.4393 -0.7519
17853THY    CP127093   3.803   6.684   6.858 -0.5764  0.0066 -0.1283
17853THY    HP127094   3.896   6.661   6.912 -1.8832  2.7395  0.6782
17853THY    CP227095   3.690   6.597   6.908  0.0247 -0.3262  0.5058
17853THY    HP227096   3.713   6.492   6.886 -0.1675  2.7239 -0.2961
17853THY    HP327097   3.600   6.625   6.853 -0.1660 -1.4824 -2.0946
17853THY    HP427098   3.676   6.604   7.017  3.0956  0.1320  0.6944
17853THY    CP327099   3.779   6.829   6.911 -0.7818  0.4948 -0.9164
17853THY    HP527100   3.877   6.877   6.920 -1.5307 -1.0646  1.0763
17853THY    HP627101   3.737   6.850   7.010 -0.4721 -0.1748  4.2128
17853THY    HP727102   3.731   6.902   6.844  0.3332 -0.1413 -0.7561
17853THY    CA327103   3.740   6.734   6.610  0.4180  0.5076 -0.2511
17853THY    HA327104   3.661   6.798   6.647  2.8164  1.0128  2.6378
17853THY    CA427105   3.750   6.711   6.472  0.1123  0.1383  0.1733
17853THY    HA427106   3.684   6.753   6.397  0.8752 -0.9123 -0.4423
17853THY    CA527107   3.867   6.643   6.419  0.2543  0.5195 -0.5589
17853THY    CM127108   3.892   6.616   6.280 -0.5065  0.2436 -0.0644
17853THY    HM127109   3.801   6.580   6.233 -0.3449 -1.1684  1.2615
17853THY    HM227110   3.974   6.543   6.274 -0.9691  1.5146 -0.7040
17853THY    HM327111   3.910   6.709   6.224 -0.6296 -0.3051 -0.3722
17853THY    CA627112   3.946   6.587   6.509 -0.0487 -0.4612  0.3355
17853THY    HA627113   4.042   6.549   6.473 -0.4627 -0.2615 -0.9523
17854THY      O27114   2.937   6.471   2.345 -1.0555 -0.0188 -0.2099
17854THY     HO27115   2.975   6.532   2.410 -1.2758 -0.3473  0.2854
17854THY    CA127116   2.802   6.465   2.353  0.1494 -0.2125  0.2211
17854THY    CA227117   2.728   6.416   2.240  0.5542  0.4828 -0.1203
17854THY    CP127118   2.784   6.381   2.102  0.2944 -0.4617  0.1543
17854THY    HP127119   2.893   6.390   2.104  0.4308  0.3755 -1.2141
17854THY    CP227120   2.725   6.483   2.001  0.4456 -0.0594 -0.4041
17854THY    HP227121   2.710   6.584   2.042  0.8065  2.0141 -1.1504
17854THY    HP327122   2.623   6.453   1.978 -1.8062  3.2677  3.6259
17854THY    HP427123   2.797   6.504   1.920  0.1413 -0.1556  0.2799
17854THY    CP327124   2.757   6.233   2.054 -0.3573 -0.0174 -0.3106
17854THY    HP527125   2.664   6.232   1.997 -0.6729  0.4378  0.9489
17854THY    HP627126   2.744   6.172   2.144  1.7637  0.4180 -0.2178
17854THY    HP727127   2.843   6.193   1.998 -0.5902 -0.0110 -0.8197
17854THY    CA327128   2.590   6.409   2.260 -0.3776  0.4583  0.0046
17854THY    HA327129   2.521   6.381   2.180 -2.5699  2.2127  0.0795
17854THY    CA427130   2.534   6.439   2.384  0.3229  0.2145 -0.5268
17854THY    HA427131   2.427   6.427   2.399  0.6777  3.2862 -0.5740
17854THY    CA527132   2.611   6.481   2.491 -0.2315  0.4422 -0.0612
17854THY    CM127133   2.548   6.519   2.620 -0.4755  0.6705 -0.4928
17854THY    HM127134   2.449   6.476   2.636 -0.5965  0.5312 -0.2690
17854THY    HM227135   2.533   6.628   2.619  0.8568 -1.2066 -0.2745
17854THY    HM327136   2.613   6.493   2.704 -0.5843  1.9080  2.7888
17854THY    CA627137   2.750   6.494   2.475  0.0824 -0.5448  0.5861
17854THY    HA627138   2.805   6.551   2.549  0.8905  1.2368 -2.2961
17855THY      O27139   3.992   6.235   3.104 -0.2445 -0.0461 -0.3657
17855THY     HO27140   4.073   6.212   3.152  0.0900 -1.2515 -1.8027
17855THY    CA127141   3.993   6.167   2.988 -0.1484  0.1201  1.2670
17855THY    CA227142   3.938   6.216   2.868  0.5423 -0.0841  0.3452
17855THY    CP127143   3.837   6.336   2.872 -1.1584  0.3853  0.4756
17855THY    HP127144   3.821   6.371   2.974 -0.4381  0.3817  0.8244
17855THY    CP227145   3.703   6.291   2.815 -0.0125 -0.8904 -0.4217
17855THY    HP227146   3.631   6.372   2.828  0.0861  1.7563 -0.6611
17855THY    HP327147   3.657   6.221   2.885 -0.6403 -1.2272 -0.3494
17855THY    HP427148   3.716   6.257   2.712  1.2368 -0.9537  0.1904
17855THY    CP327149   3.902   6.460   2.813  0.2284  0.1393  0.3192
17855THY    HP527150   3.979   6.501   2.878 -0.7942  1.6712 -0.1192
17855THY    HP627151   3.827   6.539   2.798  0.3087 -2.3084  0.0371
17855THY    HP727152   3.931   6.447   2.708  1.8339  0.2901  2.2351
17855THY    CA327153   3.958   6.151   2.751 -0.1127 -0.3417 -0.1326
17855THY    HA327154   3.930   6.204   2.660  1.8742  0.5076  2.5990
17855THY    CA427155   4.024   6.024   2.758 -0.3524 -0.4477  1.0929
17855THY    HA427156   4.040   5.970   2.665  1.9048  1.2003 -1.2629
17855THY    CA527157   4.074   5.973   2.881 -0.3318  0.8361 -0.0809
17855THY    CM127158   4.135   5.842   2.887  0.1629 -0.1837 -0.1540
17855THY    HM127159   4.238   5.850   2.852 -0.1451 -1.1573 -0.2528
17855THY    HM227160   4.085   5.776   2.815  1.6955 -1.2870 -0.1672
17855THY    HM327161   4.119   5.801   2.987 -2.1453 -0.9816 -1.3618
17855THY    CA627162   4.059   6.047   2.994 -0.7073  0.2646 -0.1392
17855THY    HA627163   4.081   6.007   3.093 -0.2435  0.1409 -0.2013
17856THY      O27164   2.875   1.983   4.578 -0.2862 -0.3204  0.2200
17856THY     HO27165   2.952   1.955   4.630 -0.4019 -0.2794 -0.0218
17856THY    CA127166   2.842   1.898   4.483  0.6838 -0.3184 -0.1128
17856THY    CA227167   2.721   1.916   4.405 -0.8028  1.2641 -0.1180
17856THY    CP127168   2.616   2.021   4.446 -0.9462 -0.4032 -0.3952
17856THY    HP127169   2.668   2.083   4.521  1.8880 -0.5445 -2.4412
17856THY    CP227170   2.501   1.954   4.525  0.1015 -0.5423 -0.1552
17856THY    HP227171   2.418   2.021   4.551 -0.0036  3.1085 -1.4805
17856THY    HP327172   2.543   1.904   4.613 -0.9268  0.7700  1.1941
17856THY    HP427173   2.454   1.874   4.466  1.0353 -1.0380 -0.3487
17856THY    CP327174   2.567   2.112   4.333  0.2557  0.6621 -0.2832
17856THY    HP527175   2.496   2.181   4.379  1.3601  0.7927  0.7969
17856THY    HP627176   2.521   2.043   4.262  0.0907  0.2081  0.2856
17856THY    HP727177   2.647   2.170   4.285 -0.5107 -1.6113 -1.0115
17856THY    CA327178   2.699   1.819   4.300 -0.1044  0.3476  0.3079
17856THY    HA327179   2.606   1.823   4.243 -0.7181  1.1587 -1.4533
17856THY    CA427180   2.786   1.722   4.271  0.1416 -0.2448  0.0076
17856THY    HA427181   2.746   1.660   4.192 -1.5891 -0.7192  1.6215
17856THY    CA527182   2.896   1.702   4.350 -0.3734  0.0106  0.1797
17856THY    CM127183   2.994   1.598   4.327 -0.1277 -0.1107  0.4144
17856THY    HM127184   3.020   1.549   4.421 -1.0668  0.5975  1.2308
17856THY    HM227185   3.077   1.644   4.272 -1.1057 -0.1837  2.1912
17856THY    HM327186   2.961   1.532   4.246  1.9346 -2.0635  1.6251
17856THY    CA627187   2.928   1.789   4.455  0.2562  0.3816  0.9692
17856THY    HA627188   3.008   1.767   4.525  0.4306 -0.4481 -1.3990
17857THY      O27189   9.473   3.113   5.175  0.0445 -0.4385  0.3575
17857THY     HO27190   9.497   3.194   5.126  1.2159  0.6720  0.7172
17857THY    CA127191   9.366   3.055   5.116 -0.0810  0.1943 -0.0903
17857THY    CA227192   9.286   2.966   5.182  0.1260  0.3108 -1.0169
17857THY    CP127193   9.303   2.930   5.326  0.0500 -0.0800 -0.2592
17857THY    HP127194   9.394   2.970   5.371 -0.6615  0.3644  0.9221
17857THY    CP227195   9.311   2.785   5.357  0.9160  0.3312  0.0907
17857THY    HP227196   9.317   2.753   5.462 -0.3225  0.2232 -0.5887
17857THY    HP327197   9.390   2.732   5.303 -1.1476  0.0113 -2.9190
17857THY    HP427198   9.216   2.742   5.322  0.5428  1.2879  0.0992
17857THY    CP327199   9.188   2.987   5.401 -0.6118 -0.6962 -0.1329
17857THY    HP527200   9.173   3.094   5.384 -0.1980 -0.3419 -0.0166
17857THY    HP627201   9.221   2.992   5.506 -0.2094 -0.8018 -0.4447
17857THY    HP727202   9.094   2.931   5.402  0.1673  0.0958 -1.4724
17857THY    CA327203   9.171   2.907   5.116  0.0402  0.1853 -0.1471
17857THY    HA327204   9.105   2.840   5.171 -0.2524 -0.2612 -0.2340
17857THY    CA427205   9.139   2.946   4.987 -1.0569 -0.2541 -0.8354
17857THY    HA427206   9.056   2.903   4.930 -0.2332 -0.5998 -2.0438
17857THY    CA527207   9.220   3.039   4.918  0.8114  0.2359  0.1079
17857THY    CM127208   9.190   3.076   4.774 -0.1046 -0.3195 -0.1742
17857THY    HM127209   9.279   3.095   4.714 -0.1980 -0.9615 -1.6639
17857THY    HM227210   9.123   3.163   4.769  0.4834 -0.7572  0.2633
17857THY    HM327211   9.127   2.997   4.730  1.3771 -1.9649 -0.4982
17857THY    CA627212   9.335   3.091   4.979  0.4295  0.9048 -0.5856
17857THY    HA627213   9.392   3.168   4.928 -3.7556 -0.7611  1.7451
17858THY      O27214   8.246   2.123   6.534 -0.5697  0.4780  0.0256
17858THY     HO27215   8.306   2.110   6.609 -1.7264  1.8189  1.8779
17858THY    CA127216   8.314   2.206   6.456 -0.6271  0.2754 -0.1858
17858THY    CA227217   8.269   2.243   6.326 -0.2627 -0.0047  0.1969
17858THY    CP127218   8.139   2.187   6.269  0.3235  0.1406 -0.1721
17858THY    HP127219   8.134   2.079   6.287 -0.1814 -1.2138 -0.3923
17858THY    CP227220   8.118   2.215   6.118 -0.2712  0.2405 -0.5856
17858THY    HP227221   8.211   2.196   6.064  1.4106  1.9972  2.0755
17858THY    HP327222   8.089   2.319   6.098  0.6203  2.1137  0.0618
17858THY    HP427223   8.036   2.153   6.079  0.9797 -4.0962  0.1609
17858THY    CP327224   8.027   2.262   6.339 -0.0712 -0.3975  0.0647
17858THY    HP527225   8.039   2.366   6.307 -1.1837 -2.3406 -0.3379
17858THY    HP627226   8.041   2.250   6.447  0.8769 -0.4641  0.4959
17858THY    HP727227   7.928   2.229   6.304 -0.6410  0.4374  0.8518
17858THY    CA327228   8.355   2.331   6.257 -0.6363 -0.7235 -0.1952
17858THY    HA327229   8.328   2.379   6.163  0.0344  0.5237  2.8191
17858THY    CA427230   8.480   2.373   6.305 -0.7433 -0.1540 -0.1173
17858THY    HA427231   8.547   2.433   6.244 -1.5545 -0.8584  0.1071
17858THY    CA527232   8.507   2.337   6.442  0.9811  0.1579 -0.1297
17858THY    CM127233   8.639   2.369   6.504 -1.0975 -0.7075  0.3924
17858THY    HM127234   8.679   2.470   6.491  0.5498  0.5945 -0.0303
17858THY    HM227235   8.710   2.297   6.461  0.1077 -0.1764  1.2382
17858THY    HM327236   8.653   2.357   6.612 -0.8151 -0.4139  2.8102
17858THY    CA627237   8.427   2.261   6.518 -0.3908  0.3060  0.5062
17858THY    HA627238   8.456   2.242   6.621  2.2996 -0.4352  0.2846
17859THY      O27239   7.587   5.214   6.981  0.6600 -0.1729  0.2640
17859THY     HO27240   7.589   5.307   7.008 -1.1122 -0.1311  0.3135
17859THY    CA127241   7.618   5.132   7.082  0.4717  0.1489  0.3163
17859THY    CA227242   7.605   5.172   7.215 -0.4963  0.1946  0.2703
17859THY    CP127243   7.554   5.306   7.264 -0.5191 -0.4771  0.4017
17859THY    HP127244   7.565   5.380   7.184  0.1301 -1.2519 -0.5092
17859THY    CP227245   7.626   5.371   7.386 -0.2345  0.4605  0.4287
17859THY    HP227246   7.606   5.478   7.379  0.0532  1.6944  0.5843
17859THY    HP327247   7.735   5.357   7.379  0.1157 -0.7446  3.1821
17859THY    HP427248   7.594   5.317   7.476  1.2605  0.2701 -0.8520
17859THY    CP327249   7.404   5.299   7.315 -0.1662  1.0003  0.1659
17859THY    HP527250   7.362   5.400   7.324 -1.0486  2.8111 -0.3112
17859THY    HP627251   7.394   5.251   7.413 -1.1779 -0.4037 -2.7053
17859THY    HP727252   7.340   5.244   7.245  1.6502  1.3250 -2.5275
17859THY    CA327253   7.657   5.087   7.312  0.3081  0.1217  0.3551
17859THY    HA327254   7.665   5.117   7.416  1.1743 -0.3231  1.8164
17859THY    CA427255   7.694   4.955   7.283  0.4015  0.5726 -0.3448
17859THY    HA427256   7.730   4.895   7.366  2.3588 -0.6706 -0.9427
17859THY    CA527257   7.686   4.910   7.153  0.1128 -0.2043 -0.4087
17859THY    CM127258   7.711   4.763   7.120 -0.6879 -0.4156  0.2407
17859THY    HM127259   7.675   4.693   7.196  2.5526 -0.6176 -1.8635
17859THY    HM227260   7.819   4.747   7.127 -0.8157  4.7596 -0.0216
17859THY    HM327261   7.660   4.730   7.029 -2.2236 -0.1130  1.6296
17859THY    CA627262   7.652   5.001   7.048 -0.0209  0.1768 -0.2232
17859THY    HA627263   7.662   4.972   6.944  2.0426  0.1214  0.5416
17860THY      O27264   7.087   2.663   2.291 -0.2044 -0.0835  0.0187
17860THY     HO27265   6.996   2.685   2.317 -0.2437  0.2850 -0.5381
17860THY    CA127266   7.109   2.528   2.316  0.3895  0.0236 -0.4408
17860THY    CA227267   7.238   2.469   2.319 -0.2099 -0.2429 -0.4091
17860THY    CP127268   7.355   2.563   2.292  0.6174  0.8193 -0.3845
17860THY    HP127269   7.322   2.662   2.323 -1.7362 -0.9102 -0.5306
17860THY    CP227270   7.383   2.581   2.144 -0.1565 -0.0161  0.2699
17860THY    HP227271   7.309   2.648   2.098 -0.4551 -0.6891 -0.5049
17860THY    HP327272   7.390   2.479   2.106 -0.0629 -1.1200  0.6788
17860THY    HP427273   7.479   2.634   2.135 -0.4409 -0.7066  0.6774
17860THY    CP327274   7.480   2.513   2.365  0.6340 -0.6354  0.0182
17860THY    HP527275   7.505   2.408   2.344 -3.3595 -0.1285 -1.1974
17860THY    HP627276   7.459   2.531   2.471 -1.1958 -0.8297 -0.7507
17860THY    HP727277   7.571   2.571   2.347  0.8649 -0.5669 -0.3200
17860THY    CA327278   7.249   2.326   2.330  0.6096  0.3469 -0.4063
17860THY    HA327279   7.342   2.269   2.323 -0.1231 -0.7184 -1.4906
17860THY    CA427280   7.129   2.255   2.338  0.2468 -0.0120  0.0415
17860THY    HA427281   7.141   2.149   2.360  0.8142 -1.4979 -0.2402
17860THY    CA527282   7.006   2.315   2.333  0.6428 -0.3665  0.2412
17860THY    CM127283   6.879   2.235   2.355 -0.0265  0.3230 -0.2582
17860THY    HM127284   6.892   2.177   2.447 -0.3957  2.4232  2.7422
17860THY    HM227285   6.857   2.170   2.269  2.6328 -0.1660 -0.6327
17860THY    HM327286   6.801   2.311   2.359  1.6025 -4.2370  2.0426
17860THY    CA627287   6.995   2.450   2.307 -0.5754 -0.5381  0.5437
17860THY    HA627288   6.898   2.492   2.285 -1.9764 -1.0685 -2.7059
17861THY      O27289   0.830   7.523   5.684  0.4726 -0.2663  0.1673
17861THY     HO27290   0.878   7.605   5.668 -1.2571 -0.8242  1.1149
17861THY    CA127291   0.857   7.444   5.584 -0.4799 -0.6184 -0.0882
17861THY    CA227292   0.798   7.319   5.565 -0.1056  0.2793  0.1371
17861THY    CP127293   0.691   7.263   5.660  0.1577  0.2669  0.2462
17861THY    HP127294   0.703   7.315   5.755  1.0271 -0.4971  1.5197
17861THY    CP227295   0.711   7.112   5.689 -0.2498  0.6069  0.5868
17861THY    HP227296   0.692   7.064   5.592 -0.0125  0.1269  1.4342
17861THY    HP327297   0.641   7.089   5.770 -0.2497  0.1523 -1.1743
17861THY    HP427298   0.814   7.090   5.719  0.0391 -0.6384  0.1221
17861THY    CP327299   0.545   7.289   5.611  0.6864  0.2648 -0.3146
17861THY    HP527300   0.545   7.397   5.592 -0.0225 -0.4616 -0.4257
17861THY    HP627301   0.469   7.255   5.683  0.4167 -0.7447 -1.9549
17861THY    HP727302   0.530   7.238   5.515  1.2791 -0.6869  1.2596
17861THY    CA327303   0.837   7.247   5.455  0.6282 -0.0472  0.4959
17861THY    HA327304   0.787   7.156   5.425 -0.4492 -3.5574  2.0624
17861THY    CA427305   0.943   7.286   5.374 -0.0740 -0.1858  0.0888
17861THY    HA427306   0.969   7.227   5.287  0.7462  0.2171 -0.1550
17861THY    CA527307   1.008   7.412   5.397 -0.1735 -0.9658  0.6666
17861THY    CM127308   1.128   7.461   5.320 -0.1919 -0.4235  0.5908
17861THY    HM127309   1.229   7.449   5.362 -1.4144  1.9725 -2.4330
17861THY    HM227310   1.117   7.568   5.297 -0.9575  0.6026  0.7487
17861THY    HM327311   1.134   7.404   5.227  0.8615 -0.6608  1.0531
17861THY    CA627312   0.963   7.491   5.507  0.6830  0.4687  0.1177
17861THY    HA627313   1.006   7.590   5.517 -1.4862  0.0658  1.1563
17862THY      O27314   8.565   1.382   4.901  0.2175 -0.3080  0.3508
17862THY     HO27315   8.655   1.347   4.907 -0.7974  1.3583 -2.3134
17862THY    CA127316   8.553   1.435   4.776  0.0864  0.0602 -0.6509
17862THY    CA227317   8.430   1.432   4.711 -0.3485 -0.0498 -0.2724
17862THY    CP127318   8.304   1.363   4.768 -1.1198  0.4549  0.0425
17862THY    HP127319   8.343   1.289   4.838  1.2660  1.7229  2.3623
17862THY    CP227320   8.216   1.300   4.661 -0.0226 -0.0544  0.3842
17862THY    HP227321   8.254   1.221   4.596 -0.2512  1.7102 -1.2515
17862THY    HP327322   8.175   1.376   4.592 -2.8252  0.8377 -0.2174
17862THY    HP427323   8.125   1.264   4.710 -0.2830 -0.5128  0.4076
17862THY    CP327324   8.219   1.458   4.847  0.7296 -0.1684 -0.3779
17862THY    HP527325   8.183   1.538   4.781 -1.1041  1.5053  0.2509
17862THY    HP627326   8.283   1.504   4.924 -0.9786  2.9802 -2.8834
17862THY    HP727327   8.143   1.409   4.907  0.2089  0.0914  0.7096
17862THY    CA327328   8.424   1.502   4.590 -0.4455  0.5059 -0.5535
17862THY    HA327329   8.331   1.516   4.536 -1.2081  1.7829 -0.5202
17862THY    CA427330   8.537   1.562   4.538 -0.2904  0.1368 -0.5001
17862THY    HA427331   8.538   1.628   4.452  0.4177  0.7475  0.3078
17862THY    CA527332   8.664   1.553   4.605  0.6214  0.1583  0.0146
17862THY    CM127333   8.791   1.598   4.538  0.0232  0.3569 -0.4135
17862THY    HM127334   8.784   1.705   4.514  0.2555 -0.1121 -0.5024
17862THY    HM227335   8.807   1.542   4.445  2.3866 -0.7206  1.8242
17862THY    HM327336   8.879   1.592   4.603 -0.2600  1.0670  2.0025
17862THY    CA627337   8.671   1.485   4.725  0.0241  0.7360 -0.3783
17862THY    HA627338   8.764   1.466   4.778  0.4443 -0.7331 -2.7838
17863THY      O27339   2.299   2.569   3.887  0.2280  0.4022 -0.2761
17863THY     HO27340   2.308   2.660   3.922 -0.2767  1.1847 -0.5187
17863THY    CA127341   2.169   2.534   3.876 -0.8771 -0.2701 -0.1827
17863THY    CA227342   2.140   2.405   3.835 -0.7888 -0.2180  0.0171
17863THY    CP127343   2.263   2.317   3.778 -0.0092 -0.0728  0.5608
17863THY    HP127344   2.349   2.344   3.841 -0.5974  1.3693 -0.7643
17863THY    CP227345   2.300   2.338   3.626  0.5385 -0.2406  0.3822
17863THY    HP227346   2.340   2.435   3.597  2.3909  1.3903  0.1662
17863THY    HP327347   2.211   2.317   3.566  0.7816  0.1664 -2.2121
17863THY    HP427348   2.373   2.259   3.606  1.0409  1.7256  0.2930
17863THY    CP327349   2.228   2.163   3.795 -0.1725 -0.6720  0.0515
17863THY    HP527350   2.197   2.149   3.899 -1.2885 -1.1433 -1.1196
17863THY    HP627351   2.314   2.097   3.776 -0.5157 -0.9753 -0.3166
17863THY    HP727352   2.155   2.125   3.724 -0.7282  0.1758 -0.5145
17863THY    CA327353   2.007   2.361   3.840  0.0243 -0.6544 -0.3118
17863THY    HA327354   1.974   2.264   3.803 -0.6616 -2.4920  0.5715
17863THY    CA427355   1.906   2.455   3.888 -0.3656 -0.5061  0.8404
17863THY    HA427356   1.806   2.416   3.872 -0.7163 -0.1536  1.5796
17863THY    CA527357   1.939   2.581   3.923  0.4284 -0.0102 -0.6910
17863THY    CM127358   1.838   2.687   3.945  0.1443  0.2554  0.6244
17863THY    HM127359   1.788   2.686   4.043 -1.0975 -0.3092 -2.4470
17863THY    HM227360   1.765   2.677   3.863 -0.9797  1.4605 -1.9831
17863THY    HM327361   1.874   2.790   3.938 -0.1777 -0.0726  0.7198
17863THY    CA627362   2.072   2.620   3.917 -0.4705 -0.4894  0.4491
17863THY    HA627363   2.103   2.722   3.939  0.8957  0.5874 -0.1712
17864THY      O27364   5.731   4.768   1.963 -0.6796  0.2666  0.2307
17864THY     HO27365   5.682   4.840   1.920  0.1599  1.9367  1.8847
17864THY    CA127366   5.732   4.780   2.101 -0.0419 -0.3820 -0.9441
17864THY    CA227367   5.791   4.688   2.186 -0.0732  0.0351 -0.0871
17864THY    CP127368   5.869   4.568   2.132 -0.2756  0.6730  0.1343
17864THY    HP127369   5.878   4.574   2.023 -0.7310  0.5914 -0.5080
17864THY    CP227370   5.786   4.443   2.142 -1.0387 -0.7382  0.0316
17864THY    HP227371   5.691   4.453   2.089  0.4455 -3.7031 -0.5466
17864THY    HP327372   5.770   4.435   2.250 -1.6796 -0.8847 -0.7383
17864THY    HP427373   5.838   4.349   2.122 -0.7202  1.3409 -0.2877
17864THY    CP327374   6.006   4.551   2.187 -0.5358 -0.2702 -0.5594
17864THY    HP527375   6.069   4.625   2.136 -0.0366  0.5075 -0.4301
17864THY    HP627376   6.048   4.453   2.163  0.9096  2.4695 -0.7054
17864THY    HP727377   6.007   4.571   2.295  2.8807 -0.2006 -0.5673
17864THY    CA327378   5.787   4.712   2.323  0.0936  0.2413 -1.0885
17864THY    HA327379   5.832   4.641   2.391  0.1006  1.4159  0.0056
17864THY    CA427380   5.730   4.837   2.372 -0.1312  0.3572  0.2979
17864THY    HA427381   5.725   4.860   2.478  2.3652  0.8319 -1.0142
17864THY    CA527382   5.675   4.925   2.285  0.9063  0.9204  0.4014
17864THY    CM127383   5.613   5.053   2.338  0.2144 -0.5281 -0.6363
17864THY    HM127384   5.512   5.067   2.298  0.7406 -2.2910 -1.5516
17864THY    HM227385   5.675   5.139   2.310 -0.5468 -0.1767  0.0439
17864THY    HM327386   5.603   5.054   2.447 -1.9351 -0.6840  0.6634
17864THY    CA627387   5.668   4.897   2.152  0.0209  0.0613 -0.1259
17864THY    HA627388   5.618   4.969   2.088  1.1736 -2.2838 -1.2977
17865THY      O27389   0.609   1.437   2.588 -0.1719 -0.0268  0.2121
17865THY     HO27390   0.539   1.371   2.602  1.5938  0.6043 -1.6174
17865THY    CA127391   0.595   1.505   2.705  0.6657  0.1685  0.0016
17865THY    CA227392   0.660   1.627   2.720  0.0405  0.4056  0.7018
17865THY    CP127393   0.747   1.679   2.605  0.3353  0.2326  0.3328
17865THY    HP127394   0.752   1.605   2.524 -0.9343  1.0347 -0.6738
17865THY    CP227395   0.896   1.707   2.645  0.0801 -0.2418  0.2115
17865THY    HP227396   0.907   1.752   2.744  2.9445 -1.4071  2.4468
17865THY    HP327397   0.941   1.778   2.574 -0.2829 -1.0805 -0.3813
17865THY    HP427398   0.955   1.614   2.647 -1.5380 -1.0880 -0.8755
17865THY    CP327399   0.699   1.814   2.551 -0.0341 -0.4414  0.2847
17865THY    HP527400   0.713   1.877   2.639 -2.7294 -0.3781  0.8831
17865THY    HP627401   0.592   1.812   2.529  0.1064 -1.0890 -0.9917
17865THY    HP727402   0.767   1.845   2.471  1.5993  0.5881 -0.4712
17865THY    CA327403   0.637   1.698   2.839  0.1472 -0.3710  0.6823
17865THY    HA327404   0.676   1.799   2.852  4.7800 -1.6021 -0.6927
17865THY    CA427405   0.550   1.644   2.928 -0.3587  0.4111 -0.4003
17865THY    HA427406   0.541   1.707   3.017 -0.2812 -1.3082  2.1844
17865THY    CA527407   0.481   1.528   2.907  0.1976 -0.1600 -0.5114
17865THY    CM127408   0.383   1.470   3.003 -0.6865 -0.0517  0.2852
17865THY    HM127409   0.339   1.554   3.058 -1.4463  0.3529 -0.3562
17865THY    HM227410   0.418   1.396   3.075  1.4250 -1.7804 -0.5073
17865THY    HM327411   0.300   1.415   2.957 -1.4613  3.4307 -1.7643
17865THY    CA627412   0.508   1.452   2.797  0.5050 -0.0424 -0.1048
17865THY    HA627413   0.454   1.358   2.784 -3.0871 -0.7991  1.8835
17866THY      O27414   7.861   1.469   6.738 -0.9887 -0.0656 -0.1007
17866THY     HO27415   7.849   1.539   6.805  1.6188 -1.3333  1.7137
17866THY    CA127416   7.766   1.498   6.650 -0.2998  0.2897 -1.1058
17866THY    CA227417   7.729   1.410   6.543  0.4905 -0.7596  0.1805
17866THY    CP127418   7.783   1.262   6.524 -0.3005 -0.2215  0.5825
17866THY    HP127419   7.814   1.215   6.619  2.5503 -2.4276 -2.4594
17866THY    CP227420   7.904   1.272   6.428  0.6101  0.4136  0.4978
17866THY    HP227421   7.940   1.173   6.401  1.3595 -0.0900  0.8938
17866THY    HP327422   7.990   1.329   6.466  0.2981  0.5694  0.8777
17866THY    HP427423   7.878   1.319   6.332  2.8488 -0.7111 -0.4258
17866THY    CP327424   7.685   1.161   6.463 -0.0200 -0.3917 -0.1605
17866THY    HP527425   7.743   1.068   6.467  3.9335 -1.0314  2.0540
17866THY    HP627426   7.683   1.179   6.355  2.1676 -0.0735  2.6623
17866THY    HP727427   7.587   1.158   6.512  0.3676  0.8247  3.2391
17866THY    CA327428   7.632   1.455   6.452 -0.1978  0.4816  0.0345
17866THY    HA327429   7.595   1.400   6.366 -0.3972  0.3455  0.3824
17866THY    CA427430   7.582   1.589   6.464 -0.6901 -0.3603 -0.5067
17866THY    HA427431   7.514   1.635   6.393  0.4233 -1.3205 -0.3035
17866THY    CA527432   7.626   1.672   6.566 -0.6325  0.4944 -0.7990
17866THY    CM127433   7.571   1.806   6.587 -0.3727  0.3003  0.2822
17866THY    HM127434   7.462   1.811   6.585 -0.4224  1.6583  0.2895
17866THY    HM227435   7.600   1.872   6.504  0.8945  0.4721 -0.0281
17866THY    HM327436   7.592   1.854   6.684 -2.2005  0.9220 -0.0867
17866THY    CA627437   7.724   1.631   6.649 -0.6814  0.8262 -0.4978
17866THY    HA627438   7.758   1.713   6.712 -3.0457 -1.7506  2.7185
17867THY      O27439   0.242   4.904   3.406  0.4516  0.3204 -0.3066
17867THY     HO27440   0.241   4.847   3.327 -2.1553  0.8957 -1.2230
17867THY    CA127441   0.356   4.881   3.469 -0.3577 -0.0745 -0.0065
17867THY    CA227442   0.397   4.968   3.575 -0.4683  0.5504  0.9476
17867THY    CP127443   0.296   5.062   3.630 -0.1126 -1.0726 -0.4573
17867THY    HP127444   0.253   5.122   3.549 -1.4519  0.5029  0.8130
17867THY    CP227445   0.344   5.155   3.738 -0.7333 -0.3240 -0.6440
17867THY    HP227446   0.427   5.214   3.695  0.3450  0.5114 -1.5055
17867THY    HP327447   0.388   5.089   3.813  0.2802  0.5959  0.9957
17867THY    HP427448   0.268   5.228   3.769  0.1044  0.5148 -0.0935
17867THY    CP327449   0.180   4.979   3.711  0.0831 -0.1395  0.4256
17867THY    HP527450   0.116   4.929   3.638  0.0173 -1.7250  2.6864
17867THY    HP627451   0.113   5.056   3.750 -0.4141 -0.6172  0.2399
17867THY    HP727452   0.222   4.913   3.788 -1.2774  0.5348  0.3209
17867THY    CA327453   0.533   4.960   3.617  0.0379 -0.1960 -0.1878
17867THY    HA327454   0.566   5.032   3.691 -0.4596 -0.0097 -0.1476
17867THY    CA427455   0.621   4.858   3.574 -0.4228  0.6318  0.1352
17867THY    HA427456   0.723   4.870   3.608 -0.4479  0.7931 -0.1245
17867THY    CA527457   0.568   4.764   3.482 -0.6697  0.3841  0.0390
17867THY    CM127458   0.658   4.657   3.422 -0.0777  0.6957 -0.2237
17867THY    HM127459   0.744   4.647   3.489  1.0749 -0.6021  0.6589
17867THY    HM227460   0.704   4.683   3.326  1.3879  1.2146 -0.7916
17867THY    HM327461   0.594   4.573   3.394  0.5180  0.8614 -0.7431
17867THY    CA627462   0.438   4.775   3.437 -0.2647 -0.0661 -0.3683
17867THY    HA627463   0.400   4.691   3.379 -3.9229 -0.3860  1.3326
17868THY      O27464   6.706   0.368   4.201 -0.0769 -0.0277  0.3220
17868THY     HO27465   6.726   0.403   4.289 -3.0669  0.6681  0.5378
17868THY    CA127466   6.598   0.440   4.156  0.2198 -0.5021  1.0373
17868THY    CA227467   6.558   0.433   4.022  0.2136 -0.2296  0.7607
17868THY    CP127468   6.637   0.337   3.925  0.2531  0.1731 -0.1178
17868THY    HP127469   6.682   0.250   3.975  0.9389 -0.5725 -0.2133
17868THY    CP227470   6.757   0.413   3.864 -0.9595 -0.8413  0.0371
17868THY    HP227471   6.824   0.355   3.799  1.2620 -1.9782  3.5422
17868THY    HP327472   6.824   0.454   3.941  0.9625 -1.0470 -2.4078
17868THY    HP427473   6.719   0.488   3.794 -0.3441  0.8291  1.9854
17868THY    CP327474   6.545   0.278   3.810  0.5606 -0.5341 -0.2721
17868THY    HP527475   6.511   0.355   3.740  1.5815  1.2939  1.9783
17868THY    HP627476   6.453   0.238   3.855  1.0706  4.9433  3.5327
17868THY    HP727477   6.592   0.191   3.762  2.9655 -0.7320  1.0312
17868THY    CA327478   6.454   0.510   3.973  1.1165  0.0866 -0.1671
17868THY    HA327479   6.425   0.506   3.868  1.0404  0.1480 -2.5092
17868THY    CA427480   6.386   0.594   4.062  0.4770  0.8443  0.3319
17868THY    HA427481   6.301   0.644   4.016  1.1800 -3.1519 -1.7924
17868THY    CA527482   6.424   0.601   4.194 -0.0330  0.8883 -0.8344
17868THY    CM127483   6.356   0.689   4.292 -0.3886  0.0958  0.2240
17868THY    HM127484   6.399   0.790   4.295  1.1480  2.0060 -0.4133
17868THY    HM227485   6.384   0.644   4.388  2.9869 -0.7826  0.1977
17868THY    HM327486   6.247   0.703   4.289 -0.1678 -2.2243  2.2539
17868THY    CA627487   6.528   0.525   4.245  0.1829  1.1813  0.7045
17868THY    HA627488   6.544   0.522   4.353 -0.3727  1.2554 -0.3625
17869THY      O27489   5.530   0.349   5.323  0.3830 -0.0868 -0.1449
17869THY     HO27490   5.436   0.361   5.303 -0.5459  3.1727 -0.9979
17869THY    CA127491   5.531   0.369   5.456  0.0585  0.6027 -0.1080
17869THY    CA227492   5.638   0.318   5.537  0.1962  0.3916  0.1348
17869THY    CP127493   5.772   0.281   5.472 -0.0341 -1.0651 -0.0850
17869THY    HP127494   5.775   0.341   5.380 -3.0514 -0.7228  0.7792
17869THY    CP227495   5.775   0.127   5.444 -0.2089  0.8767 -0.8029
17869THY    HP227496   5.796   0.062   5.530  1.9210  0.4483 -0.7621
17869THY    HP327497   5.839   0.115   5.355 -1.7019 -0.7805  2.4527
17869THY    HP427498   5.679   0.111   5.395  0.4971 -0.8968  0.1230
17869THY    CP327499   5.888   0.318   5.566 -0.4268 -0.0559 -0.1089
17869THY    HP527500   5.985   0.293   5.521 -0.8682 -0.8602 -0.4312
17869THY    HP627501   5.882   0.275   5.666  3.3168  0.3724  0.0722
17869THY    HP727502   5.886   0.426   5.585  1.6615 -0.6311  0.0661
17869THY    CA327503   5.611   0.311   5.675  0.3232  0.0804 -0.1620
17869THY    HA327504   5.692   0.275   5.738  0.6473 -0.2067  0.0611
17869THY    CA427505   5.493   0.364   5.731 -0.1538 -0.6826  0.1156
17869THY    HA427506   5.478   0.358   5.838 -0.0851 -0.6218  0.9788
17869THY    CA527507   5.400   0.432   5.648  0.0860 -0.6347 -0.3690
17869THY    CM127508   5.269   0.489   5.710 -0.0869 -0.2960  0.5751
17869THY    HM127509   5.265   0.488   5.820 -0.9815 -0.1786  3.8260
17869THY    HM227510   5.185   0.421   5.691 -1.5532  2.9506  1.2728
17869THY    HM327511   5.247   0.589   5.670  1.8143  0.6032  1.4009
17869THY    CA627512   5.414   0.424   5.512 -0.9230  0.3334 -0.1697
17869THY    HA627513   5.332   0.464   5.452 -0.8493  0.3498  0.0063
17870THY      O27514   6.696   5.756   4.925  0.0439  0.6261 -0.2486
17870THY     HO27515   6.627   5.754   4.993 -1.4948 -0.7679  1.7011
17870THY    CA127516   6.761   5.874   4.946  0.3708 -0.1597  0.2190
17870THY    CA227517   6.877   5.900   4.874 -0.3372 -0.3431  0.2444
17870THY    CP127518   6.920   5.804   4.762  0.9709  0.2120 -0.0860
17870THY    HP127519   6.878   5.703   4.777 -1.1651  0.1983  0.7381
17870THY    CP227520   7.072   5.801   4.743  0.3087  0.3324 -0.2077
17870THY    HP227521   7.108   5.719   4.679 -2.2805 -1.1190 -0.3464
17870THY    HP327522   7.130   5.799   4.836 -0.2889  0.8005  1.9327
17870THY    HP427523   7.101   5.893   4.691 -3.7449 -1.2818  0.3688
17870THY    CP327524   6.850   5.859   4.629 -0.5335  0.4410 -0.6791
17870THY    HP527525   6.741   5.872   4.640 -0.8214 -2.6841  0.1414
17870THY    HP627526   6.860   5.791   4.544  0.6922  2.4436 -3.1656
17870THY    HP727527   6.902   5.949   4.596  1.4186 -3.2176 -2.9457
17870THY    CA327528   6.940   6.025   4.889  0.2272  0.1874  0.6915
17870THY    HA327529   7.038   6.038   4.844  0.5362  0.3390 -0.8836
17870THY    CA427530   6.892   6.119   4.978 -0.3917 -0.4466  0.7561
17870THY    HA427531   6.950   6.209   4.996  1.6392  1.0394 -0.7568
17870THY    CA527532   6.775   6.090   5.045 -0.4040 -0.6462 -0.2339
17870THY    CM127533   6.705   6.196   5.127 -0.3701  0.2163 -0.3431
17870THY    HM127534   6.692   6.163   5.231 -1.3882 -0.0619 -0.8604
17870THY    HM227535   6.604   6.222   5.092 -0.1500  0.1885  0.4944
17870THY    HM327536   6.758   6.292   5.131 -0.9502  0.4863 -0.0290
17870THY    CA627537   6.711   5.970   5.032 -0.6664  0.8812 -1.0895
17870THY    HA627538   6.625   5.950   5.096 -1.8109 -0.8134 -1.7967
17871THY      O27539   7.010   1.052   6.508  0.3982 -0.5607  0.8055
17871THY     HO27540   6.942   1.105   6.463 -1.2819 -0.5103 -1.1763
17871THY    CA127541   7.075   1.003   6.406 -0.0077  0.7131  0.6820
17871THY    CA227542   7.182   0.908   6.407  0.2523  0.8929  0.0656
17871THY    CP127543   7.229   0.861   6.541 -0.3191  1.0080  0.4360
17871THY    HP127544   7.138   0.877   6.600 -1.8264 -0.5530 -1.8518
17871THY    CP227545   7.338   0.940   6.605  0.0567 -0.1486  0.4657
17871THY    HP227546   7.320   1.046   6.588  0.5586 -1.3023  0.3721
17871THY    HP327547   7.432   0.916   6.555  0.3525 -0.4881  2.2183
17871THY    HP427548   7.353   0.925   6.713  1.1398  0.0746  2.8184
17871THY    CP327549   7.258   0.710   6.539  0.3621 -0.2907 -0.9203
17871THY    HP527550   7.346   0.710   6.473 -0.4748 -1.4964  1.2602
17871THY    HP627551   7.178   0.648   6.498 -0.3092  2.1761 -1.7835
17871THY    HP727552   7.284   0.675   6.640  1.0073 -0.3460 -0.6267
17871THY    CA327553   7.238   0.868   6.283  0.6444  0.1298 -0.0800
17871THY    HA327554   7.320   0.798   6.281  1.9384  0.9554  1.3295
17871THY    CA427555   7.203   0.928   6.161  0.2319  0.3881  0.2849
17871THY    HA427556   7.248   0.901   6.066  0.5875  0.7740 -0.5053
17871THY    CA527557   7.105   1.029   6.163  0.0663  0.0398  0.6526
17871THY    CM127558   7.067   1.114   6.045  0.4567  0.7433 -0.0959
17871THY    HM127559   7.071   1.218   6.079 -0.3566 -2.3195  1.0537
17871THY    HM227560   6.969   1.075   6.016  1.7190 -3.4362 -0.7293
17871THY    HM327561   7.138   1.108   5.962 -0.3802  0.0037 -0.0387
17871THY    CA627562   7.042   1.063   6.283  0.3579 -0.0520  0.1903
17871THY    HA627563   6.968   1.142   6.290  1.3896  0.6771  1.1227
17872THY      O27564   9.006   3.986   2.368 -0.3157  0.3652 -0.5070
17872THY     HO27565   9.048   4.039   2.297 -1.3406  1.0469  1.3055
17872THY    CA127566   9.082   4.008   2.471  0.6235  1.0684  0.0807
17872THY    CA227567   9.031   4.069   2.589  0.2416 -0.0569  0.0810
17872THY    CP127568   8.883   4.102   2.613 -0.0926  0.2344  0.4268
17872THY    HP127569   8.823   4.071   2.528 -3.4100  1.7592  2.1892
17872THY    CP227570   8.876   4.256   2.636 -0.0620  0.3709  0.0840
17872THY    HP227571   8.897   4.319   2.548  0.0005  0.9307  0.8505
17872THY    HP327572   8.944   4.282   2.717 -1.2645  2.0419 -1.7633
17872THY    HP427573   8.773   4.278   2.666  0.3263  1.0353  1.0552
17872THY    CP327574   8.819   4.018   2.725  0.2236 -0.7273 -0.8597
17872THY    HP527575   8.844   4.052   2.826 -2.1340 -0.3923  0.0219
17872THY    HP627576   8.828   3.909   2.720 -0.3150  1.8521 -1.0938
17872THY    HP727577   8.713   4.042   2.724  0.1391  2.3265 -0.7791
17872THY    CA327578   9.122   4.071   2.697 -0.3985 -0.6540  0.2002
17872THY    HA327579   9.094   4.100   2.798 -0.6220 -0.6563 -0.0046
17872THY    CA427580   9.256   4.032   2.683  1.0249  0.0486 -0.5766
17872THY    HA427581   9.322   4.053   2.767 -0.6592  0.9521  1.5033
17872THY    CA527582   9.303   3.987   2.562  0.3057  0.4011  0.5130
17872THY    CM127583   9.452   3.962   2.549  0.1386  0.0197  0.1138
17872THY    HM127584   9.498   4.057   2.520 -1.8234 -0.2129  1.0523
17872THY    HM227585   9.478   3.888   2.473  0.3083  1.1103 -0.9694
17872THY    HM327586   9.496   3.942   2.647 -0.4363  0.2344 -0.1200
17872THY    CA627587   9.213   3.964   2.463 -0.3581  0.7902  0.1484
17872THY    HA627588   9.255   3.925   2.371 -0.0705  0.9494  0.0796
17873THY      O27589   2.775   8.522   3.867 -0.0899  0.1917 -0.0831
17873THY     HO27590   2.812   8.612   3.859  2.1533 -1.0942 -1.0309
17873THY    CA127591   2.651   8.539   3.822 -0.4771 -0.0886  0.1627
17873THY    CA227592   2.583   8.431   3.764  0.2052  0.2589 -0.3806
17873THY    CP127593   2.649   8.297   3.762 -0.3501  0.8322  0.3584
17873THY    HP127594   2.714   8.290   3.850 -0.6184  1.0244  0.2653
17873THY    CP227595   2.732   8.283   3.634  0.1405 -0.3011  0.5513
17873THY    HP227596   2.688   8.338   3.550 -1.8622  0.9715  1.0111
17873THY    HP327597   2.742   8.180   3.599 -0.2790 -0.4155  0.5491
17873THY    HP427598   2.837   8.315   3.643  1.0053  0.5226 -2.2341
17873THY    CP327599   2.554   8.179   3.766 -0.5168 -0.5924 -0.9440
17873THY    HP527600   2.493   8.169   3.675 -1.5953 -0.1105  0.7634
17873THY    HP627601   2.483   8.196   3.848 -1.8766 -2.1681  1.7946
17873THY    HP727602   2.614   8.088   3.775 -0.1861 -1.5307 -0.8370
17873THY    CA327603   2.449   8.456   3.718 -0.5195 -0.1393 -0.6672
17873THY    HA327604   2.399   8.374   3.668  1.5089  0.0323 -2.0773
17873THY    CA427605   2.397   8.583   3.713 -0.1331 -0.6474 -0.0105
17873THY    HA427606   2.300   8.599   3.667 -1.0242  1.5857  1.5212
17873THY    CA527607   2.469   8.694   3.771  0.4132  0.2247 -0.4962
17873THY    CM127608   2.407   8.839   3.764 -0.1528 -0.0034  0.0836
17873THY    HM127609   2.371   8.862   3.865 -1.9006 -0.8752  1.4072
17873THY    HM227610   2.333   8.847   3.683 -1.5217  1.1207 -0.6392
17873THY    HM327611   2.483   8.907   3.726 -2.1940 -2.2365  1.2694
17873THY    CA627612   2.597   8.670   3.825 -0.0325  0.4328  0.6754
17873THY    HA627613   2.650   8.753   3.871 -0.9167  1.3611  0.7431
17874THY      O27614   2.420   7.326   4.375 -0.0776 -0.2566  0.3245
17874THY     HO27615   2.497   7.345   4.430 -0.8134  1.0870 -0.3908
17874THY    CA127616   2.335   7.436   4.393 -0.3516  0.0327 -0.1616
17874THY    CA227617   2.241   7.476   4.296  0.4079 -0.5241 -0.0270
17874THY    CP127618   2.238   7.408   4.162 -0.8762 -0.2525 -0.2729
17874THY    HP127619   2.336   7.358   4.150  0.8052  2.5018  2.0544
17874THY    CP227620   2.256   7.519   4.050 -0.4362  0.1414  0.1029
17874THY    HP227621   2.284   7.466   3.958 -0.5049  0.1427  0.0641
17874THY    HP327622   2.338   7.589   4.070 -0.8538 -0.3394  0.7374
17874THY    HP427623   2.170   7.580   4.023 -0.2600 -0.3315  0.1478
17874THY    CP327624   2.117   7.312   4.135 -0.0182 -0.5610 -0.2647
17874THY    HP527625   2.024   7.369   4.144  0.7768  0.3051  0.9307
17874THY    HP627626   2.104   7.230   4.207  0.3538  0.5392  0.6194
17874THY    HP727627   2.143   7.276   4.035  0.5136 -0.2960 -0.6323
17874THY    CA327628   2.155   7.578   4.321 -0.4665 -0.1234 -0.0884
17874THY    HA327629   2.077   7.602   4.250 -1.3211  1.1161  0.9350
17874THY    CA427630   2.146   7.630   4.452 -0.2019  0.7243 -0.2888
17874THY    HA427631   2.064   7.690   4.490  0.2679  3.4081 -1.2129
17874THY    CA527632   2.235   7.587   4.551 -0.9379  0.4699 -0.1470
17874THY    CM127633   2.224   7.629   4.698  0.3514 -0.1951 -0.0870
17874THY    HM127634   2.122   7.663   4.720 -0.4994 -3.5248 -0.2096
17874THY    HM227635   2.292   7.710   4.728  0.3500 -0.9941  0.2153
17874THY    HM327636   2.253   7.543   4.761 -0.2433 -1.4391 -1.2363
17874THY    CA627637   2.334   7.486   4.526  0.4111  0.4168 -0.0535
17874THY    HA627638   2.399   7.454   4.607  0.7788  0.1328 -0.0330
17875THY      O27639   1.270   7.259   3.582  0.1021 -0.4657  0.1380
17875THY     HO27640   1.304   7.242   3.492 -2.0392 -1.2797 -0.1569
17875THY    CA127641   1.140   7.218   3.589 -0.0653 -0.2233  0.2297
17875THY    CA227642   1.036   7.300   3.648  0.4277 -0.4987 -0.2412
17875THY    CP127643   1.070   7.436   3.710 -0.1094  0.2976 -0.0261
17875THY    HP127644   1.178   7.434   3.729 -0.0760  0.3710 -3.5560
17875THY    CP227645   1.001   7.473   3.838 -0.0533  0.3366 -0.4095
17875THY    HP227646   0.892   7.463   3.825  0.4788 -5.0965 -2.9012
17875THY    HP327647   1.028   7.576   3.859  0.9495 -3.3235  0.2104
17875THY    HP427648   1.035   7.405   3.917 -0.6462 -1.1668 -2.5767
17875THY    CP327649   1.044   7.538   3.601  0.1821 -0.5409 -0.0809
17875THY    HP527650   0.944   7.534   3.557  1.0821 -3.2744  2.7262
17875THY    HP627651   1.122   7.521   3.525  2.6133  1.8472 -0.3816
17875THY    HP727652   1.060   7.640   3.639  0.3405 -0.3333 -0.1833
17875THY    CA327653   0.899   7.260   3.638  0.1894  0.9636 -0.1282
17875THY    HA327654   0.822   7.327   3.674 -0.9994 -0.3455 -0.7422
17875THY    CA427655   0.866   7.133   3.584  0.6037  0.8488 -0.2792
17875THY    HA427656   0.765   7.099   3.560 -0.5420  0.0767  3.2757
17875THY    CA527657   0.967   7.049   3.536 -0.6186  0.2424 -0.6797
17875THY    CM127658   0.934   6.930   3.460  0.4483  0.5754 -0.3166
17875THY    HM127659   0.978   6.935   3.360  1.2527  0.9193 -0.4745
17875THY    HM227660   0.828   6.900   3.463 -0.6759 -0.6962  3.0398
17875THY    HM327661   0.981   6.848   3.516  1.0366 -0.4579 -0.6984
17875THY    CA627662   1.104   7.096   3.529 -0.0959 -0.1532 -0.2989
17875THY    HA627663   1.184   7.041   3.480  1.5305  0.2481  1.6319
17876THY      O27664   1.410   0.649   2.729 -0.4983  0.1535 -0.2408
17876THY     HO27665   1.464   0.611   2.657  2.1741  0.2497  2.9276
17876THY    CA127666   1.492   0.727   2.800 -0.3033  0.2334  0.4963
17876THY    CA227667   1.442   0.809   2.903  0.8962 -0.5214 -0.9747
17876THY    CP127668   1.295   0.787   2.966 -0.5316  0.3108  0.0871
17876THY    HP127669   1.241   0.719   2.899 -1.2061  1.2850 -0.3540
17876THY    CP227670   1.214   0.914   2.975 -0.4846  0.0214  0.1275
17876THY    HP227671   1.233   0.975   2.887  1.2485  1.5743  1.9863
17876THY    HP327672   1.227   0.986   3.057  0.3082 -0.5056  0.6022
17876THY    HP427673   1.110   0.881   2.967 -0.8778 -0.2409  1.4157
17876THY    CP327674   1.308   0.726   3.105 -0.5351 -0.4438 -0.1949
17876THY    HP527675   1.350   0.627   3.087  1.2863  1.0551  0.2375
17876THY    HP627676   1.214   0.722   3.161  1.0885  2.6416  0.6449
17876THY    HP727677   1.376   0.787   3.166 -1.0135 -0.0789 -0.0154
17876THY    CA327678   1.523   0.910   2.954 -0.1284  0.0011 -0.1451
17876THY    HA327679   1.485   0.986   3.022 -0.6410 -1.1243  0.6161
17876THY    CA427680   1.658   0.911   2.916 -0.0871  0.4074  0.2590
17876THY    HA427681   1.727   0.986   2.956  1.3864  1.1863 -1.4467
17876THY    CA527682   1.710   0.831   2.817  0.0645  0.3984  0.0614
17876THY    CM127683   1.856   0.835   2.776 -0.4964 -0.2736  0.3185
17876THY    HM127684   1.907   0.932   2.777  0.2935  2.8688 -0.0258
17876THY    HM227685   1.864   0.797   2.674 -1.7796 -0.6219  0.9304
17876THY    HM327686   1.918   0.761   2.828  0.1095 -1.1032  0.2277
17876THY    CA627687   1.626   0.744   2.752  0.5063 -0.2526 -0.4371
17876THY    HA627688   1.666   0.696   2.663 -1.3529 -1.6413  0.4120
17877THY      O27689   4.677   8.387   7.517  0.3436  0.3061 -0.2383
17877THY     HO27690   4.748   8.433   7.564  1.4707 -2.0742  0.6458
17877THY    CA127691   4.690   8.448   7.389 -0.4690 -0.4319 -0.0030
17877THY    CA227692   4.576   8.472   7.311  0.1426 -0.9759 -0.0335
17877THY    CP127693   4.438   8.445   7.363 -0.1373  0.2305 -0.0737
17877THY    HP127694   4.426   8.360   7.431 -0.9219 -0.6975 -0.7276
17877THY    CP227695   4.325   8.429   7.259  0.3267 -0.5873  0.3308
17877THY    HP227696   4.234   8.432   7.320  0.5216 -0.3268  2.3972
17877THY    HP327697   4.335   8.338   7.198  0.7139 -1.3923  0.9072
17877THY    HP427698   4.318   8.520   7.199 -1.9711  2.0089  2.0382
17877THY    CP327699   4.407   8.559   7.458 -0.2819  0.1472  0.2451
17877THY    HP527700   4.485   8.565   7.535 -0.5403  0.5088 -0.7628
17877THY    HP627701   4.314   8.522   7.503 -0.2932  0.8206  1.0799
17877THY    HP727702   4.388   8.655   7.409  0.5555  0.3803  0.5398
17877THY    CA327703   4.592   8.519   7.178  0.5581  0.2215 -0.2252
17877THY    HA327704   4.512   8.532   7.106  0.3565  0.2034 -1.4611
17877THY    CA427705   4.725   8.560   7.134 -0.1123  1.0292  0.1397
17877THY    HA427706   4.728   8.613   7.039 -0.4318  1.9038  1.7835
17877THY    CA527707   4.838   8.537   7.211 -0.5294  0.0274 -0.1506
17877THY    CM127708   4.976   8.567   7.153  0.2418  0.2897 -0.5411
17877THY    HM127709   4.975   8.664   7.102  4.0616 -0.9433 -0.9579
17877THY    HM227710   5.001   8.501   7.069  2.0141 -0.0199  0.4620
17877THY    HM327711   5.055   8.566   7.229  1.1279 -0.6032 -0.2052
17877THY    CA627712   4.820   8.489   7.347 -0.0742  0.1852  0.9191
17877THY    HA627713   4.908   8.489   7.410  0.1892 -0.1783  1.4457
17878THY      O27714   7.984   0.674   6.017 -0.5609  0.5005  0.5253
17878THY     HO27715   8.030   0.742   6.070  0.5949 -0.5819  0.6137
17878THY    CA127716   7.852   0.676   6.029 -0.2458 -0.3055  0.1962
17878THY    CA227717   7.782   0.555   6.002 -0.4264  0.1050  0.0822
17878THY    CP127718   7.848   0.427   5.973 -0.6361 -0.1852 -0.6978
17878THY    HP127719   7.955   0.437   5.993 -0.6611 -0.4736  0.1800
17878THY    CP227720   7.816   0.385   5.826 -0.4756 -0.4441  0.2195
17878THY    HP227721   7.713   0.353   5.808 -0.5895  1.1713 -0.4661
17878THY    HP327722   7.873   0.294   5.803 -0.4728 -0.9385  0.3471
17878THY    HP427723   7.847   0.462   5.755 -0.6646 -1.6047 -0.7376
17878THY    CP327724   7.816   0.323   6.086  0.1655 -0.0299 -0.3576
17878THY    HP527725   7.900   0.256   6.107 -0.5959  2.4795 -0.6453
17878THY    HP627726   7.725   0.272   6.053 -0.1725 -0.8154  0.6974
17878THY    HP727727   7.795   0.355   6.189 -1.3777 -0.3693 -0.2229
17878THY    CA327728   7.641   0.567   5.995  0.6610 -0.4243 -0.1854
17878THY    HA327729   7.581   0.485   5.956  0.6301  0.8620 -0.7964
17878THY    CA427730   7.579   0.686   6.036 -0.2794  0.0991  0.3616
17878THY    HA427731   7.471   0.686   6.023 -0.1840 -0.7673 -0.4933
17878THY    CA527732   7.651   0.799   6.073 -0.2587  0.3507 -0.1732
17878THY    CM127733   7.585   0.935   6.097 -0.4949 -0.3032  0.4032
17878THY    HM127734   7.599   0.976   6.198  2.7466 -0.3229 -0.4167
17878THY    HM227735   7.479   0.926   6.071 -0.1408 -2.3650  1.6022
17878THY    HM327736   7.642   1.006   6.036  0.9731  0.1933 -0.3340
17878THY    CA627737   7.789   0.791   6.074 -0.3210  0.3431 -0.1787
17878THY    HA627738   7.842   0.880   6.104 -2.0457  2.0723  0.3412
17879THY      O27739   5.492   5.812   6.857 -0.0258  0.2300 -0.1090
17879THY     HO27740   5.419   5.858   6.811  0.2717  0.5399  0.6967
17879THY    CA127741   5.443   5.697   6.901 -0.0285  0.2363 -0.0318
17879THY    CA227742   5.494   5.628   7.011  0.8967  0.1479  0.5223
17879THY    CP127743   5.614   5.684   7.088  0.1149  0.3542  0.2730
17879THY    HP127744   5.685   5.730   7.018  1.4296  1.3835 -0.1352
17879THY    CP227745   5.694   5.583   7.171  0.5741 -0.0909 -0.9777
17879THY    HP227746   5.780   5.633   7.218 -0.3537  0.0544  0.5421
17879THY    HP327747   5.745   5.515   7.102 -0.7334  0.0323 -2.1161
17879THY    HP427748   5.635   5.523   7.241 -0.3489 -1.6367 -1.9271
17879THY    CP327749   5.553   5.786   7.193 -0.4361  0.1529  0.5556
17879THY    HP527750   5.490   5.862   7.145 -1.1537  1.5439  0.8764
17879THY    HP627751   5.632   5.839   7.247 -1.0594  3.1532 -1.3402
17879THY    HP727752   5.491   5.727   7.261  1.3826  1.7524  0.3899
17879THY    CA327753   5.413   5.512   7.056  0.2184 -0.1949 -0.7634
17879THY    HA327754   5.447   5.449   7.138 -0.0402 -1.0579 -2.0776
17879THY    CA427755   5.302   5.473   6.985 -0.1045  0.2259 -0.5980
17879THY    HA427756   5.251   5.383   7.018  1.9001  0.5207 -1.6839
17879THY    CA527757   5.259   5.545   6.865  0.3907 -0.3925 -0.3410
17879THY    CM127758   5.146   5.499   6.780 -0.2272 -0.2859 -0.2927
17879THY    HM127759   5.180   5.413   6.721  2.3803 -1.1972  1.2074
17879THY    HM227760   5.116   5.581   6.713 -2.2691 -2.0333 -2.3313
17879THY    HM327761   5.059   5.473   6.841  1.2897  0.3251 -4.6450
17879THY    CA627762   5.330   5.658   6.824  0.4710  0.0777  0.6155
17879THY    HA627763   5.295   5.701   6.731  1.4488  0.3103  1.9539
17880THY      O27764   3.293   2.874   3.097  0.8778 -0.3703 -0.1435
17880THY     HO27765   3.218   2.904   3.152 -2.5116 -3.6775 -1.6773
17880THY    CA127766   3.270   2.933   2.981 -0.3406  0.7215  0.7051
17880THY    CA227767   3.329   2.889   2.862 -0.3826 -0.4246 -0.0355
17880THY    CP127768   3.398   2.764   2.854 -0.8362 -0.1369 -0.4839
17880THY    HP127769   3.440   2.733   2.950  1.5185 -0.4159  1.5670
17880THY    CP227770   3.511   2.753   2.751  0.1663 -0.0504  0.6588
17880THY    HP227771   3.472   2.742   2.649 -0.5182  0.2971 -0.2280
17880THY    HP327772   3.550   2.651   2.754 -0.9373 -1.0935  0.1717
17880THY    HP427773   3.595   2.822   2.764 -0.2271  2.4081  0.7870
17880THY    CP327774   3.292   2.661   2.829  0.0992 -0.3956  0.2284
17880THY    HP527775   3.248   2.662   2.729  0.5240 -0.5803  0.6360
17880THY    HP627776   3.206   2.679   2.895  0.3783  0.0176  0.0784
17880THY    HP727777   3.324   2.558   2.850  0.5090  0.0381  0.4407
17880THY    CA327778   3.329   2.977   2.748  0.0252  0.2773 -0.3325
17880THY    HA327779   3.358   2.943   2.649 -2.0453  0.3145 -2.4848
17880THY    CA427780   3.265   3.102   2.764  1.0183  0.6524 -0.0813
17880THY    HA427781   3.267   3.162   2.674 -2.9285  0.5078  0.0511
17880THY    CA527782   3.202   3.146   2.879  0.6235 -0.6430 -0.0654
17880THY    CM127783   3.148   3.290   2.886  0.4890  0.0094  0.5087
17880THY    HM127784   3.096   3.318   2.795 -2.4764  1.4566  0.0560
17880THY    HM227785   3.233   3.358   2.900  0.9281 -0.3631  0.0443
17880THY    HM327786   3.075   3.291   2.968 -0.1951 -0.5117 -1.4081
17880THY    CA627787   3.203   3.055   2.986  0.8364 -0.5920  0.5519
17880THY    HA627788   3.140   3.082   3.071  1.4025  0.0326 -0.0456
17881THY      O27789   2.267   7.413   3.435  0.0907  0.0445 -0.3110
17881THY     HO27790   2.317   7.420   3.352 -0.1070  0.0500  2.6961
17881THY    CA127791   2.187   7.308   3.429  0.2955 -0.6249  0.6550
17881THY    CA227792   2.067   7.296   3.494 -0.5736  0.1732 -0.7107
17881THY    CP127793   2.010   7.413   3.582  0.1757 -0.1134  0.7099
17881THY    HP127794   2.085   7.490   3.563  1.6605  0.2223 -0.6068
17881THY    CP227795   1.997   7.396   3.732 -0.1022  0.8245 -0.0734
17881THY    HP227796   1.956   7.295   3.743  0.3581 -0.0963 -0.3706
17881THY    HP327797   1.932   7.469   3.781 -0.4804 -0.1770  0.2785
17881THY    HP427798   2.096   7.402   3.779  0.5538 -0.4844 -0.3187
17881THY    CP327799   1.878   7.465   3.532 -0.1822  0.2205 -0.4894
17881THY    HP527800   1.893   7.494   3.428 -0.6336  0.2140 -0.2676
17881THY    HP627801   1.835   7.549   3.589  2.5083 -1.6357  2.3833
17881THY    HP727802   1.808   7.381   3.532 -1.9874  1.6646  0.9213
17881THY    CA327803   1.991   7.176   3.474  0.4220 -0.4988 -0.3018
17881THY    HA327804   1.896   7.161   3.524  1.3705  1.0687 -1.3674
17881THY    CA427805   2.035   7.067   3.390  0.1987  0.4124  0.2218
17881THY    HA427806   1.970   6.982   3.373  1.2295  0.7177 -0.6523
17881THY    CA527807   2.160   7.082   3.333  0.5332  0.5204 -0.3974
17881THY    CM127808   2.235   6.976   3.262 -0.2993  0.5704 -0.4014
17881THY    HM127809   2.160   6.899   3.240 -2.2909 -2.9769  2.2159
17881THY    HM227810   2.323   6.943   3.318  0.5980 -0.4734  0.1216
17881THY    HM327811   2.262   7.008   3.160  0.7239  1.2914  1.1895
17881THY    CA627812   2.230   7.198   3.351  0.2997  0.1061  0.2966
17881THY    HA627813   2.326   7.213   3.301  0.0853 -0.6678 -0.8072
17882THY      O27814   2.519   2.803   4.329  0.5675 -0.5795 -0.0227
17882THY     HO27815   2.460   2.872   4.365 -1.0827 -2.3796 -0.4041
17882THY    CA127816   2.506   2.820   4.195 -0.0134 -0.0608 -0.0175
17882THY    CA227817   2.565   2.737   4.099  0.1313  0.1339 -0.6688
17882THY    CP127818   2.661   2.625   4.142  0.4434 -0.4394  0.0536
17882THY    HP127819   2.667   2.630   4.251  2.4767 -0.4855 -0.7880
17882THY    CP227820   2.813   2.655   4.097  0.4364  0.2188  0.1795
17882THY    HP227821   2.873   2.571   4.136  0.7147  0.0050  0.2765
17882THY    HP327822   2.857   2.747   4.137  2.3923  0.1983 -0.6867
17882THY    HP427823   2.824   2.661   3.989 -0.6332  0.0539 -0.5335
17882THY    CP327824   2.623   2.486   4.097  0.3261  0.5135  0.3054
17882THY    HP527825   2.648   2.471   3.991 -3.2191 -0.2557 -1.4495
17882THY    HP627826   2.514   2.480   4.105  0.3873  1.1159 -0.0797
17882THY    HP727827   2.668   2.409   4.160  2.9181 -1.0000  0.4593
17882THY    CA327828   2.543   2.759   3.963 -0.1800 -0.2530  0.0707
17882THY    HA327829   2.581   2.693   3.886  2.3053 -0.9591  2.1839
17882THY    CA427830   2.458   2.869   3.931  0.1279  0.4867  0.3322
17882THY    HA427831   2.437   2.880   3.824 -0.9486  0.7014  0.5011
17882THY    CA527832   2.408   2.959   4.023 -0.0924  0.1124  0.7423
17882THY    CM127833   2.325   3.082   3.988  0.2176  0.8503  0.0557
17882THY    HM127834   2.360   3.127   3.895  0.9951  1.5719  0.9876
17882THY    HM227835   2.319   3.161   4.064  1.7930 -0.7794  1.8370
17882THY    HM327836   2.220   3.056   3.969  0.1126 -1.8707  1.9689
17882THY    CA627837   2.428   2.930   4.155  0.3016 -0.4069 -0.4764
17882THY    HA627838   2.379   2.988   4.232 -2.1142 -2.9593  1.1450
17883THY      O27839   1.439   0.770   7.831  0.2825 -0.2598 -0.0665
17883THY     HO27840   1.407   0.813   7.750  1.5440 -0.3753  0.7021
17883THY    CA127841   1.390   0.643   7.821  0.2470  0.4172  0.0017
17883THY    CA227842   1.452   0.538   7.884 -0.7502  0.6496  0.3700
17883THY    CP127843   1.597   0.560   7.955 -0.0612 -0.2362  0.1213
17883THY    HP127844   1.652   0.645   7.913  2.0898  2.1127 -0.0205
17883THY    CP227845   1.692   0.441   7.922 -0.0574  0.1167  0.4671
17883THY    HP227846   1.798   0.462   7.937  0.2155 -1.2500  0.2002
17883THY    HP327847   1.688   0.408   7.817  2.4161  1.0382 -3.5088
17883THY    HP427848   1.664   0.344   7.965  0.1923 -0.0383  0.3252
17883THY    CP327849   1.582   0.594   8.103  0.2087 -0.1193 -0.6799
17883THY    HP527850   1.535   0.512   8.158  0.9977  1.0745 -0.3603
17883THY    HP627851   1.516   0.682   8.108  1.4252  1.2437  0.2099
17883THY    HP727852   1.682   0.617   8.141  0.2881 -0.3212 -0.6879
17883THY    CA327853   1.399   0.403   7.870  0.2214  0.6406 -0.3430
17883THY    HA327854   1.454   0.319   7.910  0.5832  3.4269  1.0895
17883THY    CA427855   1.278   0.384   7.794  0.2882  0.0640  0.7379
17883THY    HA427856   1.240   0.285   7.769  1.0029 -0.4236  0.5800
17883THY    CA527857   1.224   0.502   7.732  0.1139  0.3860  0.4525
17883THY    CM127858   1.113   0.493   7.639 -0.7057 -0.1452  0.0010
17883THY    HM127859   1.034   0.559   7.675 -0.4704  1.3968 -0.5167
17883THY    HM227860   1.065   0.395   7.634 -0.4819  2.8389 -0.3582
17883THY    HM327861   1.149   0.519   7.539  1.8929  0.2425 -1.6813
17883THY    CA627862   1.282   0.626   7.743  0.4492 -0.1407  0.3415
17883THY    HA627863   1.232   0.711   7.697  0.6513  0.2333  0.6659
17884THY      O27864   4.931   2.495   3.637  0.2403  0.9987  0.3786
17884THY     HO27865   5.005   2.497   3.701 -0.6909  2.0782  1.8752
17884THY    CA127866   4.980   2.543   3.525  0.1338  0.5421  0.3308
17884THY    CA227867   4.902   2.551   3.409 -0.1566 -0.0919 -0.1242
17884THY    CP127868   4.746   2.529   3.414  0.3145 -0.2907 -0.2547
17884THY    HP127869   4.723   2.521   3.521  2.4449  0.3335  1.1474
17884THY    CP227870   4.694   2.402   3.356 -0.1219 -0.3083  0.4271
17884THY    HP227871   4.760   2.318   3.384 -0.9299  3.1676  0.8103
17884THY    HP327872   4.690   2.407   3.246 -3.3968 -0.3141 -0.3065
17884THY    HP427873   4.597   2.373   3.397  1.1687  2.2307 -0.6459
17884THY    CP327874   4.663   2.652   3.365  0.5011 -0.2494  0.1390
17884THY    HP527875   4.613   2.620   3.273  1.5844 -0.9944  0.5222
17884THY    HP627876   4.719   2.744   3.344  1.5756  0.5130 -0.3291
17884THY    HP727877   4.583   2.675   3.436  0.8797 -0.1180  1.1044
17884THY    CA327878   4.963   2.605   3.292 -0.8706  0.4181  0.2868
17884THY    HA327879   4.901   2.638   3.209 -0.5340 -0.3146 -0.8443
17884THY    CA427880   5.101   2.634   3.289 -0.3963  0.0225  0.1574
17884THY    HA427881   5.149   2.687   3.207  1.0378  1.6959  1.6019
17884THY    CA527882   5.178   2.620   3.411 -0.4281 -0.0520  0.5221
17884THY    CM127883   5.326   2.644   3.415  0.1061 -0.4713 -0.1029
17884THY    HM127884   5.341   2.714   3.498 -2.0260 -0.4949  0.4514
17884THY    HM227885   5.345   2.692   3.318 -0.5535  0.3225  1.8410
17884THY    HM327886   5.381   2.549   3.420 -0.8005  0.3605 -0.6094
17884THY    CA627887   5.117   2.569   3.524  0.1001 -0.4499  0.3798
17884THY    HA627888   5.176   2.554   3.613  1.3307 -1.3494 -0.2594
17885THY      O27889   3.736   5.995   3.547 -0.0071  0.2006 -0.2669
17885THY     HO27890   3.730   6.005   3.450  1.1725  0.0640 -0.7514
17885THY    CA127891   3.619   5.931   3.576  0.1035 -0.3423 -0.3418
17885THY    CA227892   3.595   5.880   3.709 -0.1105  0.2019 -0.5159
17885THY    CP127893   3.696   5.895   3.821  0.2401 -0.2267 -0.6429
17885THY    HP127894   3.730   5.999   3.811 -3.9831 -1.3847  0.8613
17885THY    CP227895   3.819   5.803   3.797 -0.8346 -0.1952  0.2480
17885THY    HP227896   3.778   5.704   3.774 -0.8226 -1.1278  0.4470
17885THY    HP327897   3.874   5.784   3.890 -1.6216  0.2419  0.1112
17885THY    HP427898   3.889   5.835   3.718 -0.3640 -0.0813 -0.4486
17885THY    CP327899   3.640   5.881   3.964  0.2831 -0.6461 -0.0317
17885THY    HP527900   3.645   5.777   3.997 -0.4265  1.0540  0.4431
17885THY    HP627901   3.534   5.906   3.969  0.6776  2.6270  1.4454
17885THY    HP727902   3.684   5.945   4.042 -1.3381  0.3686 -0.1133
17885THY    CA327903   3.475   5.808   3.724  0.1420 -0.2272 -0.4817
17885THY    HA327904   3.463   5.762   3.822  1.6576  0.1990 -0.0246
17885THY    CA427905   3.381   5.790   3.617 -0.4289  0.0189 -0.3942
17885THY    HA427906   3.290   5.736   3.642 -0.3932 -0.2447 -0.5768
17885THY    CA527907   3.404   5.851   3.491  0.4264  0.2475  0.7681
17885THY    CM127908   3.314   5.833   3.374  0.7115  0.5897 -0.9404
17885THY    HM127909   3.224   5.893   3.389 -0.6760 -1.0690 -2.4798
17885THY    HM227910   3.290   5.726   3.360  3.6675  0.9272 -1.7348
17885THY    HM327911   3.359   5.873   3.282 -3.6775  0.2289  4.2606
17885THY    CA627912   3.523   5.931   3.482 -0.1815 -0.2647 -0.7002
17885THY    HA627913   3.542   5.979   3.386  1.8350  0.8734  0.9226
17886THY      O27914   4.656   5.936   1.770 -0.0926 -0.0004  0.2323
17886THY     HO27915   4.607   6.017   1.745 -0.9187 -0.4872 -0.4014
17886THY    CA127916   4.787   5.975   1.764  0.3159  0.4746 -0.0333
17886THY    CA227917   4.891   5.901   1.820 -0.7924 -0.1974  0.4139
17886THY    CP127918   4.862   5.766   1.886  0.8978 -0.2402  0.4059
17886THY    HP127919   4.756   5.745   1.900  0.6950 -1.6670  0.4021
17886THY    CP227920   4.935   5.744   2.023 -0.0972 -0.2389 -0.1920
17886THY    HP227921   5.041   5.740   1.995  0.0129 -0.2086  1.7451
17886THY    HP327922   4.891   5.656   2.071  0.4354  0.5953 -0.0124
17886THY    HP427923   4.924   5.836   2.082  1.1488 -1.6599  0.9351
17886THY    CP327924   4.894   5.648   1.790 -0.5615  0.6450 -0.1607
17886THY    HP527925   4.841   5.655   1.694  0.3519 -0.3236 -4.2648
17886THY    HP627926   4.880   5.558   1.851 -1.3400  0.0492 -0.4511
17886THY    HP727927   4.998   5.674   1.767 -1.3529 -0.3278  2.4817
17886THY    CA327928   5.022   5.953   1.809  1.1918  0.3005 -0.1385
17886THY    HA327929   5.101   5.899   1.862  0.6025 -0.1343 -1.4796
17886THY    CA427930   5.046   6.069   1.743 -0.6929  0.3513 -0.1278
17886THY    HA427931   5.148   6.103   1.724 -0.8729  0.1560  0.3110
17886THY    CA527932   4.937   6.146   1.690 -0.2671  0.6184 -0.2363
17886THY    CM127933   4.959   6.283   1.635 -0.1679  0.2293  0.3914
17886THY    HM127934   4.896   6.354   1.689 -0.3157 -1.6558  1.7812
17886THY    HM227935   4.942   6.290   1.527  0.3920  0.0754 -0.4724
17886THY    HM327936   5.066   6.306   1.642  0.1333 -1.1202 -0.4542
17886THY    CA627937   4.806   6.095   1.700 -0.2843  0.4162  0.1357
17886THY    HA627938   4.728   6.161   1.663  0.8702 -0.8571  0.8501
17887THY      O27939   5.212   8.368   3.136 -0.4818  0.0025 -0.3708
17887THY     HO27940   5.136   8.427   3.121 -1.3643 -0.9530 -1.6633
17887THY    CA127941   5.161   8.244   3.119 -0.2210 -0.2879  0.7824
17887THY    CA227942   5.233   8.137   3.093 -0.2439 -0.0874  0.1532
17887THY    CP127943   5.385   8.158   3.072  0.7017 -0.2885  0.3613
17887THY    HP127944   5.411   8.263   3.056  0.4756 -1.9687  0.1779
17887THY    CP227945   5.417   8.085   2.937 -0.1391  0.1194 -0.5074
17887THY    HP227946   5.522   8.097   2.907  0.2097  1.0258 -1.1269
17887THY    HP327947   5.358   8.113   2.849 -2.1331  1.2345 -0.9906
17887THY    HP427948   5.400   7.978   2.955  0.0769  0.0144 -0.5607
17887THY    CP327949   5.476   8.109   3.184  0.1000 -0.2761  0.4892
17887THY    HP527950   5.428   8.127   3.281 -0.2688 -0.5750  1.1567
17887THY    HP627951   5.572   8.162   3.192 -1.1774 -2.4764  3.4038
17887THY    HP727952   5.491   8.000   3.178 -1.4905  1.5309  0.1040
17887THY    CA327953   5.172   8.010   3.086 -0.3151 -0.1620 -0.2796
17887THY    HA327954   5.231   7.920   3.078  1.4891 -2.5725  1.0101
17887THY    CA427955   5.037   7.995   3.119  0.1970  0.7320 -0.6063
17887THY    HA427956   5.000   7.893   3.121  1.5726  2.8381 -1.1241
17887THY    CA527957   4.964   8.108   3.149  0.5710  0.3567 -0.0619
17887THY    CM127958   4.819   8.094   3.198  0.2519 -0.2319 -0.0258
17887THY    HM127959   4.832   8.087   3.306 -2.8869  0.1706 -1.2939
17887THY    HM227960   4.768   8.004   3.161 -2.3847 -0.5202  1.5069
17887THY    HM327961   4.757   8.181   3.175 -0.3911  1.4800  0.0105
17887THY    CA627962   5.021   8.232   3.143 -0.3522 -0.6252 -0.1111
17887THY    HA627963   4.960   8.320   3.161 -2.0653 -1.1489 -1.1377
17888THY      O27964   7.423   6.536   6.715 -0.1684  0.2916 -0.2754
17888THY     HO27965   7.380   6.453   6.689  1.7601 -0.6749 -1.0354
17888THY    CA127966   7.480   6.502   6.829 -0.9991  0.1402 -0.2243
17888THY    CA227967   7.574   6.591   6.897 -0.4711 -0.6103 -0.2074
17888THY    CP127968   7.621   6.723   6.828 -0.6839  0.2950  0.3916
17888THY    HP127969   7.528   6.763   6.787 -0.7073 -0.0156  0.0202
17888THY    CP227970   7.717   6.700   6.713  0.2247  0.5408 -0.0706
17888THY    HP227971   7.662   6.623   6.657  0.3889  0.8786 -0.4398
17888THY    HP327972   7.811   6.654   6.746 -0.6453  2.3181 -0.6754
17888THY    HP427973   7.731   6.795   6.661 -0.1867 -1.3763 -1.0027
17888THY    CP327974   7.676   6.835   6.917 -0.3860  0.4228  0.5072
17888THY    HP527975   7.597   6.860   6.988 -1.9457 -0.5018 -1.4558
17888THY    HP627976   7.707   6.922   6.857 -0.8639 -0.7603 -0.1072
17888THY    HP727977   7.770   6.806   6.965  0.2566 -1.0058  0.1310
17888THY    CA327978   7.627   6.554   7.022 -0.3077  0.2672 -0.3770
17888THY    HA327979   7.686   6.625   7.080 -1.7525 -1.3710  2.3326
17888THY    CA427980   7.603   6.426   7.077 -0.0578 -0.1162  0.0342
17888THY    HA427981   7.649   6.391   7.169  0.2940 -0.7598 -1.2508
17888THY    CA527982   7.518   6.343   7.010  0.3354  0.0695  1.0952
17888THY    CM127983   7.479   6.210   7.077  0.3375  0.0047  0.0138
17888THY    HM127984   7.373   6.187   7.060  0.1642  0.8329  0.1825
17888THY    HM227985   7.482   6.220   7.186 -1.5033  0.5606 -3.6318
17888THY    HM327986   7.544   6.127   7.048 -0.2877 -0.0988 -0.4460
17888THY    CA627987   7.456   6.371   6.891 -0.8704 -0.5551 -0.4323
17888THY    HA627988   7.390   6.302   6.839  0.0766 -1.4463 -0.6859
17889THY      O27989   4.613   5.529   7.609 -0.1836  0.4732  0.1549
17889THY     HO27990   4.651   5.580   7.683 -3.2060  0.3344  2.9466
17889THY    CA127991   4.491   5.501   7.660  0.0582 -1.0182  0.1257
17889THY    CA227992   4.378   5.499   7.583  0.2500 -0.3393 -0.3277
17889THY    CP127993   4.369   5.529   7.429 -0.0949  0.2592 -0.5647
17889THY    HP127994   4.470   5.544   7.389 -0.5819 -0.6923  0.3211
17889THY    CP227995   4.292   5.663   7.399  0.4399  0.3077  0.0364
17889THY    HP227996   4.274   5.685   7.293 -1.6273  0.6169  0.0495
17889THY    HP327997   4.327   5.756   7.446 -0.1807  0.4787  0.1925
17889THY    HP427998   4.188   5.667   7.434  0.4423  0.4576  4.4664
17889THY    CP327999   4.303   5.419   7.349  0.5036 -0.1906  0.1870
17889THY    HP528000   4.292   5.454   7.246 -1.3717 -0.1345 -0.1406
17889THY    HP628001   4.198   5.400   7.375  0.3405 -1.6095 -1.1083
17889THY    HP728002   4.350   5.320   7.360 -1.1763 -1.9668 -0.8862
17889THY    CA328003   4.265   5.462   7.650 -0.2448 -0.3626 -0.0368
17889THY    HA328004   4.169   5.469   7.601 -0.9277  0.7013 -1.5021
17889THY    CA428005   4.257   5.435   7.786 -0.4956 -0.7923 -0.5161
17889THY    HA428006   4.158   5.430   7.832 -0.1938 -0.1281 -0.5331
17889THY    CA528007   4.375   5.438   7.864 -0.2792  0.4053  0.0787
17889THY    CM128008   4.363   5.397   8.012 -0.3168 -0.3596  0.1948
17889THY    HM128009   4.464   5.383   8.053 -1.5195  2.3546 -1.5373
17889THY    HM228010   4.323   5.297   8.031  0.1569  0.8012  0.2004
17889THY    HM328011   4.315   5.470   8.079  2.8956  2.6176 -0.1353
17889THY    CA628012   4.496   5.465   7.796  0.0111 -0.1095  0.3586
17889THY    HA628013   4.592   5.463   7.847 -0.3580  0.9827  3.8866
17890THY      O28014   3.400   3.476   6.695 -0.3351 -0.1801 -0.1974
17890THY     HO28015   3.475   3.446   6.641  0.2448  1.0108 -0.9481
17890THY    CA128016   3.391   3.399   6.807  0.1127  0.2131 -0.1884
17890THY    CA228017   3.374   3.451   6.939 -0.4186 -0.1276  0.8303
17890THY    CP128018   3.365   3.604   6.957 -0.3760  0.1221  0.2351
17890THY    HP128019   3.347   3.651   6.860  2.3434 -0.5240  0.1002
17890THY    CP228020   3.494   3.665   7.010 -0.7102 -0.0213 -0.5986
17890THY    HP228021   3.498   3.683   7.118  1.5162 -0.0864 -0.4255
17890THY    HP328022   3.503   3.761   6.956  0.4111 -1.3316 -1.4146
17890THY    HP428023   3.584   3.611   6.979  0.1977 -0.6472  1.1884
17890THY    CP328024   3.250   3.657   7.041  0.1729  0.6686  0.8475
17890THY    HP528025   3.250   3.766   7.025  2.2651  0.3140  0.8333
17890THY    HP628026   3.279   3.626   7.142  1.4525 -0.1414 -0.7153
17890THY    HP728027   3.155   3.608   7.018 -0.4742  0.6918  2.0428
17890THY    CA328028   3.379   3.358   7.053 -0.7174  0.2673 -0.2048
17890THY    HA328029   3.368   3.394   7.155 -0.0935 -0.7625  3.2758
17890THY    CA428030   3.389   3.225   7.022 -0.1006 -0.3359  0.2969
17890THY    HA428031   3.395   3.150   7.100 -2.3478 -0.6768 -0.3033
17890THY    CA528032   3.410   3.175   6.891  0.0330  0.0155  0.0481
17890THY    CM128033   3.402   3.029   6.865 -0.2484  0.1128  1.1785
17890THY    HM128034   3.501   2.985   6.878 -0.9712 -0.6409 -0.7966
17890THY    HM228035   3.371   3.017   6.760 -0.8965  0.4879 -0.6448
17890THY    HM328036   3.324   2.980   6.924  1.5359  0.7351 -1.0629
17890THY    CA628037   3.421   3.263   6.785  0.3855  0.1112  0.8272
17890THY    HA628038   3.464   3.231   6.690 -1.3980  0.3178 -2.6275
17891THY      O28039   1.985   3.684   3.729  0.4244  0.3537 -0.0146
17891THY     HO28040   1.974   3.675   3.825  0.2541  0.7465  3.2182
17891THY    CA128041   1.895   3.785   3.710 -0.2411 -0.5418  0.2771
17891THY    CA228042   1.818   3.797   3.595 -0.0079 -0.8949 -0.0641
17891THY    CP128043   1.831   3.703   3.482  0.0193  0.2648  0.5066
17891THY    HP128044   1.900   3.620   3.498 -0.9759 -1.5552 -0.7533
17891THY    CP228045   1.862   3.786   3.354 -0.4422 -0.0940 -0.3783
17891THY    HP228046   1.967   3.814   3.358 -0.8085  1.8411  0.8925
17891THY    HP328047   1.795   3.870   3.332 -0.6955 -0.5685 -0.6984
17891THY    HP428048   1.862   3.718   3.268 -1.6974 -1.4513  1.2504
17891THY    CP328049   1.703   3.631   3.463 -0.8236 -0.1968  0.2096
17891THY    HP528050   1.706   3.540   3.524  0.5861 -0.0600  0.3196
17891THY    HP628051   1.696   3.606   3.357  3.2977 -0.1346 -2.2195
17891THY    HP728052   1.615   3.688   3.495 -0.3941 -2.1929  2.0918
17891THY    CA328053   1.718   3.904   3.592  0.1782  0.1663  0.3929
17891THY    HA328054   1.649   3.921   3.509  0.7968 -0.1538  1.4254
17891THY    CA428055   1.706   3.998   3.696  0.0486  0.2024 -0.7340
17891THY    HA428056   1.626   4.071   3.687 -0.5382 -0.7524 -1.4658
17891THY    CA528057   1.778   3.979   3.810  0.0468  0.5814 -0.1674
17891THY    CM128058   1.766   4.077   3.932  0.4975 -0.0348  0.1205
17891THY    HM128059   1.869   4.111   3.949  0.3888 -0.8089  0.8612
17891THY    HM228060   1.723   4.030   4.021 -1.6466  0.4754  2.7559
17891THY    HM328061   1.712   4.172   3.920 -3.8872 -0.3171 -2.1708
17891THY    CA628062   1.885   3.882   3.812 -0.0194  0.5150 -0.2722
17891THY    HA628063   1.948   3.882   3.900 -1.1535  1.3704  1.0297
17892THY      O28064   4.670   8.524   4.955  0.1814  0.1376 -0.2287
17892THY     HO28065   4.720   8.464   4.897 -0.0237 -0.9131  0.5993
17892THY    CA128066   4.631   8.625   4.885  0.6399 -0.4219  0.1094
17892THY    CA228067   4.591   8.745   4.942 -0.0864 -0.0814 -0.3136
17892THY    CP128068   4.600   8.760   5.095  0.2803  0.3033 -0.2840
17892THY    HP128069   4.666   8.682   5.134 -1.8213  1.3212 -1.6481
17892THY    CP228070   4.463   8.744   5.161  0.5062 -0.3774 -0.0765
17892THY    HP228071   4.459   8.780   5.265 -3.1288 -0.7720  1.1082
17892THY    HP328072   4.444   8.636   5.166 -0.2811  1.0856  0.0977
17892THY    HP428073   4.386   8.791   5.098  0.6857 -2.1189 -1.9719
17892THY    CP328074   4.667   8.893   5.141  0.0554  0.8572 -0.0994
17892THY    HP528075   4.770   8.905   5.105 -0.2155 -0.3056 -1.0007
17892THY    HP628076   4.663   8.910   5.249 -0.5368  0.3198  4.2215
17892THY    HP728077   4.606   8.977   5.107  1.1132  1.1474  0.8141
17892THY    CA328078   4.555   8.849   4.856 -0.0288  0.3933  0.0588
17892THY    HA328079   4.513   8.939   4.901  0.6978  0.2403  0.4845
17892THY    CA428080   4.571   8.832   4.720 -0.0902  0.5246 -0.3233
17892THY    HA428081   4.547   8.916   4.657  0.1854 -2.8570 -2.6014
17892THY    CA528082   4.600   8.707   4.666 -0.2644  0.0721 -0.0003
17892THY    CM128083   4.595   8.689   4.521 -0.5072  0.3936  0.8627
17892THY    HM128084   4.680   8.739   4.472 -1.3134 -1.4617  0.5113
17892THY    HM228085   4.497   8.707   4.475 -0.1450 -1.8520 -2.1522
17892THY    HM328086   4.621   8.587   4.491  0.6111  0.1622  1.1998
17892THY    CA628087   4.628   8.600   4.749  0.4557 -0.0149 -0.0713
17892THY    HA628088   4.654   8.500   4.715 -3.0168 -1.4225 -0.6169
17893THY      O28089   3.587   2.259   3.767 -0.3321 -0.6511  0.4010
17893THY     HO28090   3.662   2.245   3.707  0.3365  0.5616 -1.6966
17893THY    CA128091   3.612   2.366   3.838 -0.0352 -1.0798 -0.6392
17893THY    CA228092   3.513   2.428   3.919 -0.4787 -0.2084  0.6132
17893THY    CP128093   3.369   2.359   3.931 -0.3247  0.6662  0.1573
17893THY    HP128094   3.349   2.313   3.833  0.1451 -1.0061  3.1945
17893THY    CP228095   3.252   2.454   3.938  0.4940 -0.0139 -0.6270
17893THY    HP228096   3.266   2.520   4.025 -0.9800  0.4355 -0.8589
17893THY    HP328097   3.162   2.392   3.945 -0.2034  0.6817  0.4269
17893THY    HP428098   3.250   2.514   3.846  1.0083  1.2087  1.3516
17893THY    CP328099   3.366   2.260   4.047  0.3630  0.5962  0.0289
17893THY    HP528100   3.435   2.185   4.005  0.3720 -0.5480  0.6637
17893THY    HP628101   3.272   2.204   4.050  1.3362 -1.2270 -1.8567
17893THY    HP728102   3.390   2.294   4.148  0.7733  0.2385  0.8198
17893THY    CA328103   3.548   2.536   3.995  0.9479  0.4854 -0.1238
17893THY    HA328104   3.472   2.574   4.062 -0.7245 -1.6639  0.4938
17893THY    CA428105   3.675   2.594   3.984  0.0628 -0.4180 -0.2327
17893THY    HA428106   3.709   2.683   4.037 -0.9916 -3.5193  2.1929
17893THY    CA528107   3.771   2.538   3.899  0.6053 -0.6912 -0.0158
17893THY    CM128108   3.911   2.598   3.879  0.2393 -0.4303  0.2835
17893THY    HM128109   3.909   2.690   3.820 -1.2122 -0.2543  0.3863
17893THY    HM228110   3.988   2.531   3.840  0.6883  1.8181 -0.6202
17893THY    HM328111   3.954   2.635   3.972 -0.5112 -1.1165  3.0955
17893THY    CA628112   3.739   2.422   3.830  1.0462  0.4802 -0.0713
17893THY    HA628113   3.818   2.356   3.795  0.5370  0.9709 -0.9514
17894THY      O28114   7.987   9.167   3.789 -0.2568  0.2371 -0.7170
17894THY     HO28115   7.901   9.158   3.832 -0.8028 -0.5692  0.3070
17894THY    CA128116   7.962   9.144   3.660 -0.0378 -0.4560  0.7431
17894THY    CA228117   8.056   9.146   3.557  0.3175  0.1113  0.4853
17894THY    CP128118   8.201   9.185   3.593  0.3158 -0.3511  0.5424
17894THY    HP128119   8.214   9.200   3.701 -0.7090 -0.2099  0.4887
17894THY    CP228120   8.231   9.319   3.524  0.4058  0.2098 -0.7291
17894THY    HP228121   8.338   9.342   3.533  0.1559  1.1204  0.1393
17894THY    HP328122   8.172   9.403   3.563  0.7251  1.7341 -1.1708
17894THY    HP428123   8.211   9.315   3.416 -0.3158  0.2798  0.3810
17894THY    CP328124   8.301   9.082   3.550 -0.4470 -0.1586 -0.0424
17894THY    HP528125   8.302   9.079   3.440 -2.9041 -0.2504  0.6135
17894THY    HP628126   8.274   8.980   3.581 -1.1898 -1.2246 -0.1796
17894THY    HP728127   8.404   9.108   3.579 -0.4892 -0.5520  0.5834
17894THY    CA328128   8.020   9.093   3.425 -0.2204  0.1474 -0.9404
17894THY    HA328129   8.082   9.086   3.336 -0.1105  0.1101  0.2964
17894THY    CA428130   7.888   9.066   3.398  0.3764  0.0085 -0.5931
17894THY    HA428131   7.852   9.031   3.301  0.1995 -0.8273  1.7152
17894THY    CA528132   7.795   9.080   3.503  0.3009 -0.5749 -0.5113
17894THY    CM128133   7.653   9.054   3.478  0.4529  0.4661  0.2551
17894THY    HM128134   7.581   9.070   3.559  0.0796  0.2463 -0.2918
17894THY    HM228135   7.634   8.959   3.428 -2.2127 -1.4984  1.6922
17894THY    HM328136   7.622   9.129   3.405 -1.3649  0.0369 -0.8650
17894THY    CA628137   7.833   9.107   3.635 -0.2357  0.0143 -0.7978
17894THY    HA628138   7.763   9.111   3.717  0.3681  0.6400 -2.3888
17895THY      O28139   9.215   0.952   2.125  0.5450 -0.3230 -0.3523
17895THY     HO28140   9.273   0.913   2.192  1.0554 -0.4972  0.0893
17895THY    CA128141   9.105   0.870   2.113 -0.0780  0.3998 -0.5236
17895THY    CA228142   8.988   0.925   2.060  0.1640 -0.0217 -0.4267
17895THY    CP128143   8.985   1.077   2.015  0.1717 -0.1969 -0.5938
17895THY    HP128144   9.074   1.131   2.050 -0.1403  1.5819 -1.1566
17895THY    CP228145   8.865   1.159   2.065 -0.2666 -0.3515 -0.4543
17895THY    HP228146   8.864   1.154   2.175  3.0894 -0.2271 -0.5633
17895THY    HP328147   8.769   1.120   2.028 -0.0273 -0.5963 -0.8154
17895THY    HP428148   8.878   1.264   2.037 -0.5378 -0.8821 -0.5569
17895THY    CP328149   8.992   1.074   1.860 -0.0222 -0.1696  0.1024
17895THY    HP528150   8.914   1.005   1.823 -0.8614 -0.9015  1.4004
17895THY    HP628151   9.086   1.028   1.828  0.1721  0.0713  0.3317
17895THY    HP728152   8.996   1.177   1.824 -4.1539  0.9557  0.8350
17895THY    CA328153   8.877   0.841   2.050 -0.2727  0.6443 -0.5688
17895THY    HA328154   8.783   0.888   2.020  0.0764  0.7355  0.2015
17895THY    CA428155   8.889   0.708   2.090  0.1856  0.3631 -0.6251
17895THY    HA428156   8.805   0.639   2.095  0.0145  3.5278 -0.3248
17895THY    CA528157   9.007   0.654   2.146  0.0413  0.2356 -0.2649
17895THY    CM128158   9.013   0.508   2.179 -0.5527 -0.2980 -0.3649
17895THY    HM128159   9.099   0.479   2.242 -0.1202 -0.3557  0.7261
17895THY    HM228160   9.008   0.447   2.088  1.7002  0.1125 -1.2650
17895THY    HM328161   8.923   0.492   2.239 -1.2907 -1.0435  0.8412
17895THY    CA628162   9.119   0.737   2.153 -0.3777  0.9120 -0.3649
17895THY    HA628163   9.218   0.702   2.183 -0.9018  0.5742 -2.2692
17896THY      O28164   6.903   4.538   7.450  0.5131 -0.7024 -0.4497
17896THY     HO28165   6.902   4.632   7.477 -1.0530 -3.7180  0.5180
17896THY    CA128166   6.848   4.477   7.556 -0.3328 -0.2613 -0.0923
17896THY    CA228167   6.827   4.341   7.563  0.6017  0.7477  0.9165
17896THY    CP128168   6.871   4.242   7.444 -0.5729 -0.2249 -0.4000
17896THY    HP128169   6.899   4.298   7.354  0.8277  0.7651  0.5623
17896THY    CP228170   6.748   4.150   7.405 -0.8911 -0.0895 -0.2264
17896THY    HP228171   6.658   4.209   7.386 -0.2096 -3.1058 -0.0002
17896THY    HP328172   6.718   4.081   7.484 -0.7015  1.3700  1.3064
17896THY    HP428173   6.768   4.098   7.310  1.1616  1.5042 -2.6335
17896THY    CP328174   7.000   4.165   7.480 -0.2755  0.3285 -0.0276
17896THY    HP528175   7.085   4.234   7.476 -0.1187  0.0130 -0.2373
17896THY    HP628176   7.021   4.088   7.405  1.2748  1.0709 -0.3529
17896THY    HP728177   6.995   4.115   7.578 -0.7117  0.6641  0.6596
17896THY    CA328178   6.773   4.291   7.685  0.5026 -0.0069  0.1599
17896THY    HA328179   6.772   4.183   7.701  0.1467  1.7253  0.3820
17896THY    CA428180   6.743   4.381   7.787 -0.0086 -0.1191  0.6065
17896THY    HA428181   6.706   4.345   7.883  0.1297 -0.4108 -0.3312
17896THY    CA528182   6.760   4.517   7.770 -0.5611 -0.3392  0.0581
17896THY    CM128183   6.725   4.619   7.865  0.1713  0.2357 -0.1083
17896THY    HM128184   6.651   4.686   7.820  2.0406  2.5938  3.9654
17896THY    HM228185   6.807   4.690   7.882  0.1970 -3.8367  1.0637
17896THY    HM328186   6.690   4.580   7.962 -1.6623 -0.9355 -1.5255
17896THY    CA628187   6.815   4.563   7.653 -0.0838  0.3696  0.5048
17896THY    HA628188   6.831   4.670   7.648  0.1655  1.0918  0.5071
17897THY      O28189   8.899   8.690   3.306  0.8688 -0.2413 -0.6687
17897THY     HO28190   8.889   8.738   3.222 -1.4087 -0.3164 -1.1474
17897THY    CA128191   9.036   8.671   3.324 -0.6960  0.8960 -0.1908
17897THY    CA228192   9.100   8.546   3.289 -0.6725 -0.6650  0.4094
17897THY    CP128193   9.024   8.426   3.262  0.3846  0.1072 -0.5072
17897THY    HP128194   8.916   8.445   3.257  0.6780  0.5025  1.5617
17897THY    CP228195   9.043   8.326   3.369  0.0952 -0.8515  0.1804
17897THY    HP228196   8.978   8.351   3.454 -4.0276 -3.2719 -1.2739
17897THY    HP328197   9.144   8.316   3.409 -0.5736  0.7185 -0.8059
17897THY    HP428198   9.008   8.226   3.339 -0.4137 -0.8923  0.3653
17897THY    CP328199   9.072   8.358   3.133 -0.2907 -0.3304  0.4074
17897THY    HP528200   9.074   8.441   3.063  0.2956  0.2521  0.8963
17897THY    HP628201   8.998   8.284   3.098 -1.4042  2.6783 -0.0771
17897THY    HP728202   9.175   8.322   3.138 -0.4981  2.3510 -0.0848
17897THY    CA328203   9.242   8.547   3.303 -0.0375 -0.3945  1.3170
17897THY    HA328204   9.286   8.447   3.296 -2.0943 -1.1669  0.4192
17897THY    CA428205   9.315   8.659   3.337 -0.1514  0.2841  0.4235
17897THY    HA428206   9.423   8.650   3.342  0.0001  0.3373  2.0050
17897THY    CA528207   9.251   8.775   3.371  0.0610  0.0943  0.0411
17897THY    CM128208   9.335   8.896   3.403  0.4575  0.5685  0.3113
17897THY    HM128209   9.400   8.912   3.316  1.6738  0.8082 -2.7230
17897THY    HM228210   9.403   8.875   3.485  1.0077  0.1073  0.2726
17897THY    HM328211   9.271   8.979   3.434 -2.0973 -0.2717 -1.2248
17897THY    CA628212   9.109   8.781   3.362 -0.5525 -0.5787 -0.1411
17897THY    HA628213   9.072   8.882   3.372  2.4210  1.7889  0.8578
17898THY      O28214   3.008   0.625   3.906 -0.1068 -0.0614 -0.0619
17898THY     HO28215   3.090   0.594   3.947 -0.0401 -0.8007 -0.9108
17898THY    CA128216   2.925   0.646   4.012 -0.8757  0.4973  0.2744
17898THY    CA228217   2.806   0.713   4.000 -0.1962 -1.2027 -1.0855
17898THY    CP128218   2.760   0.775   3.871  0.3531  0.4494  0.2113
17898THY    HP128219   2.839   0.780   3.794  0.0100  0.1656  1.7639
17898THY    CP228220   2.722   0.925   3.893 -0.0621 -0.3126 -0.1914
17898THY    HP228221   2.741   0.976   3.798  0.7744  0.2970  0.6871
17898THY    HP328222   2.791   0.972   3.964 -0.6425 -0.7180  1.3335
17898THY    HP428223   2.624   0.943   3.941  0.2146 -0.2544  1.3549
17898THY    CP328224   2.633   0.700   3.812  0.2610  0.0586  0.9689
17898THY    HP528225   2.620   0.714   3.704 -0.6021  0.0689  0.3331
17898THY    HP628226   2.543   0.738   3.862 -0.3747 -0.1558 -0.2085
17898THY    HP728227   2.637   0.591   3.826 -0.5239  0.1059  0.9442
17898THY    CA328228   2.727   0.723   4.119  0.3521  0.0641  1.2038
17898THY    HA328229   2.627   0.765   4.110 -0.1161 -4.9087 -0.3062
17898THY    CA428230   2.766   0.673   4.239  1.1044  0.0364  0.2921
17898THY    HA428231   2.703   0.699   4.324 -2.1584 -2.2176  0.3336
17898THY    CA528232   2.894   0.613   4.252  0.3203  0.2003 -0.4611
17898THY    CM128233   2.961   0.593   4.382 -0.3623 -0.0307 -0.2929
17898THY    HM128234   2.897   0.540   4.453  1.8500  1.6606 -0.8423
17898THY    HM228235   2.989   0.693   4.418  2.9852 -2.0330 -0.3609
17898THY    HM328236   3.052   0.537   4.359  0.2763 -1.8841  1.3997
17898THY    CA628237   2.971   0.599   4.133 -0.1816  0.1627 -0.1351
17898THY    HA628238   3.072   0.559   4.136 -0.1475  3.0655 -0.0240
17899THY      O28239   4.776   0.685   7.434 -0.2113 -0.2180  0.2520
17899THY     HO28240   4.708   0.733   7.384  1.5253 -1.4345  1.5829
17899THY    CA128241   4.725   0.631   7.547  0.4908 -0.4216 -0.2789
17899THY    CA228242   4.805   0.640   7.665  0.2766  0.7558  0.9738
17899THY    CP128243   4.945   0.694   7.672 -0.1353 -0.1882  0.0095
17899THY    HP128244   4.987   0.697   7.571  1.9171  0.6612  1.6780
17899THY    CP228245   5.054   0.610   7.745  0.4305  0.6103 -0.4679
17899THY    HP228246   5.043   0.506   7.712  0.7756  1.4265 -0.7720
17899THY    HP328247   5.038   0.601   7.853 -0.1137  0.4734 -1.2258
17899THY    HP428248   5.156   0.647   7.727  0.6953  1.2398 -0.8820
17899THY    CP328249   4.937   0.826   7.745  0.1108  0.5523 -0.2085
17899THY    HP528250   4.851   0.839   7.811 -1.1386 -1.0690  0.1088
17899THY    HP628251   4.924   0.903   7.668  0.1041  3.0718  2.4903
17899THY    HP728252   5.035   0.851   7.785 -0.5002 -0.2348  4.1727
17899THY    CA328253   4.739   0.604   7.791 -0.0917 -0.1507 -0.3457
17899THY    HA328254   4.796   0.616   7.882  0.3792 -0.2808 -1.5062
17899THY    CA428255   4.605   0.568   7.791  0.5935 -0.5859  0.3718
17899THY    HA428256   4.557   0.565   7.888 -0.6968 -1.2274 -1.3819
17899THY    CA528257   4.528   0.564   7.668 -0.1249 -0.0702  0.7067
17899THY    CM128258   4.389   0.522   7.675  0.7758  0.0455  0.0972
17899THY    HM128259   4.343   0.500   7.578  2.6567 -0.8122 -0.2205
17899THY    HM228260   4.330   0.599   7.726 -1.4557 -1.2219 -0.6788
17899THY    HM328261   4.396   0.431   7.737  1.1439  0.8002  0.6300
17899THY    CA628262   4.591   0.593   7.545  0.3843  0.4859  0.1297
17899THY    HA628263   4.529   0.593   7.456 -0.1196  0.8198 -0.9614
17900THY      O28264   2.683   2.384   3.073  0.5509  0.4159 -0.0468
17900THY     HO28265   2.752   2.337   3.022 -1.5728 -3.6124  0.7767
17900THY    CA128266   2.678   2.333   3.194 -0.2151  0.8230  0.6543
17900THY    CA228267   2.612   2.386   3.300 -0.1461 -0.0237 -0.7373
17900THY    CP128268   2.540   2.525   3.285  0.2382  0.3186  0.7425
17900THY    HP128269   2.572   2.569   3.190  0.7970  0.9351  1.7053
17900THY    CP228270   2.564   2.632   3.388 -0.1722 -0.1103  0.6433
17900THY    HP228271   2.672   2.621   3.406 -0.3162 -0.5884 -2.4640
17900THY    HP328272   2.515   2.604   3.482 -1.0808 -0.4025  1.2061
17900THY    HP428273   2.544   2.739   3.376 -1.3436  1.7519  0.6928
17900THY    CP328274   2.391   2.512   3.279 -0.0993 -0.0826  0.0949
17900THY    HP528275   2.355   2.436   3.350 -1.0666 -1.5602 -0.8829
17900THY    HP628276   2.368   2.474   3.178  2.4915 -0.2761 -1.2447
17900THY    HP728277   2.340   2.609   3.281 -0.0083 -1.4532  0.1879
17900THY    CA328278   2.613   2.319   3.424 -0.0844 -0.6394  0.1002
17900THY    HA328279   2.553   2.357   3.506 -0.8476 -1.5562  0.9113
17900THY    CA428280   2.677   2.198   3.434  0.3946  0.5647 -0.4175
17900THY    HA428281   2.665   2.137   3.523 -0.8593  0.2455 -0.6530
17900THY    CA528282   2.752   2.149   3.329  0.6331  0.3498 -0.5361
17900THY    CM128283   2.826   2.020   3.345 -0.3092  0.1471 -0.2365
17900THY    HM128284   2.764   1.949   3.400  0.9269  0.4608 -1.1089
17900THY    HM228285   2.917   2.026   3.407 -1.1577  1.3519  0.6081
17900THY    HM328286   2.847   1.978   3.246 -1.2523 -0.9122  1.6457
17900THY    CA628287   2.754   2.220   3.208  0.4694 -0.5891  0.8651
17900THY    HA628288   2.804   2.179   3.120 -2.7210 -1.9490 -0.4137
17901THY      O28289   8.312   2.981   4.841 -0.0505 -0.3931 -0.1332
17901THY     HO28290   8.365   3.001   4.762 -2.4271 -2.1171 -0.2693
17901THY    CA128291   8.373   2.885   4.913 -0.0600  0.5031  0.0026
17901THY    CA228292   8.311   2.769   4.964  0.0411  0.2111 -0.5806
17901THY    CP128293   8.165   2.750   4.929  0.2861 -0.3251 -0.4498
17901THY    HP128294   8.124   2.843   4.887 -0.2272 -0.3854 -0.6984
17901THY    CP228295   8.079   2.735   5.055  0.2865 -0.3676 -0.0344
17901THY    HP228296   7.972   2.734   5.031  0.0441  0.6786 -0.6655
17901THY    HP328297   8.083   2.810   5.135 -1.5663 -2.1717  2.1569
17901THY    HP428298   8.095   2.637   5.101 -0.7045 -0.5205 -0.2765
17901THY    CP328299   8.148   2.631   4.829  0.7208 -0.4144  0.4030
17901THY    HP528300   8.177   2.668   4.730 -1.6709 -0.3961  2.6646
17901THY    HP628301   8.042   2.604   4.819  0.5736 -0.2017  0.8803
17901THY    HP728302   8.188   2.542   4.879 -2.9752  0.7762 -0.7785
17901THY    CA328303   8.382   2.681   5.054  0.3755 -0.0909 -0.2428
17901THY    HA328304   8.329   2.598   5.099  0.5883  1.5601  0.4681
17901THY    CA428305   8.513   2.700   5.081  0.0533  0.7281 -0.7478
17901THY    HA428306   8.575   2.643   5.150  1.0867  3.1673  2.9857
17901THY    CA528307   8.570   2.828   5.030 -0.1910 -0.8637  0.8108
17901THY    CM128308   8.704   2.867   5.088  0.4634  0.2181  0.2556
17901THY    HM128309   8.710   2.977   5.091 -1.1643  0.3941  0.3723
17901THY    HM228310   8.791   2.820   5.042  1.0627  0.3746  1.1942
17901THY    HM328311   8.732   2.834   5.188  2.0028 -0.6041 -1.0468
17901THY    CA628312   8.500   2.915   4.951  0.5523 -0.4505  0.3448
17901THY    HA628313   8.554   3.003   4.918 -0.0174  0.5862  1.1113
17902THY      O28314   5.710   3.997   1.829  0.6790 -0.7080 -0.4435
17902THY     HO28315   5.702   4.011   1.733  0.8191 -1.0564 -2.4654
17902THY    CA128316   5.605   3.921   1.862 -0.4113 -0.3522 -0.0409
17902THY    CA228317   5.550   3.923   1.993  0.4467  0.6451  0.7467
17902THY    CP128318   5.612   4.002   2.109 -0.2232 -0.2255  1.5470
17902THY    HP128319   5.692   4.058   2.060  1.1121  0.1339  0.0243
17902THY    CP228320   5.686   3.902   2.216 -0.6440 -0.7335 -0.9265
17902THY    HP228321   5.616   3.842   2.277  1.2265  1.2546 -1.2083
17902THY    HP328322   5.743   3.956   2.292  0.9671 -0.9563 -2.2488
17902THY    HP428323   5.748   3.832   2.159  1.2676 -0.9572  0.8582
17902THY    CP328324   5.523   4.102   2.179 -0.2172 -0.0553 -0.2068
17902THY    HP528325   5.455   4.150   2.107  0.3393  0.5584  1.5717
17902THY    HP628326   5.584   4.183   2.220 -2.0925  1.5963  0.4557
17902THY    HP728327   5.460   4.067   2.262  0.1588  1.2115  1.8966
17902THY    CA328328   5.426   3.858   2.010  0.6667 -0.1535  0.5182
17902THY    HA328329   5.387   3.847   2.111  0.6166 -0.4212 -2.8231
17902THY    CA428330   5.363   3.797   1.903 -0.1177  0.3541 -0.5085
17902THY    HA428331   5.267   3.748   1.917 -0.7115 -0.0777  0.4886
17902THY    CA528332   5.424   3.803   1.781  0.2634 -0.6059 -0.2025
17902THY    CM128333   5.352   3.751   1.656  0.1570  0.2607 -0.2513
17902THY    HM128334   5.402   3.667   1.605 -0.3446  0.0521 -0.4224
17902THY    HM228335   5.350   3.829   1.580  0.8112  0.9444  0.4561
17902THY    HM328336   5.250   3.723   1.683  0.4084 -0.9768 -2.5976
17902THY    CA628337   5.548   3.857   1.758 -0.8914 -0.1376 -0.1814
17902THY    HA628338   5.587   3.849   1.657  0.9483  0.5664 -0.4801
17903THY      O28339   3.083   2.104   6.391  0.5818  0.3770  0.0932
17903THY     HO28340   3.168   2.150   6.400  1.0811  0.4217 -0.7992
17903THY    CA128341   2.998   2.207   6.370 -0.6629  0.2173  0.3672
17903THY    CA228342   2.869   2.184   6.335 -0.0347  0.0528 -0.2053
17903THY    CP128343   2.810   2.045   6.330 -0.1799 -0.7782 -0.0338
17903THY    HP128344   2.861   1.983   6.404  0.8197 -0.4299  1.1740
17903THY    CP228345   2.831   1.979   6.195  0.2554  0.2860  1.1463
17903THY    HP228346   2.757   1.898   6.194 -2.0996  2.8822  3.0564
17903THY    HP328347   2.935   1.944   6.194  0.2033 -0.3694  1.0061
17903THY    HP428348   2.814   2.041   6.106  0.7228 -2.0275 -1.8221
17903THY    CP328349   2.661   2.036   6.366  0.1162  0.6128 -0.4287
17903THY    HP528350   2.622   2.083   6.276  2.4678  0.3425  1.1635
17903THY    HP628351   2.639   2.097   6.455 -2.3587 -0.5646  0.5356
17903THY    HP728352   2.627   1.934   6.387  0.0049  3.2096  0.0618
17903THY    CA328353   2.796   2.295   6.302 -0.2048  0.2176 -0.2337
17903THY    HA328354   2.697   2.270   6.264 -0.0181  0.6652 -1.7310
17903THY    CA428355   2.843   2.431   6.314  0.8505 -0.3291 -0.2529
17903THY    HA428356   2.784   2.521   6.298 -1.2414  1.3506 -1.2541
17903THY    CA528357   2.975   2.441   6.358  0.2936  0.4280 -0.9530
17903THY    CM128358   3.029   2.578   6.383 -0.3822  0.5975  0.5345
17903THY    HM128359   2.944   2.643   6.403  0.2475  2.1391  0.9247
17903THY    HM228360   3.073   2.607   6.286 -0.3563  0.6238  0.5828
17903THY    HM328361   3.097   2.576   6.470  0.8408 -0.2780  1.5732
17903THY    CA628362   3.054   2.330   6.366 -0.3227 -0.6501 -0.1063
17903THY    HA628363   3.157   2.339   6.398  0.0432 -1.3651 -1.5217
17904THY      O28364   2.313   5.060   5.919  0.8609  0.4418  0.3001
17904THY     HO28365   2.314   5.074   6.015  2.1480  0.5424 -0.3335
17904THY    CA128366   2.260   4.943   5.888 -0.0597  0.1075  0.2808
17904THY    CA228367   2.127   4.933   5.841 -0.3543 -0.4392 -0.3320
17904THY    CP128368   2.039   5.063   5.833 -0.5124 -0.1156  0.6392
17904THY    HP128369   2.086   5.152   5.875 -0.7459  0.3795  0.5318
17904THY    CP228370   1.913   5.053   5.922 -0.2812 -0.1939  0.4897
17904THY    HP228371   1.942   5.030   6.025  0.9948 -0.8581 -1.0751
17904THY    HP328372   1.841   4.976   5.891 -0.5165  0.5929  0.3833
17904THY    HP428373   1.852   5.144   5.913 -2.7801 -1.4509 -1.2042
17904THY    CP328374   1.994   5.087   5.689  0.2598 -0.4097 -0.7829
17904THY    HP528375   2.088   5.106   5.636  2.0014  1.8891 -2.3759
17904THY    HP628376   1.929   5.175   5.692 -1.2763  1.9589 -1.9007
17904THY    HP728377   1.928   5.004   5.662 -2.4350  0.8543  0.8205
17904THY    CA328378   2.073   4.805   5.805  0.1227  0.7179 -0.3914
17904THY    HA328379   1.978   4.796   5.753  0.1559  0.2427  1.5004
17904THY    CA428380   2.153   4.692   5.818 -0.6416  0.4133 -0.1546
17904THY    HA428381   2.108   4.603   5.775 -2.2090  1.4408  0.1169
17904THY    CA528382   2.291   4.707   5.850 -0.4959  0.7425 -1.0314
17904THY    CM128383   2.379   4.582   5.850 -0.4685 -0.1808 -0.2389
17904THY    HM128384   2.361   4.526   5.758  1.1480  1.2711 -3.4437
17904THY    HM228385   2.361   4.522   5.940  1.6079 -0.2792 -1.1155
17904THY    HM328386   2.486   4.608   5.853 -0.3327 -1.5370 -0.5894
17904THY    CA628387   2.343   4.826   5.900  0.2392  0.2205 -0.0764
17904THY    HA628388   2.447   4.834   5.931  1.3215 -2.6107 -1.5254
17905THY      O28389   1.839   7.645   4.735  0.6660 -0.2214  0.0005
17905THY     HO28390   1.821   7.714   4.801 -0.4082 -0.8680  0.3517
17905THY    CA128391   1.748   7.544   4.748 -0.2899 -0.4534 -1.2306
17905THY    CA228392   1.724   7.455   4.643 -0.9184  0.6187 -0.4545
17905THY    CP128393   1.800   7.459   4.506  0.5399  0.2490 -0.2135
17905THY    HP128394   1.893   7.514   4.527 -1.5557  5.4023  2.0486
17905THY    CP228395   1.714   7.555   4.413  0.1841 -0.3099  0.3340
17905THY    HP228396   1.737   7.550   4.306 -0.3318 -0.5812  2.6901
17905THY    HP328397   1.726   7.659   4.444  0.3018 -1.0955  0.5612
17905THY    HP428398   1.609   7.525   4.427  0.6913 -0.6411 -1.8213
17905THY    CP328399   1.837   7.321   4.452 -0.5309  0.3803 -0.5484
17905THY    HP528400   1.889   7.256   4.523 -0.5243  0.9862  0.0991
17905THY    HP628401   1.909   7.338   4.370 -0.2838  0.6955 -0.0378
17905THY    HP728402   1.750   7.265   4.415 -1.6011 -1.0862  1.8998
17905THY    CA328403   1.633   7.352   4.669  0.0537  0.4209 -0.5615
17905THY    HA328404   1.616   7.279   4.590  2.2663  1.2300 -2.0491
17905THY    CA428405   1.578   7.333   4.801  0.1273 -0.1799 -0.1810
17905THY    HA428406   1.511   7.249   4.817 -1.3852 -3.1835  0.3485
17905THY    CA528407   1.591   7.431   4.900 -0.4576 -0.1581 -0.0226
17905THY    CM128408   1.532   7.408   5.034  0.1058 -0.0806 -0.9075
17905THY    HM128409   1.577   7.481   5.102  0.3176  0.3808 -1.4633
17905THY    HM228410   1.567   7.307   5.058 -0.3555 -2.9252 -1.8332
17905THY    HM328411   1.423   7.418   5.036 -0.2294 -5.5554 -0.6584
17905THY    CA628412   1.687   7.534   4.875 -0.0561  0.1112 -0.0630
17905THY    HA628413   1.718   7.594   4.960  0.4874  0.5280 -0.9131
17906THY      O28414   9.006   1.884   6.232  0.3977 -0.4935 -0.7457
17906THY     HO28415   9.009   1.924   6.143 -0.5207 -0.6788 -1.0781
17906THY    CA128416   9.005   1.746   6.208  1.3266  0.4177 -0.1518
17906THY    CA228417   9.002   1.643   6.310 -0.7727 -0.4332  0.1999
17906THY    CP128418   9.004   1.678   6.460  0.5376  0.1275  0.1471
17906THY    HP128419   9.033   1.783   6.471 -0.6488 -0.0635  0.5007
17906THY    CP228420   9.103   1.600   6.538  0.2880 -0.4916 -0.4930
17906THY    HP228421   9.189   1.589   6.472 -0.7103 -1.7221 -1.1313
17906THY    HP328422   9.071   1.495   6.543  0.3766 -1.1646 -0.5570
17906THY    HP428423   9.114   1.640   6.640  1.0061 -0.6030 -0.3850
17906THY    CP328424   8.861   1.664   6.514  0.6307  0.1181 -0.6011
17906THY    HP528425   8.793   1.739   6.470 -2.2171  0.7846 -2.6455
17906THY    HP628426   8.865   1.681   6.622 -1.2035 -0.1137  2.1136
17906THY    HP728427   8.813   1.566   6.504 -0.0906  0.5441 -0.3029
17906THY    CA328428   9.026   1.508   6.268  0.6216  0.3160 -0.2746
17906THY    HA328429   9.022   1.421   6.332  0.6396  0.7662  0.0480
17906THY    CA428430   9.023   1.485   6.132  0.5084  0.5401  0.3947
17906THY    HA428431   9.032   1.384   6.094  0.1880 -0.1634  0.6232
17906THY    CA528432   9.030   1.588   6.034 -0.7420 -0.4978 -0.4795
17906THY    CM128433   9.030   1.552   5.892  0.1559  0.2372 -0.9757
17906THY    HM128434   9.087   1.462   5.865  1.3093  0.6831 -0.3978
17906THY    HM228435   9.077   1.628   5.828 -0.2148  0.4518 -0.5606
17906THY    HM328436   8.924   1.552   5.864 -0.3370  1.7812  1.5407
17906THY    CA628437   9.024   1.720   6.076 -0.0322 -0.1925 -0.1562
17906THY    HA628438   9.022   1.801   6.003  3.2869  1.8956  2.0555
17907THY      O28439   2.134   5.941   5.000  0.1653  0.5778  0.8516
17907THY     HO28440   2.182   5.889   5.066  0.0866 -0.8894 -1.2015
17907THY    CA128441   2.028   5.864   4.976 -0.0545 -0.5264 -0.6079
17907THY    CA228442   1.936   5.886   4.871  0.2696 -0.0858 -0.2703
17907THY    CP128443   1.924   6.025   4.795  0.4905  0.4304  0.3457
17907THY    HP128444   1.958   6.104   4.863 -1.3517 -1.0732  2.5477
17907THY    CP228445   1.781   6.075   4.766 -0.0866  0.4204 -0.2904
17907THY    HP228446   1.750   6.025   4.673 -0.7799 -0.3512  1.4698
17907THY    HP328447   1.785   6.184   4.758 -0.1393  0.6783 -0.2696
17907THY    HP428448   1.721   6.048   4.854  0.2094  1.9096  3.3781
17907THY    CP328449   2.004   6.022   4.668 -0.1781  0.6609 -0.4668
17907THY    HP528450   2.111   6.000   4.682 -0.1156  0.5744 -0.2324
17907THY    HP628451   1.988   6.118   4.618 -1.5505 -0.6418 -1.3380
17907THY    HP728452   1.969   5.944   4.599  1.1085 -0.6022  0.0124
17907THY    CA328453   1.860   5.778   4.831 -0.0407  0.6211  0.2230
17907THY    HA328454   1.785   5.797   4.755  1.1638 -0.0362  2.7320
17907THY    CA428455   1.868   5.651   4.885  0.4644  0.3746  0.1607
17907THY    HA428456   1.809   5.562   4.861 -0.0474  1.8114  0.0898
17907THY    CA528457   1.951   5.635   5.000 -0.2595  0.3867 -0.1887
17907THY    CM128458   1.959   5.497   5.073  0.0706  0.3177 -0.1768
17907THY    HM128459   1.889   5.434   5.016  0.3576  1.8379 -1.9387
17907THY    HM228460   1.912   5.500   5.172  1.7331  1.1982 -1.4515
17907THY    HM328461   2.062   5.460   5.072 -0.1320  0.5713 -0.7590
17907THY    CA628462   2.023   5.737   5.047 -0.6420  0.1571  0.4465
17907THY    HA628463   2.077   5.720   5.140 -1.6753  1.1989  2.4772
17908THY      O28464   9.278   1.129   6.681 -0.2310  0.2337  0.3475
17908THY     HO28465   9.361   1.082   6.700  0.4450 -0.6027  1.1635
17908THY    CA128466   9.290   1.182   6.554  0.8816 -1.5520 -0.7963
17908THY    CA228467   9.204   1.140   6.449 -0.2291 -0.0689  0.3061
17908THY    CP128468   9.121   1.021   6.469  0.3545  0.4471  0.6357
17908THY    HP128469   9.095   1.006   6.574 -0.5313  0.0930 -0.4445
17908THY    CP228470   9.190   0.892   6.418  0.7625  0.1643 -0.3559
17908THY    HP228471   9.154   0.809   6.479 -0.0202  3.2962  2.1055
17908THY    HP328472   9.299   0.907   6.421  1.0840 -0.1983 -2.3317
17908THY    HP428473   9.163   0.880   6.312 -1.6302  0.3964  1.9658
17908THY    CP328474   8.987   1.047   6.402  0.4479  0.3895 -0.3878
17908THY    HP528475   8.908   0.980   6.438 -0.5715 -0.5457  0.2855
17908THY    HP628476   8.993   1.027   6.295 -0.9386 -0.0399  1.3129
17908THY    HP728477   8.946   1.145   6.427 -0.5641  0.8888 -0.9153
17908THY    CA328478   9.222   1.202   6.327  0.0676 -0.7580  0.8405
17908THY    HA328479   9.164   1.158   6.246  0.0913 -0.7453  0.7870
17908THY    CA428480   9.331   1.288   6.301  0.1784  0.3663  0.0272
17908THY    HA428481   9.355   1.321   6.200 -0.9598  0.2372  0.5091
17908THY    CA528482   9.404   1.330   6.411  0.3127 -0.0005  0.2219
17908THY    CM128483   9.508   1.435   6.390  0.1120  0.4491  0.2274
17908THY    HM128484   9.553   1.419   6.291 -1.0787 -0.4117  1.7743
17908THY    HM228485   9.584   1.433   6.468 -0.0957  0.6774  0.9400
17908THY    HM328486   9.468   1.536   6.371  1.8868  0.6836  1.0030
17908THY    CA628487   9.381   1.284   6.540  0.0149 -0.6810 -0.1102
17908THY    HA628488   9.430   1.319   6.630  0.8669 -0.9722 -0.5399
17909THY      O28489   4.152   0.549   5.588  0.0850 -0.6926  0.3878
17909THY     HO28490   4.164   0.614   5.517  0.0660  0.4803  1.7235
17909THY    CA128491   4.102   0.631   5.681  0.7112  0.5438 -0.2634
17909THY    CA228492   4.043   0.577   5.797 -0.3257 -0.1389 -0.3001
17909THY    CP128493   4.032   0.426   5.815  0.1776  0.3893 -0.3358
17909THY    HP128494   4.023   0.373   5.719 -0.6083  0.1961  0.1278
17909THY    CP228495   3.905   0.383   5.883  0.4094  0.4297 -0.0357
17909THY    HP228496   3.887   0.277   5.864 -0.7560  0.2026  0.1904
17909THY    HP328497   3.818   0.440   5.848 -0.1366  0.6288 -0.7213
17909THY    HP428498   3.915   0.392   5.992 -1.8899  0.7598 -0.6963
17909THY    CP328499   4.145   0.366   5.895  0.2250  0.0569  0.7303
17909THY    HP528500   4.234   0.403   5.844 -1.3122 -4.1559 -0.8256
17909THY    HP628501   4.159   0.257   5.890  0.2350 -0.7776  0.7661
17909THY    HP728502   4.146   0.387   6.003 -1.2766  0.4303 -0.8231
17909THY    CA328503   3.995   0.667   5.899 -0.1864  0.0151 -0.0341
17909THY    HA328504   3.946   0.641   5.992  0.2856  0.1982 -0.2980
17909THY    CA428505   4.029   0.799   5.884  0.4159 -0.0703  0.1658
17909THY    HA428506   4.001   0.870   5.962  0.9039 -2.0893  2.7300
17909THY    CA528507   4.082   0.853   5.770  0.3428  1.0239  0.3807
17909THY    CM128508   4.094   0.998   5.757 -0.3883 -0.7270 -1.0711
17909THY    HM128509   4.192   1.026   5.718 -0.6191 -1.3372 -1.0971
17909THY    HM228510   4.075   1.050   5.852 -0.6925 -0.8689 -0.9216
17909THY    HM328511   4.014   1.041   5.696  0.4894 -0.0887  1.6822
17909THY    CA628512   4.119   0.761   5.664  0.7480  0.5249 -0.0750
17909THY    HA628513   4.174   0.801   5.579  0.5739  0.2178 -0.4847
17910THY      O28514   8.707   3.234   6.122  0.7410  0.2137  0.1657
17910THY     HO28515   8.695   3.330   6.111 -4.7579  2.0247 -0.0002
17910THY    CA128516   8.822   3.197   6.061  0.3628  0.7435 -0.4304
17910THY    CA228517   8.917   3.121   6.134  0.1472  0.5329  0.3612
17910THY    CP128518   8.865   3.047   6.265  0.1398 -0.1285 -0.3622
17910THY    HP128519   8.772   3.089   6.306 -0.4463  0.8415 -2.4870
17910THY    CP228520   8.959   3.072   6.375 -0.2329  0.1231 -0.4678
17910THY    HP228521   9.005   3.171   6.381  0.2313 -2.6069 -0.4242
17910THY    HP328522   9.042   3.001   6.380 -0.1606  3.5688 -0.2754
17910THY    HP428523   8.901   3.056   6.467  0.9591  0.9111 -0.3731
17910THY    CP328524   8.843   2.898   6.257  0.6142 -0.4860 -0.0529
17910THY    HP528525   8.937   2.843   6.244  0.2885 -1.0140 -0.5039
17910THY    HP628526   8.772   2.882   6.174 -0.0931  0.2908 -1.1511
17910THY    HP728527   8.794   2.873   6.352  3.3264  0.9393 -0.2087
17910THY    CA328528   9.036   3.085   6.067 -0.4579  0.6809 -0.2463
17910THY    HA328529   9.100   3.009   6.110 -0.7779 -0.8595 -1.4192
17910THY    CA428530   9.066   3.142   5.939  0.2450 -0.1030 -0.1419
17910THY    HA428531   9.159   3.123   5.888  0.1648 -1.4295  2.5237
17910THY    CA528532   8.976   3.228   5.878  0.5677  0.1300 -0.0813
17910THY    CM128533   8.999   3.276   5.732 -0.4083 -0.5883 -0.2157
17910THY    HM128534   8.938   3.205   5.675 -1.4572 -0.8716  0.8903
17910THY    HM228535   9.103   3.250   5.710 -0.6796 -0.0678 -1.8477
17910THY    HM328536   8.979   3.383   5.724  2.2691 -0.1261  0.3994
17910THY    CA628537   8.854   3.244   5.933 -0.1623  0.0596  0.4224
17910THY    HA628538   8.778   3.289   5.870 -1.1776  0.7467 -0.2861
17911THY      O28539   2.721   5.238   7.467 -0.1337  0.4289 -0.4156
17911THY     HO28540   2.724   5.157   7.413 -0.4749 -0.9114  0.4411
17911THY    CA128541   2.853   5.268   7.492  0.2455 -1.0062  0.1788
17911THY    CA228542   2.911   5.398   7.468 -0.2622  0.6065  0.2985
17911THY    CP128543   2.820   5.516   7.413  0.7570 -0.1471  0.4575
17911THY    HP128544   2.713   5.493   7.408  0.4897  1.4927  1.1933
17911THY    CP228545   2.876   5.571   7.271  0.1271  0.0515 -0.6907
17911THY    HP228546   2.888   5.488   7.200 -2.0617 -1.5756  0.2938
17911THY    HP328547   2.974   5.615   7.291 -0.5605  2.1520 -0.0040
17911THY    HP428548   2.814   5.643   7.215 -0.2362  3.1936  1.6415
17911THY    CP328549   2.831   5.633   7.512  1.3790  0.1818 -0.2614
17911THY    HP528550   2.936   5.653   7.539  1.5485 -0.0730 -0.7770
17911THY    HP628551   2.774   5.613   7.604  0.4103 -0.6698 -1.5666
17911THY    HP728552   2.784   5.718   7.462 -0.1411 -1.6092 -2.0629
17911THY    CA328553   3.054   5.409   7.485  0.3351  0.2902 -0.0567
17911THY    HA328554   3.099   5.504   7.457 -0.5643 -2.3019 -0.3158
17911THY    CA428555   3.126   5.309   7.532  0.8511  1.4718 -0.1944
17911THY    HA428556   3.235   5.313   7.530  0.8140 -0.2816  0.9909
17911THY    CA528557   3.067   5.184   7.549 -0.2368 -0.1618 -0.1072
17911THY    CM128558   3.158   5.068   7.579  0.4623 -0.3252  0.5955
17911THY    HM128559   3.264   5.076   7.554  0.5153 -0.2590  0.1556
17911THY    HM228560   3.116   4.975   7.538  0.4604 -0.0229  0.4612
17911THY    HM328561   3.154   5.053   7.688  1.3176 -0.4549 -0.7393
17911THY    CA628562   2.930   5.161   7.533  0.9182 -0.2318  0.3686
17911THY    HA628563   2.876   5.068   7.546 -1.0315  0.2799  1.4973
17912THY      O28564   7.096   1.129   2.516  0.2853 -0.2029  0.2410
17912THY     HO28565   7.181   1.134   2.562  0.7109 -1.0646  2.2389
17912THY    CA128566   7.078   1.007   2.467  0.1702 -0.4351  0.2238
17912THY    CA228567   6.947   0.952   2.459 -0.3262  0.3175  0.1698
17912THY    CP128568   6.824   1.041   2.495  0.8159  0.0477 -0.2530
17912THY    HP128569   6.840   1.149   2.500  0.6181 -1.6265 -0.1307
17912THY    CP228570   6.779   0.993   2.623  0.7579 -0.2666  0.2864
17912THY    HP228571   6.851   1.026   2.698  2.9807 -2.4339  0.6966
17912THY    HP328572   6.768   0.885   2.631  0.6930 -0.0867  0.3068
17912THY    HP428573   6.679   1.032   2.647 -0.0672 -0.6417 -1.5264
17912THY    CP328574   6.711   1.012   2.392  0.4534 -0.5790 -0.0589
17912THY    HP528575   6.754   1.033   2.293 -1.8376 -1.4019  1.1902
17912THY    HP628576   6.627   1.080   2.411 -0.0487 -1.0984 -0.5254
17912THY    HP728577   6.666   0.912   2.386 -0.8264 -3.2783  0.5751
17912THY    CA328578   6.936   0.823   2.398  0.5733  0.3517 -0.1962
17912THY    HA328579   6.840   0.774   2.388  0.7480 -0.4487 -0.3855
17912THY    CA428580   7.048   0.749   2.371 -0.4679 -0.3059  0.1497
17912THY    HA428581   7.036   0.644   2.346  1.2019  1.7185 -0.5936
17912THY    CA528582   7.173   0.803   2.378 -0.4681 -0.6775 -0.3201
17912THY    CM128583   7.294   0.724   2.327 -0.6002 -0.4169 -0.1004
17912THY    HM128584   7.279   0.673   2.231  0.2008  0.4593 -2.0633
17912THY    HM228585   7.322   0.648   2.400  0.2108 -0.6731 -0.0634
17912THY    HM328586   7.378   0.792   2.308 -2.3750 -3.0224  1.5815
17912THY    CA628587   7.190   0.931   2.426 -0.2608 -0.1549 -0.5644
17912THY    HA628588   7.291   0.971   2.430  0.2043  0.8661 -1.7796
17913THY      O28589   3.046   3.267   2.391 -0.6284  0.6364 -0.1406
17913THY     HO28590   3.073   3.334   2.326  0.2964  1.4744  0.3301
17913THY    CA128591   3.015   3.152   2.316 -0.2521 -0.2483 -0.2726
17913THY    CA228592   2.957   3.044   2.375 -0.6789 -0.0120  0.6886
17913THY    CP128593   2.926   3.036   2.519 -0.4650  0.4092  0.1606
17913THY    HP128594   2.963   3.123   2.574  2.4196  0.5533 -1.0640
17913THY    CP228595   2.994   2.910   2.590  0.1693  0.1833 -1.5861
17913THY    HP228596   2.947   2.876   2.683  1.2636  1.2653 -0.2834
17913THY    HP328597   3.102   2.918   2.607 -0.2598  2.3474  1.1572
17913THY    HP428598   2.974   2.821   2.529 -2.0712  1.0732 -1.7724
17913THY    CP328599   2.778   3.034   2.543  0.4379  0.3732  0.7146
17913THY    HP528600   2.764   3.058   2.650  0.2407  0.2499  1.1644
17913THY    HP628601   2.729   2.937   2.528 -0.1502  0.8516  0.9275
17913THY    HP728602   2.728   3.108   2.479 -0.4695 -0.2353 -0.3854
17913THY    CA328603   2.915   2.937   2.299 -0.5180 -0.1599  0.3059
17913THY    HA328604   2.860   2.853   2.341 -1.6160  0.0304  1.0943
17913THY    CA428605   2.946   2.928   2.165 -0.2107  0.0965  0.7272
17913THY    HA428606   2.925   2.839   2.107  0.4170 -0.8442  1.1770
17913THY    CA528607   3.016   3.033   2.106 -0.5279  0.1679 -1.2650
17913THY    CM128608   3.055   3.024   1.957  0.4530  0.0615  0.3113
17913THY    HM128609   2.997   2.948   1.905 -0.5967 -0.2013  1.2782
17913THY    HM228610   3.158   2.987   1.958  0.4507 -0.1508  0.2985
17913THY    HM328611   3.056   3.115   1.896 -0.2611 -0.2808  0.0915
17913THY    CA628612   3.047   3.152   2.181  0.1454  0.1058 -0.5233
17913THY    HA628613   3.087   3.236   2.126  2.1422  1.5401 -0.4373
17914THY      O28614   2.153   4.605   3.154 -0.1839 -0.2248  0.5244
17914THY     HO28615   2.094   4.527   3.149  0.3571  0.0084  0.0968
17914THY    CA128616   2.084   4.699   3.081 -0.2028  0.3584  0.6552
17914THY    CA228617   2.153   4.789   3.000  0.7397 -0.2000  0.1653
17914THY    CP128618   2.312   4.801   2.996 -0.3761 -0.4521  0.5178
17914THY    HP128619   2.351   4.698   2.992  0.0901  1.7876  0.5518
17914THY    CP228620   2.368   4.875   3.124  0.3161  0.3301  0.4035
17914THY    HP228621   2.315   4.970   3.114 -0.0805  0.0838  0.1623
17914THY    HP328622   2.477   4.883   3.123  0.4663 -1.1273 -1.2041
17914THY    HP428623   2.348   4.811   3.210  1.1962  1.2245  1.3030
17914THY    CP328624   2.363   4.864   2.875 -0.2982  0.2257  0.4546
17914THY    HP528625   2.339   4.969   2.855 -0.1372 -0.1446  0.4212
17914THY    HP628626   2.344   4.814   2.780 -0.2823 -0.3905  1.5753
17914THY    HP728627   2.472   4.862   2.883 -0.3406  0.7420 -0.8065
17914THY    CA328628   2.071   4.880   2.927 -0.2954  0.1723 -0.9443
17914THY    HA328629   2.117   4.960   2.869  0.1593  1.2021 -0.4394
17914THY    CA428630   1.929   4.874   2.938  0.4178 -0.2247  0.5492
17914THY    HA428631   1.868   4.940   2.876  0.3819  0.9377  1.6402
17914THY    CA528632   1.873   4.772   3.015 -0.4988  0.1563 -0.1896
17914THY    CM128633   1.729   4.753   3.017  0.4229  0.2894 -0.2411
17914THY    HM128634   1.705   4.713   2.918  0.7168  0.9249 -2.1165
17914THY    HM228635   1.673   4.847   3.025  0.3189 -1.3064 -0.1361
17914THY    HM328636   1.699   4.684   3.096  1.0964 -0.6906 -1.7159
17914THY    CA628637   1.950   4.685   3.086 -0.4206 -0.3752 -0.5291
17914THY    HA628638   1.912   4.614   3.160 -0.6814 -0.0168 -0.0276
17915THY      O28639   6.177   5.615   4.602 -0.2107 -0.0401  0.2686
17915THY     HO28640   6.248   5.617   4.535 -0.1073  0.0461 -0.3453
17915THY    CA128641   6.058   5.599   4.543  0.1247 -0.1635 -0.3846
17915THY    CA228642   5.943   5.648   4.597 -0.0238 -0.3019  0.0208
17915THY    CP128643   5.940   5.726   4.727 -0.0000 -0.4933 -0.1005
17915THY    HP128644   6.039   5.722   4.774  0.7870 -2.0665 -0.2693
17915THY    CP228645   5.854   5.672   4.845  0.5582  1.0027  0.5052
17915THY    HP228646   5.879   5.565   4.855  0.9747 -3.2618  0.0222
17915THY    HP328647   5.749   5.694   4.823  0.8363 -0.9075  0.1027
17915THY    HP428648   5.883   5.723   4.937  1.2089  0.9150  0.3166
17915THY    CP328649   5.894   5.870   4.696  0.7328 -0.4204  0.5558
17915THY    HP528650   5.876   5.936   4.782  0.8314 -0.2744  0.3914
17915THY    HP628651   5.802   5.871   4.637 -1.0602  2.1656 -0.2796
17915THY    HP728652   5.974   5.917   4.637 -0.0846 -0.6977  1.6286
17915THY    CA328653   5.820   5.618   4.534  0.3341  0.1872 -0.3487
17915THY    HA328654   5.729   5.657   4.579  0.1199 -1.1537  0.7816
17915THY    CA428655   5.829   5.551   4.406 -0.0949 -0.6311  0.1600
17915THY    HA428656   5.739   5.521   4.353 -0.6491  1.4947 -2.3014
17915THY    CA528657   5.950   5.512   4.349 -0.1499  0.5673 -0.9220
17915THY    CM128658   5.955   5.453   4.210 -0.2468 -0.0607 -1.2296
17915THY    HM128659   5.919   5.533   4.144 -0.0221  0.0457 -1.0378
17915THY    HM228660   5.887   5.368   4.198 -1.1612  3.1238 -1.1020
17915THY    HM328661   6.053   5.413   4.181  1.4574 -0.0759  2.4814
17915THY    CA628662   6.068   5.540   4.418  0.2690 -0.6932 -0.1560
17915THY    HA628663   6.165   5.512   4.378  1.7539  1.3096  1.8135
17916THY      O28664   1.988   3.531   6.752  0.2233 -0.0876  0.2225
17916THY     HO28665   1.911   3.481   6.782 -0.4080 -1.4316  0.3294
17916THY    CA128666   1.984   3.640   6.838 -0.1251 -0.3617 -0.1014
17916THY    CA228667   2.069   3.746   6.817 -0.6207 -0.0734 -0.2950
17916THY    CP128668   2.170   3.742   6.702 -0.0239 -0.7484  0.2790
17916THY    HP128669   2.203   3.638   6.698 -0.1761  0.3422  0.1843
17916THY    CP228670   2.304   3.819   6.723 -1.8099 -0.0714 -0.0218
17916THY    HP228671   2.385   3.747   6.706 -2.6108 -0.1784 -0.9294
17916THY    HP328672   2.317   3.848   6.828 -0.2475 -0.0481 -0.6935
17916THY    HP428673   2.315   3.911   6.664 -0.8839  1.6598  1.0210
17916THY    CP328674   2.105   3.767   6.562  0.0727 -0.0162 -0.5879
17916THY    HP528675   2.183   3.765   6.484 -0.5474 -0.6552 -0.1946
17916THY    HP628676   2.049   3.861   6.556  1.1846 -0.2110  0.0800
17916THY    HP728677   2.034   3.687   6.538 -0.9044 -0.7202  0.4597
17916THY    CA328678   2.061   3.857   6.901 -0.6060  0.6048 -0.0380
17916THY    HA328679   2.131   3.940   6.893 -1.8675 -1.2760  0.9018
17916THY    CA428680   1.967   3.857   7.007 -0.6508 -0.7368  0.2277
17916THY    HA428681   1.966   3.934   7.084  1.5856  1.5470 -1.8556
17916THY    CA528682   1.881   3.748   7.021 -0.4281  0.3754 -0.1671
17916THY    CM128683   1.775   3.756   7.134 -0.6499 -0.1703  0.0574
17916THY    HM128684   1.822   3.781   7.229  0.4567 -0.8523  0.6492
17916THY    HM228685   1.735   3.655   7.149  1.3205  0.3213 -0.7052
17916THY    HM328686   1.693   3.827   7.120 -0.2174  1.4910  0.9323
17916THY    CA628687   1.886   3.638   6.934  0.2929 -0.2335 -0.2479
17916THY    HA628688   1.817   3.556   6.952  1.2597  0.8349 -0.8650
17917THY      O28689   8.084   1.602   3.658 -0.0883 -0.0390 -0.5878
17917THY     HO28690   8.012   1.546   3.625  0.0299  0.9932 -1.3749
17917THY    CA128691   8.148   1.665   3.559 -0.6036  0.2450 -0.2648
17917THY    CA228692   8.174   1.802   3.563 -0.3008 -0.2878 -1.4276
17917THY    CP128693   8.119   1.880   3.691  0.1064  0.1257  0.1982
17917THY    HP128694   8.023   1.842   3.728 -0.4763  1.6117  2.8335
17917THY    CP228695   8.104   2.032   3.668 -0.3260 -0.2481  0.1188
17917THY    HP228696   8.045   2.078   3.748 -0.6130 -1.8121  2.6135
17917THY    HP328697   8.067   2.057   3.568 -1.6780  0.3038  0.4092
17917THY    HP428698   8.203   2.081   3.667 -0.8514 -0.4417  1.1969
17917THY    CP328699   8.219   1.855   3.802 -0.0273  0.2743  0.1317
17917THY    HP528700   8.231   1.749   3.827 -0.4267 -1.1108 -0.2582
17917THY    HP628701   8.193   1.899   3.899 -1.3469  0.0907 -0.1756
17917THY    HP728702   8.314   1.905   3.780 -1.1611 -2.0567  1.4526
17917THY    CA328703   8.256   1.860   3.465  0.3464 -0.5375  0.1061
17917THY    HA328704   8.281   1.966   3.466 -0.1476  0.8512  0.2365
17917THY    CA428705   8.314   1.778   3.367 -0.6209 -0.7967 -0.0007
17917THY    HA428706   8.391   1.820   3.303  0.2547 -0.4263 -0.9888
17917THY    CA528707   8.288   1.642   3.366  0.1297 -0.0899  0.5066
17917THY    CM128708   8.364   1.549   3.272 -0.0712 -0.3391  0.2270
17917THY    HM128709   8.319   1.449   3.264  0.7529 -0.5898 -0.1278
17917THY    HM228710   8.471   1.554   3.293 -0.2751  0.9499 -0.3159
17917THY    HM328711   8.371   1.574   3.166  3.2453 -0.9626 -2.6808
17917THY    CA628712   8.213   1.583   3.466  0.8135  0.1673 -0.3027
17917THY    HA628713   8.213   1.475   3.476  0.1300 -2.4373 -0.6226
17918THY      O28714   2.589   7.231   3.478 -0.0776  0.2336 -0.2113
17918THY     HO28715   2.561   7.276   3.560 -1.8543  0.3834 -1.4690
17918THY    CA128716   2.621   7.106   3.519  0.6899  0.1377  0.2299
17918THY    CA228717   2.527   7.010   3.576 -0.6431 -0.6441 -0.6521
17918THY    CP128718   2.388   7.056   3.632  0.2738 -0.1693  0.7343
17918THY    HP128719   2.337   7.123   3.562 -3.4301  0.8575 -0.7850
17918THY    CP228720   2.412   7.118   3.764 -0.0131 -0.5529 -0.1931
17918THY    HP228721   2.318   7.158   3.804  0.2498  0.6108 -0.6880
17918THY    HP328722   2.494   7.190   3.764  0.4124  0.3112 -0.6580
17918THY    HP428723   2.437   7.045   3.841 -1.9109  0.1401 -0.1825
17918THY    CP328724   2.283   6.942   3.649  0.4199 -0.3086 -0.3845
17918THY    HP528725   2.298   6.900   3.750 -0.1569  0.0779  0.3260
17918THY    HP628726   2.291   6.865   3.571 -0.2879 -0.9835  0.2176
17918THY    HP728727   2.186   6.990   3.635  0.8079 -2.1436 -0.0831
17918THY    CA328728   2.573   6.880   3.593  0.0752  0.3050 -0.3964
17918THY    HA328729   2.519   6.809   3.655 -0.5355 -0.9040 -1.0172
17918THY    CA428730   2.701   6.843   3.549  0.2577 -0.1383  0.3599
17918THY    HA428731   2.748   6.748   3.572  1.2481  0.3199  0.9365
17918THY    CA528732   2.787   6.930   3.489  0.4291  0.4375 -0.7666
17918THY    CM128733   2.926   6.883   3.438 -0.3592 -0.1947  0.4951
17918THY    HM128734   2.938   6.849   3.335 -0.0732  0.1559 -0.4950
17918THY    HM228735   2.966   6.797   3.493  0.2213 -1.9162 -0.3935
17918THY    HM328736   2.996   6.966   3.451  0.2944 -0.2646 -0.0310
17918THY    CA628737   2.748   7.067   3.473  0.8567  0.3364 -0.4544
17918THY    HA628738   2.817   7.139   3.431 -0.6707 -0.0460  0.8250
17919THY      O28739   6.015   8.223   6.103  0.0420  0.3197 -0.1342
17919THY     HO28740   6.037   8.133   6.132 -1.4845 -1.0776 -1.0228
17919THY    CA128741   6.049   8.303   6.200  0.0541 -0.3996  0.1270
17919THY    CA228742   5.983   8.427   6.225 -0.3442 -0.2775 -0.2225
17919THY    CP128743   5.859   8.461   6.143 -0.2298  0.5222 -0.2237
17919THY    HP128744   5.875   8.415   6.044 -0.9172  0.0232  0.5785
17919THY    CP228745   5.850   8.608   6.133 -0.2639  0.2471 -0.5796
17919THY    HP228746   5.948   8.640   6.094  1.5059  1.6914 -3.7614
17919THY    HP328747   5.826   8.670   6.220  0.7962 -0.7169  1.2525
17919THY    HP428748   5.774   8.640   6.061  0.9669 -0.4785  0.8375
17919THY    CP328749   5.735   8.403   6.209  0.1010 -0.0082 -0.2565
17919THY    HP528750   5.637   8.440   6.174 -0.1396 -2.7301 -3.1148
17919THY    HP628751   5.744   8.420   6.317  0.9681  0.2743 -2.3288
17919THY    HP728752   5.729   8.294   6.204 -2.4847  1.4703 -0.2721
17919THY    CA328753   6.036   8.506   6.330 -0.5677 -0.2396 -0.4583
17919THY    HA328754   5.991   8.602   6.353 -1.2790 -0.1404 -0.8043
17919THY    CA428755   6.151   8.467   6.406  0.7258  0.3029  0.2619
17919THY    HA428756   6.200   8.529   6.479 -2.3092  1.5613  1.3660
17919THY    CA528757   6.198   8.338   6.387  0.0590  0.5740 -0.0371
17919THY    CM128758   6.305   8.284   6.468  0.1989  0.1085  0.1615
17919THY    HM128759   6.356   8.366   6.520  0.3777  1.2563 -0.6484
17919THY    HM228760   6.388   8.250   6.405  1.1542  1.4669 -0.0861
17919THY    HM328761   6.283   8.211   6.547 -0.8638 -0.0391  0.3142
17919THY    CA628762   6.154   8.258   6.273 -0.6912  0.5341 -0.1491
17919THY    HA628763   6.195   8.158   6.257  0.0749  1.3459  0.0185
17920THY      O28764   5.530   6.007   6.116 -0.2458 -0.1806  0.4137
17920THY     HO28765   5.473   5.956   6.055  1.4248 -0.1366 -1.6579
17920THY    CA128766   5.506   5.960   6.237 -0.3454  0.3462  0.4277
17920THY    CA228767   5.582   6.003   6.351  0.3323 -0.2000 -0.8710
17920THY    CP128768   5.697   6.104   6.342  0.0997 -0.8479 -0.8466
17920THY    HP128769   5.699   6.152   6.243  0.8867 -1.5121 -2.1832
17920THY    CP228770   5.825   6.025   6.353  0.3507 -0.4960  1.0938
17920THY    HP228771   5.844   5.966   6.263 -0.2323 -0.4942  0.8926
17920THY    HP328772   5.819   5.944   6.428 -2.7451 -0.1191  1.5334
17920THY    HP428773   5.916   6.081   6.378  2.1884 -0.6294 -1.6149
17920THY    CP328774   5.695   6.208   6.454 -0.0850  0.0156 -1.0945
17920THY    HP528775   5.779   6.279   6.453  0.3473 -0.6973 -1.5964
17920THY    HP628776   5.687   6.165   6.554  0.0626 -0.4991 -2.3736
17920THY    HP728777   5.607   6.268   6.428  0.6430 -0.2412 -0.1080
17920THY    CA328778   5.556   5.936   6.473  0.0626  0.3823  0.1490
17920THY    HA328779   5.611   5.959   6.563 -1.7340  1.6741 -0.4011
17920THY    CA428780   5.461   5.839   6.486  0.4664 -0.6197  0.2730
17920THY    HA428781   5.446   5.787   6.580 -1.7067 -0.6995  0.6745
17920THY    CA528782   5.378   5.807   6.380  0.7716  0.5576 -0.2949
17920THY    CM128783   5.265   5.710   6.383 -0.1444 -0.1607  0.4527
17920THY    HM128784   5.222   5.695   6.483 -0.2699 -0.3411 -0.4874
17920THY    HM228785   5.307   5.611   6.362  0.1599 -0.3815  0.6294
17920THY    HM328786   5.177   5.723   6.318  0.1239 -0.7305 -0.4685
17920THY    CA628787   5.402   5.872   6.254  0.0985  0.1631  0.1764
17920THY    HA628788   5.338   5.855   6.168  0.7144 -0.5324  1.2362
17921THY      O28789   5.438   0.731   5.265  0.2111  0.5138 -0.0203
17921THY     HO28790   5.510   0.687   5.216  0.8548  1.2060  0.2368
17921THY    CA128791   5.482   0.861   5.287  0.2177  0.6442 -0.2343
17921THY    CA228792   5.402   0.956   5.365  0.2229  0.4525  0.0355
17921THY    CP128793   5.280   0.905   5.441  0.1773 -1.3081 -0.0297
17921THY    HP128794   5.240   0.810   5.403  0.7073 -1.5202 -0.1719
17921THY    CP228795   5.158   1.010   5.411 -0.2563 -0.7494  0.2242
17921THY    HP228796   5.167   1.099   5.475  0.9982 -0.0008 -0.4141
17921THY    HP328797   5.066   0.965   5.450  0.5297  1.9750  0.7823
17921THY    HP428798   5.140   1.024   5.304  1.9852 -0.9789  1.8576
17921THY    CP328799   5.297   0.891   5.591 -0.0545 -0.3824 -0.2998
17921THY    HP528800   5.357   0.803   5.615 -0.4558  2.8507  0.1825
17921THY    HP628801   5.203   0.873   5.645  1.2047  1.6784 -1.0092
17921THY    HP728802   5.349   0.975   5.638  1.8235 -1.1279 -0.9920
17921THY    CA328803   5.461   1.078   5.390 -0.2958  0.0920 -0.6916
17921THY    HA328804   5.412   1.146   5.460 -0.2567 -0.0965 -0.4670
17921THY    CA428805   5.587   1.111   5.335 -0.1732 -0.5880 -0.5130
17921THY    HA428806   5.633   1.205   5.363 -0.3899  1.1713 -0.8912
17921THY    CA528807   5.653   1.019   5.253  0.4557  0.0031 -0.5519
17921THY    CM128808   5.795   1.052   5.210  0.2795 -0.2230  0.3643
17921THY    HM128809   5.795   1.160   5.191  0.8269 -0.2481  0.3618
17921THY    HM228810   5.835   0.996   5.125 -1.6872  0.0448 -1.6434
17921THY    HM328811   5.862   1.026   5.293  0.1072 -0.6449 -1.6186
17921THY    CA628812   5.595   0.895   5.224  0.0899 -0.0119 -0.9259
17921THY    HA628813   5.657   0.825   5.167  2.1778 -0.4844  1.1634
17922THY      O28814   5.347   4.858   7.224  0.6845  0.0223  0.0582
17922THY     HO28815   5.430   4.832   7.180 -0.0165 -1.6746  0.5977
17922THY    CA128816   5.315   4.750   7.307 -0.0835  0.3128  0.6282
17922THY    CA228817   5.416   4.664   7.364  0.2295  0.4385  0.3880
17922THY    CP128818   5.566   4.696   7.346  0.1982 -0.4344  0.2218
17922THY    HP128819   5.570   4.739   7.245  0.2575  0.4896  2.4905
17922THY    CP228820   5.668   4.584   7.369  0.0539 -0.6870 -0.1652
17922THY    HP228821   5.632   4.496   7.314 -1.3999  0.2089 -0.1606
17922THY    HP328822   5.678   4.548   7.472  0.6465 -1.5284 -2.6161
17922THY    HP428823   5.770   4.611   7.339  0.9926  1.7782 -0.7154
17922THY    CP328824   5.612   4.800   7.447 -0.0343 -0.2551  0.2903
17922THY    HP528825   5.721   4.812   7.446  0.2008  0.8036 -1.4533
17922THY    HP628826   5.575   4.765   7.545 -0.5378 -0.9159 -1.0949
17922THY    HP728827   5.558   4.890   7.416 -1.8237 -2.1811 -1.3429
17922THY    CA328828   5.376   4.558   7.447 -0.0261  0.5063 -0.5045
17922THY    HA328829   5.447   4.511   7.514  1.5166 -1.3387 -0.9108
17922THY    CA428830   5.241   4.538   7.476 -0.0505  0.0910 -0.3792
17922THY    HA428831   5.207   4.466   7.550  1.6396  1.3591  0.0605
17922THY    CA528832   5.145   4.609   7.418 -0.1445  0.5814 -0.2248
17922THY    CM128833   4.998   4.594   7.443  0.0609 -0.2017 -0.5028
17922THY    HM128834   4.973   4.556   7.543 -1.2432 -0.6157 -0.8112
17922THY    HM228835   4.956   4.526   7.368  2.5375 -1.8649 -0.3205
17922THY    HM328836   4.946   4.690   7.430  0.7218 -1.3465 -0.2840
17922THY    CA628837   5.180   4.714   7.335 -0.4760 -0.3027  0.1943
17922THY    HA628838   5.103   4.777   7.291  0.3375  0.9012  2.1141
17923THY      O28839   3.408   1.357   4.847  0.3088  0.3569 -0.4639
17923THY     HO28840   3.380   1.290   4.783 -0.7861  1.7667 -1.3917
17923THY    CA128841   3.512   1.425   4.789  0.0757 -0.1671  0.4092
17923THY    CA228842   3.598   1.506   4.869  0.5448  0.5611 -0.1810
17923THY    CP128843   3.554   1.533   5.009  0.4819  0.3124  0.3401
17923THY    HP128844   3.476   1.462   5.038 -1.4503  0.8593  2.5573
17923THY    CP228845   3.471   1.669   5.000 -0.0264 -0.1763 -0.7005
17923THY    HP228846   3.388   1.656   4.930  0.6009 -1.1654  0.4287
17923THY    HP328847   3.538   1.749   4.968  0.1601 -2.9774 -1.8604
17923THY    HP428848   3.433   1.686   5.101  2.0625  0.7566 -1.3392
17923THY    CP328849   3.668   1.540   5.110  0.2883 -0.3937 -0.3679
17923THY    HP528850   3.730   1.629   5.092  1.1440 -1.1043 -1.0968
17923THY    HP628851   3.739   1.460   5.088  1.7256 -2.7753  1.4038
17923THY    HP728852   3.632   1.540   5.213 -0.0954 -0.5282 -0.8581
17923THY    CA328853   3.713   1.567   4.811 -0.6472 -0.2876  0.0398
17923THY    HA328854   3.773   1.634   4.872  0.1516 -1.5353  0.4837
17923THY    CA428855   3.725   1.552   4.674  0.8564 -0.3037  0.4954
17923THY    HA428856   3.812   1.604   4.634  0.6845  1.0204  1.8637
17923THY    CA528857   3.653   1.456   4.598  0.3975  0.0766  0.5019
17923THY    CM128858   3.707   1.406   4.469 -0.4643  0.1890  0.8006
17923THY    HM128859   3.795   1.466   4.441  1.0206  2.1130 -0.3570
17923THY    HM228860   3.635   1.389   4.389  1.0070 -0.4103 -4.4551
17923THY    HM328861   3.754   1.307   4.477  1.3755 -1.3142  1.4976
17923THY    CA628862   3.544   1.396   4.661  0.1032  0.5045 -0.5304
17923THY    HA628863   3.490   1.321   4.604  1.0723 -1.3677  0.1207
17924THY      O28864   3.656   8.564   5.902  0.6002 -0.5961  0.2166
17924THY     HO28865   3.647   8.602   5.991 -0.7782 -1.1208  1.1851
17924THY    CA128866   3.529   8.541   5.863  1.1439 -0.1340 -0.0477
17924THY    CA228867   3.494   8.520   5.722  0.1346 -1.1293 -0.3325
17924THY    CP128868   3.595   8.558   5.622 -0.2927 -0.4887  0.6351
17924THY    HP128869   3.692   8.559   5.671 -1.5161  2.1648 -0.4787
17924THY    CP228870   3.565   8.691   5.562 -0.7418  0.8690 -0.3992
17924THY    HP228871   3.463   8.711   5.527 -0.9153  0.5609 -1.7319
17924THY    HP328872   3.635   8.721   5.483 -1.5610  0.4724  0.5246
17924THY    HP428873   3.574   8.764   5.643 -0.5016 -1.2475  2.0462
17924THY    CP328874   3.607   8.452   5.505 -0.0046 -0.2229 -0.3148
17924THY    HP528875   3.700   8.466   5.448  0.0796  0.3291  1.7950
17924THY    HP628876   3.526   8.459   5.432 -2.3028  2.0946 -1.1049
17924THY    HP728877   3.613   8.352   5.548  1.7043  2.2877  0.7421
17924THY    CA328878   3.365   8.475   5.701  0.5191 -0.3307 -0.8658
17924THY    HA328879   3.320   8.473   5.602 -1.1763  0.3719  0.0622
17924THY    CA428880   3.284   8.449   5.811 -0.3765 -0.9180 -0.5433
17924THY    HA428881   3.182   8.428   5.781  0.0196 -1.7705 -1.3007
17924THY    CA528882   3.324   8.470   5.945 -0.4554 -0.8094  0.0648
17924THY    CM128883   3.223   8.457   6.054  0.1033  0.1153 -0.3930
17924THY    HM128884   3.167   8.551   6.057  0.4984  2.0660 -0.1814
17924THY    HM228885   3.265   8.444   6.155  0.1623  0.2088  0.4932
17924THY    HM328886   3.158   8.371   6.034  0.3052 -2.6137  0.0068
17924THY    CA628887   3.443   8.521   5.974  0.6142 -0.1439  0.3069
17924THY    HA628888   3.465   8.541   6.079 -1.8158  0.5070 -0.0548
17925THY      O28889   6.392   7.491   2.392 -0.1616 -0.2606  0.8182
17925THY     HO28890   6.464   7.538   2.438 -0.9176  2.7253 -0.7326
17925THY    CA128891   6.449   7.385   2.331 -0.7335 -0.1879 -0.3056
17925THY    CA228892   6.411   7.331   2.209  0.0059  0.3522  0.0708
17925THY    CP128893   6.309   7.394   2.118  0.3650 -0.0966 -0.2093
17925THY    HP128894   6.256   7.476   2.169 -0.6820  0.8655 -1.4505
17925THY    CP228895   6.198   7.304   2.061 -0.3976  0.2002 -0.6415
17925THY    HP228896   6.234   7.241   1.979  1.0821  0.4618 -0.1659
17925THY    HP328897   6.123   7.375   2.025 -0.1865  0.6378 -0.1902
17925THY    HP428898   6.153   7.252   2.146 -0.3441  0.9197  0.4601
17925THY    CP328899   6.392   7.458   2.002  0.1402 -0.2219  0.6475
17925THY    HP528900   6.458   7.387   1.951  1.5404  0.4910  1.3808
17925THY    HP628901   6.453   7.532   2.055  0.9164 -0.0472 -0.1057
17925THY    HP728902   6.318   7.503   1.935  0.6024  0.2058  2.1062
17925THY    CA328903   6.477   7.216   2.156  0.4200 -0.0456 -0.4471
17925THY    HA328904   6.447   7.174   2.060  3.5285 -2.1461  1.6521
17925THY    CA428905   6.587   7.163   2.223 -0.1632  0.4345 -0.1683
17925THY    HA428906   6.639   7.074   2.188  0.1756  1.8659 -0.5514
17925THY    CA528907   6.628   7.217   2.350  0.4307 -0.0560  0.3398
17925THY    CM128908   6.742   7.151   2.411  0.1515 -0.3766 -0.5839
17925THY    HM128909   6.740   7.041   2.404 -0.6139 -1.1881 -0.5268
17925THY    HM228910   6.731   7.180   2.516  2.3683  0.0875 -1.1963
17925THY    HM328911   6.833   7.197   2.370  0.7426  1.3412 -0.1550
17925THY    CA628912   6.555   7.328   2.405  0.7949 -0.2405  0.3049
17925THY    HA628913   6.587   7.367   2.501  2.2363 -0.5227 -0.1290
17926THY      O28914   2.185   8.256   2.146 -0.1703 -0.5727 -0.1949
17926THY     HO28915   2.232   8.173   2.163  2.6930 -1.1547  1.1386
17926THY    CA128916   2.167   8.265   2.013  0.5063 -0.3519  1.3969
17926THY    CA228917   2.115   8.150   1.946  0.2899 -1.1099 -0.5945
17926THY    CP128918   2.033   8.049   2.031  0.3553 -0.8456  0.6045
17926THY    HP128919   2.017   8.096   2.128 -1.1706 -0.7154 -0.1106
17926THY    CP228920   2.109   7.919   2.060  0.1679  0.6126 -0.5697
17926THY    HP228921   2.119   7.862   1.966 -0.1408 -1.2154  2.1676
17926THY    HP328922   2.056   7.855   2.131  2.3897  2.1012 -0.8705
17926THY    HP428923   2.209   7.935   2.101 -1.3458  4.4628 -0.0132
17926THY    CP328924   1.897   8.006   1.968 -0.0644 -0.2823  0.4406
17926THY    HP528925   1.843   7.944   2.040 -0.5471 -0.3641  0.7619
17926THY    HP628926   1.921   7.938   1.885 -0.1677  2.5676 -3.3875
17926THY    HP728927   1.834   8.093   1.946 -1.3442  2.9086  0.4294
17926THY    CA328928   2.118   8.150   1.808 -0.7305  0.4000 -0.0598
17926THY    HA328929   2.086   8.066   1.746  1.0368  1.9870 -2.0295
17926THY    CA428930   2.166   8.260   1.736  0.0831  0.2919  0.9209
17926THY    HA428931   2.153   8.251   1.629  1.1055  0.3625 -3.1569
17926THY    CA528932   2.210   8.374   1.806 -0.2286 -0.2127  0.9152
17926THY    CM128933   2.260   8.493   1.730  0.0006 -0.2352 -0.6933
17926THY    HM128934   2.188   8.576   1.743  2.1804  2.1801  0.9573
17926THY    HM228935   2.272   8.468   1.624 -1.4371 -0.2921 -1.2368
17926THY    HM328936   2.358   8.525   1.765 -0.1471  0.0049 -0.5050
17926THY    CA628937   2.212   8.368   1.946  0.9181  0.1398 -0.5311
17926THY    HA628938   2.257   8.453   1.997  0.8411  1.1864 -1.0992
17927THY      O28939   1.979   0.855   3.902 -0.2206  0.0205  0.1222
17927THY     HO28940   1.905   0.814   3.853  0.6725  0.1437 -1.7420
17927THY    CA128941   2.088   0.853   3.815  0.8754 -0.4008 -0.7426
17927THY    CA228942   2.214   0.916   3.841 -0.1737 -0.0261  0.0800
17927THY    CP128943   2.224   1.007   3.967 -0.5600  0.6055 -0.6703
17927THY    HP128944   2.130   1.025   4.020 -0.9179  0.0327 -0.8335
17927THY    CP228945   2.287   1.145   3.933  0.1009  0.3780  0.0519
17927THY    HP228946   2.380   1.130   3.877 -1.4675 -2.5384  0.4905
17927THY    HP328947   2.316   1.202   4.023 -2.2039  0.6696  0.8573
17927THY    HP428948   2.221   1.200   3.865 -1.0902  1.4720  0.0394
17927THY    CP328949   2.321   0.943   4.068 -0.5476  0.2931  0.4799
17927THY    HP528950   2.292   0.840   4.091  0.8289  0.3520  0.0850
17927THY    HP628951   2.317   1.007   4.157  0.9178  0.1591  0.8009
17927THY    HP728952   2.426   0.944   4.036 -0.5092  0.2903 -1.0790
17927THY    CA328953   2.321   0.889   3.751 -0.0359  0.0633  0.1386
17927THY    HA328954   2.418   0.927   3.779  0.3645 -0.9644 -0.0959
17927THY    CA428955   2.297   0.801   3.642 -0.0697  0.3861 -0.2618
17927THY    HA428956   2.389   0.766   3.596  0.6615  2.6430 -1.4935
17927THY    CA528957   2.178   0.728   3.628  0.3123 -0.4189 -0.5716
17927THY    CM128958   2.174   0.613   3.545  0.2699  0.2929  0.4345
17927THY    HM128959   2.212   0.633   3.444 -0.8828  0.1601  2.1955
17927THY    HM228960   2.080   0.559   3.533  0.2062 -0.4611  0.7014
17927THY    HM328961   2.247   0.543   3.586  3.6169  1.5187  4.2490
17927THY    CA628962   2.069   0.760   3.715 -0.0539  0.6629  0.0884
17927THY    HA628963   1.980   0.698   3.713 -0.1207 -0.3740  0.1945
17928THY      O28964   1.668   7.388   5.782 -0.2314 -0.3026 -0.2045
17928THY     HO28965   1.632   7.316   5.836 -2.9208  0.6016  1.6748
17928THY    CA128966   1.558   7.460   5.740 -0.8092 -0.1830  0.4104
17928THY    CA228967   1.578   7.555   5.646  0.2015 -0.3858 -0.2391
17928THY    CP128968   1.710   7.592   5.585  0.0292  0.2985  0.2308
17928THY    HP128969   1.782   7.588   5.668  1.6549 -1.1141 -0.7019
17928THY    CP228970   1.723   7.741   5.531  0.3766 -0.5535  0.7391
17928THY    HP228971   1.652   7.767   5.453 -2.6201  1.8206  0.2498
17928THY    HP328972   1.825   7.764   5.497  0.1386 -0.3133  2.2814
17928THY    HP428973   1.711   7.821   5.605 -0.2060  0.2271 -0.0531
17928THY    CP328974   1.745   7.487   5.478 -0.2483  0.2163  0.6744
17928THY    HP528975   1.790   7.399   5.525  0.5020 -2.2842 -0.3774
17928THY    HP628976   1.821   7.533   5.413  0.2986  0.9178  0.7809
17928THY    HP728977   1.659   7.457   5.418  2.6640 -3.0849 -1.9101
17928THY    CA328978   1.461   7.620   5.594  0.3836  0.1554  0.1352
17928THY    HA328979   1.468   7.687   5.509  0.9463 -0.0821 -0.2120
17928THY    CA428980   1.336   7.600   5.655 -0.5443 -0.7946  0.1969
17928THY    HA428981   1.242   7.647   5.628 -0.2440 -1.5076  0.4063
17928THY    CA528982   1.323   7.518   5.767 -0.0717 -0.0162 -0.0069
17928THY    CM128983   1.189   7.504   5.823  0.3876  0.1994 -0.2059
17928THY    HM128984   1.192   7.455   5.920  0.6419  0.9189  1.1886
17928THY    HM228985   1.124   7.445   5.757  1.0145  1.1404 -1.9947
17928THY    HM328986   1.143   7.603   5.835  0.1967  1.5946 -0.4514
17928THY    CA628987   1.433   7.446   5.801 -0.5655 -0.2302 -0.3949
17928THY    HA628988   1.424   7.364   5.872  1.6568  0.5037 -0.0788
17929THY      O28989   5.413   6.330   2.823  0.5590  0.0785 -0.6004
17929THY     HO28990   5.370   6.382   2.753  1.1852  0.8247  0.9886
17929THY    CA128991   5.445   6.205   2.779 -1.2402  0.8865 -0.4815
17929THY    CA228992   5.558   6.138   2.838 -0.0550 -0.0389  0.1633
17929THY    CP128993   5.640   6.200   2.955  0.0489 -0.1063 -0.9412
17929THY    HP128994   5.582   6.278   3.007  0.6128 -0.5224 -0.2279
17929THY    CP228995   5.773   6.262   2.905  1.2684 -0.4016  0.9095
17929THY    HP228996   5.854   6.190   2.890  0.7090  0.1887  0.1514
17929THY    HP328997   5.811   6.342   2.970  1.2133  0.1563  0.4800
17929THY    HP428998   5.763   6.309   2.806  3.5815 -0.4963  1.3166
17929THY    CP328999   5.667   6.101   3.067 -0.5951  0.2369  0.0096
17929THY    HP529000   5.761   6.047   3.057  0.7321 -0.1844  2.2845
17929THY    HP629001   5.588   6.026   3.081  1.3390 -0.8583 -2.3372
17929THY    HP729002   5.674   6.149   3.166 -1.6414 -0.7296  2.3559
17929THY    CA329003   5.603   6.013   2.788 -0.2651 -0.2545 -0.1161
17929THY    HA329004   5.680   5.949   2.829 -1.0608  0.4488 -0.6409
17929THY    CA429005   5.542   5.977   2.669 -0.9235 -0.6267 -0.2211
17929THY    HA429006   5.577   5.881   2.632  0.6828 -0.1108  0.1347
17929THY    CA529007   5.448   6.054   2.603  0.2043 -0.1775  0.2097
17929THY    CM129008   5.402   6.009   2.470 -0.0619  0.3544 -0.4134
17929THY    HM129009   5.312   5.948   2.478 -0.0154 -1.1491 -0.7189
17929THY    HM229010   5.479   5.952   2.417 -0.8005 -3.3771  1.7549
17929THY    HM329011   5.381   6.094   2.404 -1.3577  0.4534 -0.6446
17929THY    CA629012   5.398   6.168   2.655  0.7279 -0.1019  0.3390
17929THY    HA629013   5.328   6.230   2.600  2.0517 -0.2032  1.8136
17930THY      O29014   0.354   4.979   2.382 -0.0132  0.2672  0.3702
17930THY     HO29015   0.406   5.043   2.434  1.8200  1.0169 -1.6125
17930THY    CA129016   0.426   4.918   2.281 -0.1951  0.4297 -0.3611
17930THY    CA229017   0.368   4.879   2.161  0.7162 -0.6208  0.4862
17930THY    CP129018   0.217   4.911   2.138 -0.1391  0.1266  0.1912
17930THY    HP129019   0.182   5.003   2.187 -1.6925 -1.2401  0.3852
17930THY    CP229020   0.125   4.814   2.199  0.4088 -0.2563  1.2239
17930THY    HP229021   0.148   4.783   2.302 -0.4142  0.2315  2.1790
17930THY    HP329022   0.111   4.728   2.132 -1.1286  0.5364  0.8097
17930THY    HP429023   0.025   4.856   2.214 -0.5911  0.6994 -1.3110
17930THY    CP329024   0.186   4.935   1.993  0.3806 -0.8349  0.4417
17930THY    HP529025   0.176   4.840   1.939  1.1303  0.6608 -0.5236
17930THY    HP629026   0.260   5.000   1.946 -0.3893 -0.5524  1.5456
17930THY    HP729027   0.097   4.997   1.977  1.3764 -1.1601  1.8187
17930THY    CA329028   0.445   4.808   2.069 -0.2823  0.1809  0.9238
17930THY    HA329029   0.403   4.764   1.979 -2.6631  1.3864  0.5574
17930THY    CA429030   0.580   4.779   2.098  0.0510 -0.2546  0.0097
17930THY    HA429031   0.641   4.719   2.031 -0.6232  0.6696 -1.7808
17930THY    CA529032   0.638   4.822   2.217  0.8903  0.3326 -0.3834
17930THY    CM129033   0.781   4.785   2.245  0.3880 -0.5336 -0.2771
17930THY    HM129034   0.792   4.678   2.221 -1.3634  0.1406 -0.6534
17930THY    HM229035   0.808   4.785   2.351  2.1651 -0.9539 -0.8525
17930THY    HM329036   0.854   4.841   2.187 -1.0375 -0.7959  1.3700
17930THY    CA629037   0.563   4.895   2.304 -0.3002 -0.0035  0.0743
17930THY    HA629038   0.617   4.930   2.391  0.1213 -0.7004  1.2124
17931THY      O29039   2.734   8.975   3.004  0.1309 -0.1189  0.3130
17931THY     HO29040   2.664   9.031   3.041 -1.2096 -0.0437 -1.3301
17931THY    CA129041   2.737   8.868   3.077  0.7447 -0.6079  0.3310
17931THY    CA229042   2.764   8.736   3.026  0.1510 -1.1207  0.2086
17931THY    CP129043   2.796   8.713   2.882 -0.0087  0.3474 -0.0666
17931THY    HP129044   2.754   8.797   2.825  0.4767  0.0221 -0.0391
17931THY    CP229045   2.734   8.587   2.831 -0.0611 -0.0995  0.4911
17931THY    HP229046   2.789   8.499   2.865 -0.6085 -1.9115 -0.6148
17931THY    HP329047   2.751   8.593   2.723  1.6686  0.1029 -0.1663
17931THY    HP429048   2.627   8.594   2.855 -0.1213  0.0063 -0.5669
17931THY    CP329049   2.946   8.711   2.864 -0.1595 -0.6318  1.0939
17931THY    HP529050   2.984   8.802   2.912  0.1135  2.0845 -0.3500
17931THY    HP629051   2.968   8.723   2.757 -0.7632 -0.9688 -0.4928
17931THY    HP729052   3.009   8.626   2.892 -2.9657 -0.7017 -1.1579
17931THY    CA329053   2.770   8.630   3.118 -0.8051  0.2215 -0.5101
17931THY    HA329054   2.790   8.529   3.084 -0.7143 -0.9586 -0.1094
17931THY    CA429055   2.776   8.664   3.252 -0.1470 -0.2962  0.2876
17931THY    HA429056   2.805   8.587   3.324  0.3557 -1.8099 -0.9828
17931THY    CA529057   2.740   8.789   3.303 -0.0990 -0.7130 -0.8745
17931THY    CM129058   2.730   8.816   3.454  0.2947 -0.5454  1.0454
17931THY    HM129059   2.828   8.826   3.503  0.6820 -1.0090 -0.1889
17931THY    HM229060   2.667   8.739   3.500 -1.6710 -0.0809  2.8522
17931THY    HM329061   2.687   8.916   3.465 -0.6461  0.6921  0.5212
17931THY    CA629062   2.707   8.884   3.211  0.0696  0.6289  0.4393
17931THY    HA629063   2.667   8.978   3.248 -1.9759 -1.2502  0.4137
17932THY      O29064   7.557   1.937   4.452 -0.0972  0.7467 -0.2282
17932THY     HO29065   7.497   1.927   4.528  1.0877  1.5531 -1.6574
17932THY    CA129066   7.669   1.871   4.477  0.1095 -0.4177 -0.0605
17932THY    CA229067   7.799   1.916   4.451 -0.1850  0.3249  0.4280
17932THY    CP129068   7.815   2.040   4.364  0.6778 -0.0124 -0.2236
17932THY    HP129069   7.739   2.040   4.286  0.1852  0.4319  1.1179
17932THY    CP229070   7.936   2.037   4.284  0.5893 -0.4909 -0.4319
17932THY    HP229071   8.022   2.050   4.351  1.5365 -1.7983  0.2212
17932THY    HP329072   7.928   2.125   4.220 -0.4264  2.4689  1.7962
17932THY    HP429073   7.941   1.946   4.223  1.2266 -2.2847  0.7600
17932THY    CP329074   7.807   2.163   4.451 -0.1173  0.1161 -0.4329
17932THY    HP529075   7.884   2.163   4.529 -1.1221  1.1379  0.3908
17932THY    HP629076   7.706   2.158   4.495 -1.2142 -2.0378  1.0716
17932THY    HP729077   7.806   2.249   4.384  0.4414 -3.1972 -2.8071
17932THY    CA329078   7.907   1.840   4.505  0.2309 -0.6009 -0.5236
17932THY    HA329079   8.009   1.870   4.480  0.4622  2.1151  1.4350
17932THY    CA429080   7.883   1.730   4.588  0.1306 -0.4539  0.4535
17932THY    HA429081   7.968   1.674   4.625 -0.6727  1.8594  0.6633
17932THY    CA529082   7.752   1.689   4.619  0.0771 -0.0291 -0.1291
17932THY    CM129083   7.730   1.577   4.707  0.4452 -1.3146  0.9573
17932THY    HM129084   7.814   1.507   4.704 -0.8527  1.0121 -0.8604
17932THY    HM229085   7.648   1.511   4.675  1.2166 -2.0036  0.3069
17932THY    HM329086   7.707   1.603   4.810  0.4683 -1.1513  0.3568
17932THY    CA629087   7.648   1.757   4.554 -0.2837 -0.3226 -0.0760
17932THY    HA629088   7.551   1.716   4.577  0.6800  2.3276 -1.1389
17933THY      O29089   4.280   1.710   7.583 -0.2127 -0.3278 -0.8455
17933THY     HO29090   4.353   1.763   7.621 -1.0422  1.7025 -1.0438
17933THY    CA129091   4.306   1.730   7.452 -0.2292  0.0794 -0.2007
17933THY    CA229092   4.215   1.779   7.361 -0.0195 -0.4610 -0.4482
17933THY    CP129093   4.079   1.822   7.405  0.5408  0.6140  0.5942
17933THY    HP129094   4.039   1.751   7.478 -1.7650 -0.3188  0.8800
17933THY    CP229095   3.965   1.831   7.296  0.8522  0.4546  0.2046
17933THY    HP229096   3.972   1.903   7.214 -3.2686 -1.1893 -1.0028
17933THY    HP329097   3.872   1.840   7.353 -0.3038 -1.5854  1.9939
17933THY    HP429098   3.953   1.732   7.251  1.1232 -1.0327  0.8294
17933THY    CP329099   4.085   1.948   7.496  0.3364  0.0520 -0.0419
17933THY    HP529100   3.986   1.968   7.538  1.1912  1.9184  0.5775
17933THY    HP629101   4.125   2.023   7.427 -0.6472 -2.0563 -1.3731
17933THY    HP729102   4.154   1.935   7.581 -0.8030  0.8576 -1.0663
17933THY    CA329103   4.260   1.811   7.238 -0.0728  0.0223 -0.6650
17933THY    HA329104   4.188   1.856   7.171  0.2050  1.7083  2.4994
17933THY    CA429105   4.395   1.797   7.201  0.2226  0.5050  0.6415
17933THY    HA429106   4.436   1.830   7.106  1.0100  0.7450  0.3834
17933THY    CA529107   4.483   1.728   7.287  0.5075  0.1309 -0.6497
17933THY    CM129108   4.630   1.700   7.252  0.0149 -0.3051  0.5549
17933THY    HM129109   4.637   1.705   7.143 -1.5604 -0.5260 -1.0373
17933THY    HM229110   4.652   1.596   7.280 -2.9254 -3.6132 -1.1777
17933THY    HM329111   4.702   1.762   7.307  0.7315  0.1131 -0.6082
17933THY    CA629112   4.436   1.695   7.418  0.5951 -0.3735 -1.0558
17933THY    HA629113   4.507   1.657   7.491  2.6777 -1.4535  0.5492
17934THY      O29114   1.498   7.264   3.783  0.3421  0.4977 -0.3782
17934THY     HO29115   1.435   7.270   3.710  1.7037 -0.5720  2.3282
17934THY    CA129116   1.492   7.391   3.838  0.0811 -0.1398 -0.2431
17934THY    CA229117   1.535   7.423   3.970 -0.6890  0.1649 -0.6829
17934THY    CP129118   1.592   7.313   4.051  0.0431  0.5795 -0.1691
17934THY    HP129119   1.548   7.222   4.008 -1.0886 -2.2673  1.5795
17934THY    CP229120   1.542   7.314   4.192 -0.1739  0.2399 -0.3367
17934THY    HP229121   1.433   7.324   4.185  0.1122 -1.4694  3.0871
17934THY    HP329122   1.584   7.402   4.242  0.3645 -2.4342  1.0264
17934THY    HP429123   1.568   7.222   4.245  1.6681  0.1744  0.1051
17934THY    CP329124   1.743   7.315   4.054  0.0463  0.2675 -0.8180
17934THY    HP529125   1.773   7.329   3.950 -0.2214  0.2266 -0.5174
17934THY    HP629126   1.793   7.231   4.103 -0.5941 -0.2773 -1.5320
17934THY    HP729127   1.779   7.407   4.102  0.5842  0.4101 -1.1040
17934THY    CA329128   1.553   7.559   4.003  0.4627  0.1218  0.1754
17934THY    HA329129   1.599   7.591   4.096 -0.8287 -0.1629  3.2008
17934THY    CA429130   1.490   7.660   3.926 -0.5018  0.0200 -0.3370
17934THY    HA429131   1.503   7.763   3.958 -1.0210  1.7683 -0.7755
17934THY    CA529132   1.433   7.620   3.799  0.4943  0.4384 -0.6879
17934THY    CM129133   1.381   7.740   3.715  0.0934  0.1459  0.1984
17934THY    HM129134   1.325   7.708   3.626 -1.5930  0.7794  1.2612
17934THY    HM229135   1.458   7.804   3.672 -0.3166  0.0912  0.6606
17934THY    HM329136   1.318   7.808   3.774 -0.9426  0.1012 -0.6822
17934THY    CA629137   1.428   7.488   3.758  0.0979  0.2553 -0.7184
17934THY    HA629138   1.387   7.461   3.661 -0.3383  0.0471  0.6267
17935THY      O29139   7.319   7.506   4.742 -0.0269  0.3649 -0.0321
17935THY     HO29140   7.355   7.418   4.763 -2.9450  0.6737 -1.2637
17935THY    CA129141   7.423   7.588   4.714 -0.5027  0.1739 -0.1111
17935THY    CA229142   7.412   7.718   4.677 -0.5114 -0.1121 -1.1109
17935THY    CP129143   7.272   7.793   4.672  0.0657 -0.0744  0.1584
17935THY    HP129144   7.199   7.732   4.728  1.5174  0.9585 -0.6970
17935THY    CP229145   7.227   7.823   4.533 -0.9622  0.1175 -0.1460
17935THY    HP229146   7.256   7.744   4.463 -1.1729 -0.3988  0.2323
17935THY    HP329147   7.270   7.916   4.493  2.8916  0.1357 -1.7525
17935THY    HP429148   7.122   7.837   4.505 -0.3337 -2.2924  0.1554
17935THY    CP329149   7.276   7.917   4.767 -0.0421  0.2777  0.3492
17935THY    HP529150   7.320   7.879   4.859  1.4120 -0.6505 -0.2864
17935THY    HP629151   7.177   7.960   4.785 -0.6553  0.4122 -1.0636
17935THY    HP729152   7.334   8.000   4.723 -1.0917 -0.3628  0.7629
17935THY    CA329153   7.532   7.785   4.643 -0.2040 -0.2322 -0.1221
17935THY    HA329154   7.530   7.892   4.626 -1.5898  1.7586  0.2455
17935THY    CA429155   7.649   7.725   4.629 -0.9898  0.2532  0.2628
17935THY    HA429156   7.738   7.777   4.594 -0.4667  0.2015 -0.6254
17935THY    CA529157   7.657   7.585   4.658  0.4642 -0.5557 -0.2350
17935THY    CM129158   7.782   7.507   4.629  0.2722 -0.0102 -0.3034
17935THY    HM129159   7.863   7.576   4.605 -1.1530 -0.6184  1.2218
17935THY    HM229160   7.779   7.444   4.539  2.5104 -0.7091  0.5033
17935THY    HM329161   7.812   7.448   4.717  0.9176  0.5725  0.8691
17935THY    CA629162   7.547   7.524   4.712  0.1210  0.3215  0.5671
17935THY    HA629163   7.552   7.422   4.748 -1.9231 -0.9978 -0.0630
17936THY      O29164   6.761   4.622   6.250 -0.2588  0.7213 -0.2617
17936THY     HO29165   6.734   4.657   6.163 -1.8950  1.3675  0.1793
17936THY    CA129166   6.812   4.499   6.221  0.3088  0.6362 -0.1620
17936THY    CA229167   6.870   4.427   6.323 -0.8146 -0.0762 -0.0834
17936THY    CP129168   6.868   4.469   6.465 -0.0701 -0.9672  0.6418
17936THY    HP129169   6.800   4.553   6.478 -2.2162  1.4960 -1.3179
17936THY    CP229170   7.002   4.528   6.500  0.1234 -0.1558 -0.5855
17936THY    HP229171   7.010   4.563   6.603 -2.2051 -0.3210  0.6467
17936THY    HP329172   7.022   4.623   6.449  1.3279 -0.8418 -1.1873
17936THY    HP429173   7.087   4.458   6.492 -2.5673  0.2489 -4.1979
17936THY    CP329174   6.812   4.365   6.571 -0.3852  0.0113  0.3883
17936THY    HP529175   6.812   4.424   6.663  1.8958  0.5469 -0.3625
17936THY    HP629176   6.860   4.269   6.591 -0.5869  1.2820  0.5459
17936THY    HP729177   6.706   4.344   6.548 -0.5879  1.5152 -0.3620
17936THY    CA329178   6.921   4.298   6.290 -0.1469 -0.1381  0.3925
17936THY    HA329179   6.957   4.225   6.362 -0.6976 -0.6001 -0.3460
17936THY    CA429180   6.909   4.250   6.158 -0.0272  0.2298 -0.3167
17936THY    HA429181   6.946   4.150   6.136  1.1390  1.4097 -0.1832
17936THY    CA529182   6.848   4.325   6.060  0.1147 -0.2582  0.2032
17936THY    CM129183   6.850   4.265   5.921  0.4041  0.2237 -0.1424
17936THY    HM129184   6.944   4.229   5.876 -0.4273 -0.0498 -2.1183
17936THY    HM229185   6.816   4.342   5.850 -2.4916 -2.0738 -3.2152
17936THY    HM329186   6.779   4.182   5.913 -1.1876  0.0216  1.1992
17936THY    CA629187   6.793   4.448   6.091 -0.7475 -0.1979 -0.7936
17936THY    HA629188   6.748   4.508   6.012  1.8265 -0.6393  0.6805
17937THY      O29189   5.832   3.260   2.018 -0.0189 -0.8393 -0.2541
17937THY     HO29190   5.924   3.234   2.000 -0.0016  0.1373 -0.9085
17937THY    CA129191   5.820   3.390   1.979 -0.2290  0.8585  0.2037
17937THY    CA229192   5.701   3.466   1.995  0.4512  1.0197  0.8777
17937THY    CP129193   5.565   3.403   2.055 -0.0365 -0.2342 -0.1421
17937THY    HP129194   5.563   3.294   2.052  2.6153 -1.0752 -0.2322
17937THY    CP229195   5.437   3.445   1.971  0.2247  0.4698 -0.5191
17937THY    HP229196   5.456   3.403   1.872  3.7613  0.2228  1.3529
17937THY    HP329197   5.429   3.553   1.954 -0.5287  0.0111 -0.6381
17937THY    HP429198   5.341   3.416   2.016  0.8772  2.5469  0.3526
17937THY    CP329199   5.544   3.435   2.202 -0.6916  0.0220  0.3619
17937THY    HP529200   5.438   3.428   2.230 -0.8192 -0.5345 -0.0042
17937THY    HP629201   5.580   3.534   2.231  1.7530  1.5947 -0.8827
17937THY    HP729202   5.599   3.368   2.269  2.8683 -0.2682  2.7366
17937THY    CA329203   5.707   3.603   1.986  0.0365  0.4159 -0.1492
17937THY    HA329204   5.618   3.664   1.994 -0.1523 -0.5731 -0.2938
17937THY    CA429205   5.836   3.661   1.967  0.0656  0.0447 -0.5947
17937THY    HA429206   5.838   3.768   1.987 -4.8829  0.9909 -0.4027
17937THY    CA529207   5.948   3.581   1.945 -0.5519  0.5147 -0.0443
17937THY    CM129208   6.076   3.655   1.932 -0.0507  0.2350  0.3690
17937THY    HM129209   6.074   3.704   1.833  3.2860  0.2526  0.7431
17937THY    HM229210   6.166   3.594   1.942 -1.4503  0.1681 -1.7929
17937THY    HM329211   6.086   3.726   2.015  0.2730  0.5479 -0.0412
17937THY    CA629212   5.938   3.443   1.943  0.7231  0.1450  0.2262
17937THY    HA629213   6.024   3.382   1.920  0.7587 -0.2778  0.4322
17938THY      O29214   9.180   4.778   3.202  0.3029 -0.5936 -0.3041
17938THY     HO29215   9.222   4.851   3.153 -3.3446 -0.5509  2.1158
17938THY    CA129216   9.167   4.677   3.112 -0.5000 -0.1069  0.3996
17938THY    CA229217   9.080   4.673   3.000 -0.4031  0.3358  0.1488
17938THY    CP129218   8.999   4.796   2.963 -0.3115 -0.5676 -0.0640
17938THY    HP129219   9.015   4.875   3.037  1.8083 -0.0575 -0.8902
17938THY    CP229220   8.851   4.747   2.950  0.3033  0.1151  0.0410
17938THY    HP229221   8.840   4.671   3.028  1.6229  1.1103  0.8353
17938THY    HP329222   8.825   4.704   2.852 -1.4031 -0.2024  1.6568
17938THY    HP429223   8.780   4.830   2.963 -1.1523 -0.0346 -1.1459
17938THY    CP329224   9.057   4.861   2.828  0.8362 -0.0534  0.6184
17938THY    HP529225   8.994   4.947   2.805 -0.5723 -0.8371 -0.5839
17938THY    HP629226   9.048   4.790   2.745 -2.6483  2.1743 -1.8562
17938THY    HP729227   9.161   4.897   2.838  0.2957 -0.7334  2.4941
17938THY    CA329228   9.081   4.553   2.917  0.2162  0.0939 -0.0545
17938THY    HA329229   9.019   4.540   2.829  0.9455 -0.5786  0.8972
17938THY    CA429230   9.173   4.450   2.948  0.1691  0.3872  0.2264
17938THY    HA429231   9.179   4.355   2.896 -1.8306  0.6859 -0.0987
17938THY    CA529232   9.262   4.457   3.060  1.0775  0.4363  0.2829
17938THY    CM129233   9.356   4.345   3.097 -0.1322  0.5857  0.0911
17938THY    HM129234   9.355   4.317   3.203 -1.4207  0.7486  0.6902
17938THY    HM229235   9.456   4.389   3.086 -0.5662  1.2029  1.2632
17938THY    HM329236   9.344   4.271   3.017 -0.2462 -3.1206  3.7059
17938THY    CA629237   9.261   4.576   3.132 -0.5865 -0.5026 -0.6982
17938THY    HA629238   9.341   4.593   3.204 -1.7155  0.2210  2.3106
17939THY      O29239   8.714   4.194   3.800 -0.2137  0.2294  0.1385
17939THY     HO29240   8.664   4.118   3.765  1.2010 -1.2733 -0.1637
17939THY    CA129241   8.684   4.200   3.934 -0.3124  0.1436  0.4804
17939THY    CA229242   8.714   4.303   4.017  0.6947 -0.3491 -0.0954
17939THY    CP129243   8.819   4.413   3.974 -0.2114 -0.4772 -0.5478
17939THY    HP129244   8.805   4.434   3.867 -0.3347 -0.7660 -1.9903
17939THY    CP229245   8.957   4.354   3.974 -0.2451 -0.0506 -0.1599
17939THY    HP229246   8.996   4.315   4.068  2.2922 -0.5693  0.9317
17939THY    HP329247   9.014   4.442   3.943 -0.9050  2.2388  1.1637
17939THY    HP429248   8.958   4.287   3.887 -4.8708 -0.7832  0.3500
17939THY    CP329249   8.824   4.541   4.049  0.5720  0.0272 -0.2186
17939THY    HP529250   8.904   4.545   4.124 -0.2794  0.9055  1.2655
17939THY    HP629251   8.724   4.574   4.080  1.1058 -0.1253  1.6451
17939THY    HP729252   8.852   4.621   3.979 -2.4776 -0.5304  0.4579
17939THY    CA329253   8.667   4.291   4.154  0.4475 -0.0227  0.0136
17939THY    HA329254   8.688   4.372   4.222  3.2123 -1.2719  0.4556
17939THY    CA429255   8.589   4.181   4.196  0.0611  0.1266  0.5077
17939THY    HA429256   8.553   4.178   4.298  0.7428  0.3546 -0.4059
17939THY    CA529257   8.559   4.080   4.103  0.5624 -0.0967 -0.7844
17939THY    CM129258   8.470   3.964   4.135 -0.1590  0.4710  0.2017
17939THY    HM129259   8.487   3.869   4.083  0.6895  0.5364  0.3096
17939THY    HM229260   8.362   3.977   4.118 -0.5223  2.3674 -0.1397
17939THY    HM329261   8.483   3.928   4.237  0.3868 -0.5380 -2.7707
17939THY    CA629262   8.616   4.090   3.973  0.4145  0.0449 -0.3042
17939THY    HA629263   8.594   4.015   3.897 -0.5989 -2.5210  2.3955
17940THY      O29264   9.091   6.257   3.289 -0.0764  0.1670  0.0921
17940THY     HO29265   9.054   6.172   3.257 -1.1744  0.8891  0.2787
17940THY    CA129266   9.191   6.215   3.375 -0.0379  0.1433 -0.6037
17940THY    CA229267   9.270   6.307   3.448  0.0073 -0.8555 -0.3755
17940THY    CP129268   9.231   6.451   3.441 -0.0633  0.1178 -0.3651
17940THY    HP129269   9.225   6.489   3.339 -1.4771  0.3558  0.1022
17940THY    CP229270   9.344   6.540   3.493  0.2442  0.0295  0.3297
17940THY    HP229271   9.324   6.643   3.462  1.2369  1.7038  1.0713
17940THY    HP329272   9.439   6.503   3.453 -0.5080  0.1638 -1.8515
17940THY    HP429273   9.357   6.540   3.602 -0.3939  0.1229  1.0597
17940THY    CP329274   9.094   6.458   3.513 -0.3544 -0.6722  0.3012
17940THY    HP529275   9.067   6.564   3.507 -1.6927 -0.9985 -0.0248
17940THY    HP629276   9.104   6.434   3.620  0.1407 -0.8091 -0.1220
17940THY    HP729277   9.011   6.404   3.465 -1.2642  1.1513 -0.0201
17940THY    CA329278   9.377   6.261   3.526 -0.7244  0.1158  0.2434
17940THY    HA329279   9.438   6.326   3.588  1.0337 -1.9368  0.6591
17940THY    CA429280   9.398   6.121   3.534  0.0283 -0.3302  0.5941
17940THY    HA429281   9.477   6.080   3.597  0.7691 -0.4525  1.7842
17940THY    CA529282   9.322   6.036   3.457 -0.5728  0.3462  0.1950
17940THY    CM129283   9.358   5.885   3.468 -0.0687  0.5435  0.2117
17940THY    HM129284   9.302   5.820   3.400 -0.2304  1.5407 -0.7268
17940THY    HM229285   9.323   5.836   3.559 -2.6776 -1.7436 -2.5402
17940THY    HM329286   9.466   5.868   3.461 -0.3933  0.9629 -2.3419
17940THY    CA629287   9.211   6.079   3.385 -0.0627 -0.7200 -0.0280
17940THY    HA629288   9.152   6.007   3.329  2.2261 -1.2904 -1.5795
17941THY      O29289   5.138   5.446   4.236 -0.0844  0.2991  0.1955
17941THY     HO29290   5.189   5.426   4.317  1.5916 -0.7799 -0.1755
17941THY    CA129291   5.203   5.548   4.182 -0.6304  0.3750  0.2717
17941THY    CA229292   5.167   5.587   4.057 -0.2720  0.0545  0.7783
17941THY    CP129293   5.059   5.509   3.975  0.7426 -0.2248 -0.2690
17941THY    HP129294   5.028   5.424   4.036 -1.2205  0.7504  1.0709
17941THY    CP229295   5.129   5.460   3.839 -0.4498 -0.5525  0.1556
17941THY    HP229296   5.228   5.423   3.866 -1.0360 -1.3710 -2.1939
17941THY    HP329297   5.134   5.542   3.766 -1.9459 -1.6907 -0.7110
17941THY    HP429298   5.070   5.386   3.783 -1.0084  0.0272  0.1472
17941THY    CP329299   4.933   5.593   3.942  0.2085  0.0924  0.1079
17941THY    HP529300   4.871   5.606   4.031 -0.5455 -0.2890 -0.7715
17941THY    HP629301   4.876   5.539   3.865 -0.1191  0.9759 -0.8269
17941THY    HP729302   4.958   5.696   3.912 -2.9902  1.3475  1.3828
17941THY    CA329303   5.231   5.691   3.996  0.7856 -0.4538 -0.0909
17941THY    HA329304   5.204   5.734   3.901  0.6824  0.5434  2.2031
17941THY    CA429305   5.332   5.759   4.073 -0.1915 -0.3812  0.4920
17941THY    HA429306   5.371   5.850   4.029 -0.6817 -3.7602 -0.7903
17941THY    CA529307   5.367   5.727   4.204  0.7408 -0.6033  0.1799
17941THY    CM129308   5.460   5.815   4.288 -0.0041 -0.0972 -0.7185
17941THY    HM129309   5.425   5.837   4.389  0.4571  0.4461 -2.4030
17941THY    HM229310   5.476   5.914   4.244  1.6481  0.1902 -0.8439
17941THY    HM329311   5.553   5.763   4.312  2.2867 -2.6228  1.8364
17941THY    CA629312   5.294   5.626   4.259  0.2667  0.2158  0.9225
17941THY    HA629313   5.313   5.590   4.360 -0.5611 -0.4510 -1.5926
17942THY      O29314   4.591   9.196   6.071  0.5575 -0.4545 -0.0458
17942THY     HO29315   4.566   9.108   6.038 -0.0376  0.5436 -0.2674
17942THY    CA129316   4.565   9.177   6.203 -0.3900  0.1927 -0.5830
17942THY    CA229317   4.637   9.247   6.308  0.2304 -0.5879  0.4678
17942THY    CP129318   4.722   9.366   6.272 -0.4144 -0.2309  1.1557
17942THY    HP129319   4.696   9.431   6.188  0.4357 -1.9391 -0.5933
17942THY    CP229320   4.856   9.302   6.235  0.2867 -0.1229 -0.0723
17942THY    HP229321   4.932   9.380   6.219 -1.5158  0.2217  1.8189
17942THY    HP329322   4.859   9.236   6.147  3.0719 -0.4731  0.3953
17942THY    HP429323   4.896   9.239   6.316  1.6162  0.0947  0.9976
17942THY    CP329324   4.734   9.470   6.389  0.3639  0.7733 -0.5714
17942THY    HP529325   4.765   9.424   6.483  0.5075  0.0002 -2.1181
17942THY    HP629326   4.641   9.527   6.390 -0.5459  0.9002 -2.0230
17942THY    HP729327   4.822   9.534   6.374 -0.7018  1.3680  1.1107
17942THY    CA329328   4.610   9.204   6.445  0.7566 -0.6318  0.3937
17942THY    HA329329   4.657   9.256   6.529  1.0155 -1.4611  1.5350
17942THY    CA429330   4.505   9.106   6.465 -0.0359 -0.3403  0.4999
17942THY    HA429331   4.480   9.084   6.568  0.9422 -0.2300 -0.1296
17942THY    CA529332   4.447   9.043   6.361 -0.4230 -0.6857  0.3214
17942THY    CM129333   4.352   8.920   6.381  0.3530  0.5823 -0.6587
17942THY    HM129334   4.248   8.942   6.356  0.3392  0.5389 -0.7735
17942THY    HM229335   4.350   8.895   6.487  1.3986  0.9738  0.7618
17942THY    HM329336   4.398   8.836   6.328  3.2665 -0.5474  1.4482
17942THY    CA629337   4.478   9.074   6.230 -0.1581 -0.3962 -0.1847
17942THY    HA629338   4.417   9.027   6.154  0.8925 -0.1246 -2.0694
17943THY      O29339   8.398   5.925   4.898  0.4802 -0.1591  0.0640
17943THY     HO29340   8.340   5.892   4.827  0.2514 -1.6796  3.2967
17943THY    CA129341   8.484   6.019   4.852 -0.2632 -0.2571 -0.4301
17943THY    CA229342   8.544   6.123   4.934  0.6152 -0.4410 -0.0827
17943THY    CP129343   8.514   6.138   5.086 -0.2086  0.5691  0.5246
17943THY    HP129344   8.417   6.093   5.110 -0.3014 -0.0683  0.3776
17943THY    CP229345   8.490   6.286   5.117 -0.0046  0.1502  0.1804
17943THY    HP229346   8.425   6.339   5.046 -0.6369  0.5298 -0.0833
17943THY    HP329347   8.589   6.334   5.124 -0.6104 -0.6848  1.6299
17943THY    HP429348   8.454   6.289   5.221  0.5364  0.5322  5.8074
17943THY    CP329349   8.625   6.069   5.169 -0.4071  0.3175  0.2650
17943THY    HP529350   8.721   6.120   5.168  0.1929 -1.5087 -0.7948
17943THY    HP629351   8.644   5.968   5.130 -3.4966  1.1716 -0.7744
17943THY    HP729352   8.595   6.071   5.274  1.0517  0.8389 -1.9456
17943THY    CA329353   8.643   6.195   4.870  0.0648  0.1691 -0.8100
17943THY    HA329354   8.701   6.267   4.927  0.5950 -1.2435 -0.0651
17943THY    CA429355   8.668   6.184   4.731 -0.1758  0.4775  0.1678
17943THY    HA429356   8.737   6.247   4.677 -0.7945  0.5914  0.9636
17943THY    CA529357   8.594   6.095   4.653  0.0637 -0.4798  0.3395
17943THY    CM129358   8.605   6.107   4.505 -0.1706  0.3172 -0.2432
17943THY    HM129359   8.549   6.024   4.459  0.9810 -0.5616 -0.5531
17943THY    HM229360   8.710   6.092   4.478 -0.3702 -0.2063 -0.7411
17943THY    HM329361   8.566   6.202   4.466 -1.3426  1.2319 -0.3239
17943THY    CA629362   8.499   6.010   4.712  0.1804  0.0148  0.7173
17943THY    HA629363   8.433   5.943   4.658  1.0681 -1.7549  1.2054
17944THY      O29364   9.057   5.454   5.007  0.2329  0.5326  0.1788
17944THY     HO29365   9.112   5.378   4.981  0.5494  0.5870  0.3879
17944THY    CA129366   9.032   5.510   4.886 -0.3151  0.4568  0.0490
17944THY    CA229367   8.953   5.625   4.869  0.1526  0.1425 -0.3407
17944THY    CP129368   8.884   5.693   4.996  0.0746  1.0100  0.4570
17944THY    HP129369   8.874   5.632   5.087  1.8585  1.3858  0.6807
17944THY    CP229370   8.741   5.737   4.959 -0.0508  0.8196  0.2395
17944THY    HP229371   8.739   5.829   4.899  0.6291 -0.3042 -0.4594
17944THY    HP329372   8.674   5.739   5.046  0.5408  1.4194 -2.4427
17944THY    HP429373   8.693   5.666   4.892 -1.2775  0.8490  1.0118
17944THY    CP329374   8.952   5.820   5.041 -0.3514  0.3309 -0.2316
17944THY    HP529375   8.922   5.870   5.133  1.9681  0.6552  0.7137
17944THY    HP629376   8.951   5.895   4.961  0.2263 -0.6712 -1.2427
17944THY    HP729377   9.059   5.795   5.037 -0.4041 -2.2093 -0.2818
17944THY    CA329378   8.936   5.683   4.744  0.0022  0.9022  0.4868
17944THY    HA329379   8.885   5.778   4.734 -0.2145 -0.9468  0.2046
17944THY    CA429380   8.990   5.623   4.634 -0.4163 -0.4426 -0.4538
17944THY    HA429381   8.966   5.661   4.535  2.9334 -0.6328  1.6470
17944THY    CA529382   9.060   5.501   4.649  0.3147 -0.6184 -0.2811
17944THY    CM129383   9.118   5.432   4.537 -0.0605  0.7327 -0.1103
17944THY    HM129384   9.115   5.322   4.537 -0.1330 -1.4404 -0.1601
17944THY    HM229385   9.218   5.470   4.516 -0.2107 -0.8384 -0.4956
17944THY    HM329386   9.065   5.455   4.444 -2.1379  1.5918 -1.1657
17944THY    CA629387   9.077   5.441   4.778  0.5421 -0.5109 -0.0026
17944THY    HA629388   9.141   5.354   4.786  3.3988 -0.9320  1.9233
17945THY      O29389   2.152   7.125   6.844  0.1816 -0.2981  0.1471
17945THY     HO29390   2.246   7.143   6.831  0.1190 -0.8314  0.1088
17945THY    CA129391   2.131   7.021   6.768  0.4305 -0.2116 -0.1810
17945THY    CA229392   2.004   7.005   6.713 -0.0829  0.0335 -0.5128
17945THY    CP129393   1.897   7.113   6.726  0.4057  0.3266 -0.6171
17945THY    HP129394   1.949   7.208   6.739  0.9858  3.8696 -1.2753
17945THY    CP229395   1.812   7.112   6.854 -0.1932 -0.3498 -0.0331
17945THY    HP229396   1.767   7.012   6.863  1.9855 -0.4402 -1.0791
17945THY    HP329397   1.726   7.181   6.854 -0.1470 -0.0156  0.0236
17945THY    HP429398   1.872   7.132   6.943  1.7881 -1.9490  1.4372
17945THY    CP329399   1.809   7.127   6.603  0.0576 -0.3761  0.4410
17945THY    HP529400   1.755   7.222   6.592 -0.2990 -2.2779  0.0573
17945THY    HP629401   1.730   7.052   6.598  0.1354  0.2301  0.3211
17945THY    HP729402   1.867   7.105   6.512  1.5413  0.2138  1.6721
17945THY    CA329403   1.974   6.888   6.638 -0.1507  0.4647  0.6579
17945THY    HA329404   1.875   6.876   6.593  0.7503 -1.2353 -0.8649
17945THY    CA429405   2.073   6.793   6.615 -0.5100  0.3988 -0.4614
17945THY    HA429406   2.066   6.708   6.549  2.2386  0.4481 -0.7993
17945THY    CA529407   2.196   6.810   6.681  0.8989 -0.2433  0.6013
17945THY    CM129408   2.291   6.696   6.694  0.6526  0.5514  0.5387
17945THY    HM129409   2.238   6.600   6.688  0.8170  1.2838  0.3891
17945THY    HM229410   2.331   6.699   6.797  1.1958  0.3426  0.6593
17945THY    HM329411   2.376   6.710   6.626 -0.4626 -0.4539  2.7845
17945THY    CA629412   2.224   6.920   6.765  0.3536  0.0244 -0.3512
17945THY    HA629413   2.316   6.927   6.823 -0.2170  0.9828 -0.6180
17946THY      O29414   7.592   2.266   5.995  0.6561  0.4452 -0.2070
17946THY     HO29415   7.663   2.299   5.937  1.7045  0.9472 -1.5162
17946THY    CA129416   7.611   2.135   6.006  0.1686  0.4783 -0.1951
17946THY    CA229417   7.544   2.058   6.103  0.8063  1.0320 -0.4346
17946THY    CP129418   7.429   2.122   6.184 -0.0403  0.5099  0.7644
17946THY    HP129419   7.412   2.228   6.164 -0.4666 -0.6186  0.4884
17946THY    CP229420   7.460   2.126   6.340  0.4628 -0.2243  0.2912
17946THY    HP229421   7.488   2.032   6.389 -1.8329  2.6101  0.9317
17946THY    HP329422   7.378   2.178   6.391  0.7502  0.5062  0.0392
17946THY    HP429423   7.546   2.192   6.357  1.6266 -2.0296 -0.6655
17946THY    CP329424   7.307   2.038   6.153  1.0827  0.1599  0.4432
17946THY    HP529425   7.224   2.100   6.190  0.1906 -0.1988 -0.5005
17946THY    HP629426   7.296   1.938   6.197  0.0167 -1.1919 -0.0615
17946THY    HP729427   7.287   2.022   6.047 -1.5214  0.6037  0.1897
17946THY    CA329428   7.577   1.920   6.111 -0.1903  0.3552  0.8194
17946THY    HA329429   7.526   1.855   6.183 -1.2828 -2.4736 -1.6965
17946THY    CA429430   7.685   1.863   6.039 -0.1136  0.3094  0.2952
17946THY    HA429431   7.710   1.759   6.056 -0.8418 -0.2014  0.0222
17946THY    CA529432   7.753   1.945   5.946  0.4164  0.1303  0.1337
17946THY    CM129433   7.866   1.889   5.859 -0.8809  1.0871  0.4198
17946THY    HM129434   7.898   1.945   5.769  2.4905  2.8049  1.5418
17946THY    HM229435   7.826   1.797   5.816 -1.2456 -0.6270  1.3302
17946THY    HM329436   7.952   1.855   5.917 -1.0149 -0.0209 -1.9816
17946THY    CA629437   7.709   2.080   5.925 -0.1769 -0.2231  0.1969
17946THY    HA629438   7.762   2.147   5.858 -1.4167  0.0672  1.5243
17947THY      O29439   8.298   3.096   6.634 -0.1440 -0.2944  0.0053
17947THY     HO29440   8.236   3.022   6.637 -0.5580  0.0776  0.3605
17947THY    CA129441   8.423   3.054   6.634 -0.0293 -0.2895  0.8142
17947THY    CA229442   8.531   3.142   6.635 -0.4259 -0.0986 -0.5878
17947THY    CP129443   8.513   3.293   6.635 -0.5622  0.4775  0.3946
17947THY    HP129444   8.408   3.320   6.618 -0.0649 -0.3640  1.8976
17947THY    CP229445   8.612   3.351   6.526  0.6495 -0.1268 -0.0838
17947THY    HP229446   8.613   3.286   6.438  2.4104  0.3652 -0.7939
17947THY    HP329447   8.716   3.334   6.556  0.2874  1.0124 -0.3865
17947THY    HP429448   8.586   3.454   6.499 -1.8420  1.9635 -0.0747
17947THY    CP329449   8.547   3.347   6.772 -0.5061  0.2565  0.5583
17947THY    HP529450   8.539   3.456   6.775 -0.2326 -0.8455  0.6228
17947THY    HP629451   8.650   3.323   6.801 -0.6375  1.6063  1.5000
17947THY    HP729452   8.487   3.297   6.849  0.6873  1.0647  0.3402
17947THY    CA329453   8.661   3.083   6.645 -0.4140 -0.4006  0.0475
17947THY    HA329454   8.752   3.142   6.652  0.4157 -2.3578 -0.9078
17947THY    CA429455   8.681   2.944   6.632 -0.1074  0.7165  0.0280
17947THY    HA429456   8.782   2.908   6.618  0.0690 -1.3104  1.1472
17947THY    CA529457   8.576   2.858   6.630  0.6675  0.3358  0.4907
17947THY    CM129458   8.591   2.711   6.603 -0.0720 -0.5002  0.4386
17947THY    HM129459   8.635   2.696   6.504 -0.3040 -0.6055  0.4395
17947THY    HM229460   8.494   2.661   6.612  0.8286 -1.3924 -1.5582
17947THY    HM329461   8.653   2.667   6.682 -2.2915  0.4608 -1.1446
17947THY    CA629462   8.446   2.917   6.624  0.3530 -0.2241 -0.1384
17947THY    HA629463   8.359   2.853   6.611 -2.3195  0.3573  3.0777
17948THY      O29464   3.606   7.884   6.855  0.4576 -0.5802  0.6759
17948THY     HO29465   3.569   7.874   6.766 -2.4354  0.7320 -2.2660
17948THY    CA129466   3.737   7.903   6.835 -0.0221 -0.2697  0.0430
17948THY    CA229467   3.836   7.818   6.887  0.2587 -0.1573 -0.2387
17948THY    CP129468   3.799   7.687   6.951 -0.3064  0.3049  0.1695
17948THY    HP129469   3.692   7.667   6.961 -1.1319 -2.0841  2.7045
17948THY    CP229470   3.869   7.648   7.081  0.1850 -0.1611 -0.4010
17948THY    HP229471   3.875   7.726   7.158  0.6859 -2.2634  1.7404
17948THY    HP329472   3.976   7.631   7.064 -0.1763 -1.9624 -1.1341
17948THY    HP429473   3.831   7.561   7.135  1.5367 -1.2630 -1.7213
17948THY    CP329474   3.845   7.573   6.862 -1.0279  0.6220 -0.4144
17948THY    HP529475   3.776   7.570   6.777  0.9849 -1.1347  0.4767
17948THY    HP629476   3.831   7.474   6.908  2.5319  2.6482 -0.1584
17948THY    HP729477   3.951   7.577   6.833 -1.3330 -0.4869 -0.0644
17948THY    CA329478   3.972   7.851   6.872 -0.2611  0.3892  0.1170
17948THY    HA329479   4.045   7.781   6.913  1.8527 -2.3633  0.5141
17948THY    CA429480   4.002   7.976   6.811  0.7505  0.3832 -0.6912
17948THY    HA429481   4.105   8.011   6.803  0.2456  0.6190  0.9323
17948THY    CA529482   3.903   8.053   6.749  0.3819 -0.0880  0.3332
17948THY    CM129483   3.926   8.177   6.673  0.1833 -0.4255 -0.3158
17948THY    HM129484   3.942   8.142   6.571 -2.1455 -0.1572 -2.4757
17948THY    HM229485   4.012   8.229   6.716 -2.1536  3.1913  1.0071
17948THY    HM329486   3.846   8.252   6.675  2.2998  0.0038  2.0651
17948THY    CA629487   3.767   8.018   6.763 -0.7615  0.3403  0.4813
17948THY    HA629488   3.690   8.085   6.725 -0.0074 -1.6504  0.2771
17949THY      O29489   8.177   6.414   6.361  0.0888  0.0538 -0.4174
17949THY     HO29490   8.100   6.364   6.328  0.4799 -0.5460 -0.6233
17949THY    CA129491   8.268   6.391   6.264 -0.1990  0.0944 -0.7392
17949THY    CA229492   8.326   6.496   6.190  0.4504 -0.0977 -0.4066
17949THY    CP129493   8.288   6.641   6.226  0.7641  0.3236 -0.7427
17949THY    HP129494   8.244   6.650   6.325  0.7446  0.2233  0.4195
17949THY    CP229495   8.173   6.707   6.148  0.4076  0.5484  0.0664
17949THY    HP229496   8.161   6.813   6.172  0.3951  2.5174 -0.3416
17949THY    HP329497   8.078   6.653   6.162 -0.7730 -0.5646  1.7650
17949THY    HP429498   8.199   6.692   6.042 -1.2399  0.1193 -0.0303
17949THY    CP329499   8.415   6.739   6.221  0.4937  0.8301 -0.2144
17949THY    HP529500   8.493   6.684   6.276  0.1484 -0.9735 -2.6825
17949THY    HP629501   8.397   6.838   6.265 -0.6501  0.7565 -0.3718
17949THY    HP729502   8.447   6.757   6.118 -3.1091 -0.1785  1.3857
17949THY    CA329503   8.426   6.469   6.099 -0.4012 -0.4110  0.7603
17949THY    HA329504   8.477   6.550   6.048 -0.5127  0.6559  1.5278
17949THY    CA429505   8.474   6.333   6.080  0.0130 -0.0840  0.2089
17949THY    HA429506   8.560   6.321   6.015 -1.4517 -2.2088  0.6355
17949THY    CA529507   8.426   6.232   6.159 -0.1806  0.0692  0.0090
17949THY    CM129508   8.482   6.094   6.144  0.4434 -0.0734  0.0536
17949THY    HM129509   8.560   6.067   6.216  0.5376 -0.8184 -1.8142
17949THY    HM229510   8.526   6.071   6.046  0.0735 -0.6009  1.4904
17949THY    HM329511   8.389   6.037   6.155 -0.2363  0.2211  1.1958
17949THY    CA629512   8.319   6.262   6.244 -0.4654 -0.1999  0.3329
17949THY    HA629513   8.286   6.186   6.314 -2.2800 -1.0104  0.3060
17950THY      O29514   7.112   2.624   4.153  0.7679 -0.2521  0.2397
17950THY     HO29515   7.147   2.714   4.161 -2.0436  0.3580  1.3697
17950THY    CA129516   7.069   2.603   4.287 -0.5412  0.7331  0.7406
17950THY    CA229517   6.998   2.487   4.324  0.6027 -0.1564  0.7798
17950THY    CP129518   6.951   2.390   4.218 -0.4694 -0.8658  0.5325
17950THY    HP129519   7.001   2.408   4.121 -0.2906 -0.8710  0.0176
17950THY    CP229520   6.801   2.402   4.186 -0.2506 -0.2481  0.3249
17950THY    HP229521   6.788   2.325   4.109 -0.2507 -1.6559  1.6790
17950THY    HP329522   6.791   2.500   4.139  2.8208 -0.5640  0.5941
17950THY    HP429523   6.750   2.379   4.280 -1.8634 -0.9709  0.7922
17950THY    CP329524   6.984   2.245   4.260  0.6099  0.4837 -0.4386
17950THY    HP529525   6.910   2.197   4.326 -1.1605  0.9133  2.5603
17950THY    HP629526   7.079   2.260   4.313  0.7766 -0.6272  3.7193
17950THY    HP729527   6.996   2.188   4.168  2.1620 -2.1742  3.7562
17950THY    CA329528   6.954   2.465   4.461 -0.5142  0.4906  0.4552
17950THY    HA329529   6.882   2.391   4.493  0.4393  0.3907 -0.5429
17950THY    CA429530   6.995   2.565   4.554 -0.3357 -0.3673 -0.7596
17950THY    HA429531   6.950   2.565   4.652 -0.5977 -0.4129  1.9265
17950THY    CA529532   7.070   2.675   4.507 -0.2746  0.7865 -0.4576
17950THY    CM129533   7.099   2.787   4.608  0.3307  0.7902 -0.5209
17950THY    HM129534   7.157   2.864   4.554  0.7921  0.8105 -0.8503
17950THY    HM229535   7.154   2.758   4.698  1.1209  0.6259  0.3817
17950THY    HM329536   7.006   2.834   4.642 -0.9164 -0.1569 -2.2078
17950THY    CA629537   7.110   2.692   4.375  0.1689 -0.8081  0.8003
17950THY    HA629538   7.177   2.775   4.351  3.6114  0.7180 -1.3272
17951THY      O29539   2.025   6.534   5.160 -0.0634  0.3146 -0.2045
17951THY     HO29540   1.935   6.496   5.153  0.8204 -1.2943 -2.2065
17951THY    CA129541   2.067   6.497   5.278 -0.7263 -0.4675  0.0030
17951THY    CA229542   2.197   6.446   5.296 -0.8350 -0.5539 -0.1718
17951THY    CP129543   2.297   6.441   5.179  0.3401 -0.1766 -0.3547
17951THY    HP129544   2.255   6.480   5.085 -1.3551 -0.1775 -2.0263
17951THY    CP229545   2.318   6.295   5.139 -0.5444  0.5693  0.0682
17951THY    HP229546   2.369   6.240   5.220  0.5286  0.2789  0.6103
17951THY    HP329547   2.385   6.279   5.053 -0.6610  0.3115  0.9317
17951THY    HP429548   2.226   6.247   5.104  0.9513  0.8282 -3.3238
17951THY    CP329549   2.426   6.524   5.199  0.3465 -0.0257 -0.0024
17951THY    HP529550   2.503   6.469   5.143 -0.6806 -1.1779 -0.3031
17951THY    HP629551   2.458   6.536   5.304  2.4940 -0.6514  0.2733
17951THY    HP729552   2.417   6.623   5.152  0.8964 -0.7552 -0.2925
17951THY    CA329553   2.236   6.423   5.429 -0.3358  0.3741  0.4799
17951THY    HA329554   2.339   6.394   5.445 -0.1642  1.2534  1.5199
17951THY    CA429555   2.154   6.430   5.538 -0.0304  0.2046 -0.2958
17951THY    HA429556   2.189   6.420   5.640 -0.1752  0.3340  0.4888
17951THY    CA529557   2.017   6.465   5.513 -0.2350 -0.1798 -0.1415
17951THY    CM129558   1.924   6.480   5.629  0.1379 -0.2020 -0.7109
17951THY    HM129559   1.906   6.385   5.680 -0.9401  1.2827  0.2513
17951THY    HM229560   1.827   6.504   5.585  0.8961 -0.9971  1.0881
17951THY    HM329561   1.964   6.549   5.705 -0.1771  0.7163 -1.5251
17951THY    CA629562   1.972   6.497   5.381 -0.8356  0.4227 -0.1112
17951THY    HA629563   1.866   6.507   5.362 -0.3315 -2.1559  0.9558
17952THY      O29564   5.776   1.272   7.316  0.3007 -0.8388 -0.0763
17952THY     HO29565   5.781   1.292   7.221 -0.6425 -0.8296  0.2907
17952THY    CA129566   5.644   1.301   7.337  0.2495  0.3095  0.5007
17952THY    CA229567   5.580   1.245   7.450 -0.3855 -1.0213  0.1693
17952THY    CP129568   5.663   1.143   7.530 -0.7478  0.7578  0.1918
17952THY    HP129569   5.767   1.179   7.534 -0.3577 -2.9999 -0.0606
17952THY    CP229570   5.667   1.005   7.464  0.1149  0.3806  0.5652
17952THY    HP229571   5.760   0.959   7.499  0.1950 -1.2277 -0.5650
17952THY    HP329572   5.675   1.017   7.356 -2.3996  0.2298  1.4240
17952THY    HP429573   5.576   0.947   7.485  0.3520 -1.1120 -0.3845
17952THY    CP329574   5.620   1.138   7.682  0.1143  0.2457 -1.0228
17952THY    HP529575   5.595   1.239   7.716 -2.4407  1.4811 -1.9772
17952THY    HP629576   5.699   1.084   7.736  0.5199 -1.7939 -2.6183
17952THY    HP729577   5.529   1.078   7.696  0.3246 -1.1648 -1.7279
17952THY    CA329578   5.447   1.275   7.472 -0.3114 -0.3121  0.4404
17952THY    HA329579   5.395   1.231   7.557  2.3990  0.9339 -0.6405
17952THY    CA429580   5.388   1.374   7.387  0.3202  0.2496  0.5226
17952THY    HA429581   5.285   1.398   7.412 -0.7115  1.0214 -3.7925
17952THY    CA529582   5.458   1.436   7.289 -0.6090  0.1515  0.0614
17952THY    CM129583   5.392   1.550   7.219 -0.1051 -0.2435 -0.4494
17952THY    HM129584   5.434   1.567   7.119  3.1495  1.1203  0.3994
17952THY    HM229585   5.412   1.645   7.271  1.3298 -0.2530 -0.7184
17952THY    HM329586   5.284   1.534   7.211 -0.2659 -0.0320  0.4529
17952THY    CA629587   5.590   1.399   7.261  0.0816 -0.1468  0.1399
17952THY    HA629588   5.642   1.451   7.181 -0.6422 -0.6144  0.1691
17953THY      O29589   8.907   0.386   4.183  0.0294 -0.4755 -0.7657
17953THY     HO29590   8.950   0.392   4.270 -1.7169  0.3360  1.1292
17953THY    CA129591   8.998   0.402   4.088  0.3432 -0.3942 -0.3402
17953THY    CA229592   8.964   0.388   3.950 -0.9285 -0.1449 -0.1647
17953THY    CP129593   8.819   0.380   3.904  0.6809  0.2725  0.3460
17953THY    HP129594   8.753   0.349   3.986 -1.4285 -1.3938  0.1360
17953THY    CP229595   8.804   0.261   3.808  0.1701 -0.4442  0.1147
17953THY    HP229596   8.832   0.163   3.850  0.8498  0.2909  0.6153
17953THY    HP329597   8.874   0.268   3.724 -0.6389 -0.9510  2.9510
17953THY    HP429598   8.710   0.266   3.752  1.0158 -1.7738  2.0097
17953THY    CP329599   8.771   0.512   3.841  0.1688 -0.4714  0.6447
17953THY    HP529600   8.665   0.526   3.862  0.0129 -1.4281  0.9859
17953THY    HP629601   8.782   0.515   3.732  1.7124 -0.5181 -2.4387
17953THY    HP729602   8.818   0.600   3.886  0.2978  1.3579 -0.3109
17953THY    CA329603   9.071   0.382   3.860 -0.6745 -0.5051  0.1762
17953THY    HA329604   9.058   0.374   3.752  1.2524 -0.9459  1.9315
17953THY    CA429605   9.203   0.388   3.907  0.9918  0.0784  0.4810
17953THY    HA429606   9.292   0.388   3.844  1.8601  1.2257 -1.2088
17953THY    CA529607   9.235   0.404   4.042 -0.0178  0.4230  0.5237
17953THY    CM129608   9.381   0.408   4.091  0.7544 -0.6776 -0.1625
17953THY    HM129609   9.376   0.380   4.197 -0.2235 -1.0347 -1.4604
17953THY    HM229610   9.436   0.498   4.059  0.0849 -3.9213 -0.7804
17953THY    HM329611   9.444   0.334   4.040  0.9006 -1.8988  0.7668
17953THY    CA629612   9.131   0.407   4.134  0.2044 -0.0857  0.5648
17953THY    HA629613   9.152   0.415   4.240 -0.0109  0.1595 -1.4982
17954THY      O29614   3.124   6.668   3.724 -0.4624 -0.0634  0.3653
17954THY     HO29615   3.040   6.629   3.693  1.0440 -1.3375 -2.1085
17954THY    CA129616   3.083   6.795   3.747  0.4196 -0.3653 -0.0040
17954THY    CA229617   3.176   6.900   3.771  0.2906 -0.2390  0.0652
17954THY    CP129618   3.317   6.880   3.755 -0.4707 -0.5374 -1.1596
17954THY    HP129619   3.342   6.794   3.692 -1.1381 -0.7992 -1.1656
17954THY    CP229620   3.382   6.885   3.897 -0.3201 -0.0808 -1.0619
17954THY    HP229621   3.373   6.974   3.960  0.8193  1.0766 -1.7484
17954THY    HP329622   3.488   6.863   3.877 -0.6018 -1.3105 -1.3997
17954THY    HP429623   3.348   6.802   3.958  1.3944 -0.8479 -2.3888
17954THY    CP329624   3.376   6.991   3.665  0.3803 -0.1334 -0.0822
17954THY    HP529625   3.484   6.980   3.652  0.6762 -0.5668  2.5272
17954THY    HP629626   3.353   7.088   3.711 -3.6625  1.2948 -1.5025
17954THY    HP729627   3.340   6.986   3.561  0.1848 -0.0372 -0.7279
17954THY    CA329628   3.108   7.018   3.827  0.6190 -0.4433  0.7828
17954THY    HA329629   3.160   7.105   3.865  0.5241  0.2957  0.5245
17954THY    CA429630   2.973   7.018   3.858 -0.3448 -0.4013  0.3876
17954THY    HA429631   2.933   7.097   3.920 -2.4477 -0.4814 -0.5479
17954THY    CA529632   2.892   6.909   3.841 -0.1937  0.2400 -0.1255
17954THY    CM129633   2.757   6.908   3.899  0.1328 -0.1295  0.0981
17954THY    HM129634   2.767   6.881   4.005 -0.5306  0.8661  3.3626
17954THY    HM229635   2.690   6.837   3.850  0.8421 -1.2176  0.1675
17954THY    HM329636   2.705   7.004   3.895 -0.1808 -0.0701 -0.0657
17954THY    CA629637   2.946   6.795   3.788 -0.0768  0.4066  0.4675
17954THY    HA629638   2.883   6.707   3.773  0.0047 -0.1280  0.5015
17955THY      O29639   5.309   3.707   7.370  0.1347 -0.1360  0.2458
17955THY     HO29640   5.234   3.646   7.358  1.9298 -5.4258 -1.4423
17955THY    CA129641   5.274   3.782   7.474  0.1655  0.7575 -0.6629
17955THY    CA229642   5.361   3.807   7.581 -0.4019 -0.1025  0.3439
17955THY    CP129643   5.505   3.754   7.588  0.2923 -0.0974  0.1107
17955THY    HP129644   5.523   3.698   7.496 -2.6522  0.6208 -2.2840
17955THY    CP229645   5.522   3.661   7.711  0.6102  0.0553  0.0159
17955THY    HP229646   5.501   3.715   7.805 -1.0596 -1.1521  1.6180
17955THY    HP329647   5.613   3.606   7.733  0.6331 -0.8857 -0.3350
17955THY    HP429648   5.446   3.582   7.710  0.9366 -0.6312 -0.2909
17955THY    CP329649   5.609   3.862   7.589 -0.1554  0.3902  0.0043
17955THY    HP529650   5.710   3.827   7.612 -0.1894  3.0207  1.4065
17955THY    HP629651   5.580   3.937   7.663  2.9375 -0.0705  1.8405
17955THY    HP729652   5.605   3.919   7.495 -2.4555 -0.4353 -1.3661
17955THY    CA329653   5.311   3.896   7.686 -0.1660 -0.1051  0.3278
17955THY    HA329654   5.373   3.932   7.767 -0.9763  0.2057  1.0646
17955THY    CA429655   5.186   3.955   7.670 -0.3600 -0.0358  0.0511
17955THY    HA429656   5.149   4.017   7.751  0.0675  0.9799 -0.9884
17955THY    CA529657   5.100   3.936   7.558 -0.0368  0.5554 -0.0629
17955THY    CM129658   4.976   4.015   7.539  0.0814 -0.0334 -0.3267
17955THY    HM129659   4.930   4.040   7.635 -0.6176  0.1212 -2.0816
17955THY    HM229660   4.901   3.956   7.484 -0.2838  2.1950 -2.0717
17955THY    HM329661   4.996   4.111   7.489 -1.0548  0.6223  0.2660
17955THY    CA629662   5.144   3.844   7.460 -0.1809 -0.5311  0.1002
17955THY    HA629663   5.070   3.826   7.383 -2.2706  0.6532  2.8913
17956THY      O29664   8.448   1.462   5.728 -0.0982  0.1179 -0.1472
17956THY     HO29665   8.543   1.442   5.721  0.5924  2.5385  1.7588
17956THY    CA129666   8.399   1.481   5.601  0.1822 -0.5707 -0.8250
17956THY    CA229667   8.333   1.596   5.556 -0.2021  0.3030 -0.9944
17956THY    CP129668   8.321   1.718   5.651 -0.0765 -0.1564 -0.3686
17956THY    HP129669   8.331   1.693   5.757  0.6498 -0.0719  0.2285
17956THY    CP229670   8.189   1.801   5.637  0.2300 -0.0034  0.2288
17956THY    HP229671   8.182   1.880   5.713 -0.1823 -0.0125  0.2023
17956THY    HP329672   8.106   1.733   5.661  0.3932  5.1559  1.3848
17956THY    HP429673   8.178   1.860   5.545 -1.3887  1.0739  1.7362
17956THY    CP329674   8.430   1.812   5.622  0.0874  0.3953  0.0572
17956THY    HP529675   8.430   1.901   5.686 -0.7303 -0.7991  0.9438
17956THY    HP629676   8.431   1.843   5.517 -3.8679  0.2047  0.1432
17956THY    HP729677   8.520   1.753   5.641  0.9322 -0.9623  0.8619
17956THY    CA329678   8.301   1.612   5.415  0.2951  0.0113  0.5377
17956THY    HA329679   8.245   1.697   5.377 -1.4058 -1.2514 -1.0588
17956THY    CA429680   8.334   1.500   5.326  0.2918  0.5515 -0.1926
17956THY    HA429681   8.317   1.506   5.219  0.2371  0.5801  0.1358
17956THY    CA529682   8.393   1.387   5.378 -0.1530 -0.1172 -0.5262
17956THY    CM129683   8.416   1.268   5.283 -0.1464  0.3844  0.0446
17956THY    HM129684   8.327   1.205   5.276  0.0838  2.1291 -0.5390
17956THY    HM229685   8.496   1.202   5.321  1.5626  1.2167  2.4416
17956THY    HM329686   8.436   1.306   5.182 -0.7326  0.6117  0.9997
17956THY    CA629687   8.430   1.379   5.513  0.1696 -0.9975  0.3641
17956THY    HA629688   8.489   1.292   5.540  0.4342 -0.1397  0.8018
17957THY      O29689   3.286   8.101   6.784 -0.3572 -0.1471 -0.2097
17957THY     HO29690   3.305   8.071   6.874  3.8658 -1.1676 -1.2797
17957THY    CA129691   3.262   8.231   6.779 -0.0667 -0.5312  0.4428
17957THY    CA229692   3.237   8.293   6.656 -0.2198  0.1716 -0.2046
17957THY    CP129693   3.241   8.215   6.520 -0.6258 -0.5281  0.1819
17957THY    HP129694   3.215   8.110   6.540 -1.3944 -1.2692  0.2197
17957THY    CP229695   3.369   8.218   6.444  0.3133 -0.1987  1.3606
17957THY    HP229696   3.448   8.196   6.516 -0.0436 -0.4218 -0.8422
17957THY    HP329697   3.391   8.312   6.392  2.6715 -2.2924 -0.1972
17957THY    HP429698   3.385   8.138   6.371  2.7238  1.2441  0.4166
17957THY    CP329699   3.132   8.264   6.429 -0.3317  0.7170  0.3368
17957THY    HP529700   3.097   8.183   6.363 -1.6449 -0.3998  1.7743
17957THY    HP629701   3.160   8.357   6.379 -3.2686 -0.3715  0.7351
17957THY    HP729702   3.047   8.292   6.492 -1.4937 -0.5403 -0.2437
17957THY    CA329703   3.200   8.431   6.664  0.3414  0.3147  0.7738
17957THY    HA329704   3.179   8.482   6.571 -1.6337  1.2753  1.8362
17957THY    CA429705   3.197   8.497   6.789  0.4426  0.7467 -0.1348
17957THY    HA429706   3.172   8.602   6.780 -1.6500 -1.2088 -0.7331
17957THY    CA529707   3.210   8.426   6.910  0.3679  0.2360  0.2821
17957THY    CM129708   3.196   8.502   7.032 -0.0571 -0.3443  0.8711
17957THY    HM129709   3.204   8.610   7.017  0.9991 -1.4001  0.6626
17957THY    HM229710   3.271   8.465   7.103 -0.5042  0.0494  0.7050
17957THY    HM329711   3.096   8.489   7.076  0.5024  1.0255  1.1119
17957THY    CA629712   3.242   8.294   6.903 -0.7539  0.0928  0.3910
17957THY    HA629713   3.256   8.243   6.998 -1.5361 -0.4444 -0.8813
17958THY      O29714   8.170   8.120   2.392 -0.0246 -0.2916 -0.0886
17958THY     HO29715   8.242   8.095   2.452  0.8438 -0.7282  1.2170
17958THY    CA129716   8.233   8.102   2.281 -0.1148  0.1008 -0.3618
17958THY    CA229717   8.210   8.182   2.164 -0.4835  0.6523 -0.6113
17958THY    CP129718   8.121   8.303   2.171  0.2271  0.1719 -0.2377
17958THY    HP129719   8.062   8.293   2.263  0.3278  0.1784 -0.8452
17958THY    CP229720   8.014   8.305   2.059 -0.8144  0.0545  0.4602
17958THY    HP229721   7.969   8.205   2.061  2.1278  1.1456 -0.9924
17958THY    HP329722   8.053   8.315   1.957  0.6474  0.4791 -0.4533
17958THY    HP429723   7.943   8.381   2.093  0.5544  0.3073  1.6831
17958THY    CP329724   8.194   8.429   2.177  0.0540 -0.7084  0.7108
17958THY    HP529725   8.269   8.430   2.097  1.4972  0.4005 -2.6971
17958THY    HP629726   8.248   8.441   2.272 -3.0154  1.3127 -0.4391
17958THY    HP729727   8.117   8.507   2.178 -2.0140  1.4617 -1.1869
17958THY    CA329728   8.266   8.140   2.044  0.2189  0.3008 -0.6907
17958THY    HA329729   8.257   8.202   1.955  0.6812 -0.7260 -2.0470
17958THY    CA429730   8.346   8.026   2.039 -0.1931  0.1230  0.1074
17958THY    HA429731   8.408   7.999   1.954  0.9845  0.0610  2.6844
17958THY    CA529732   8.360   7.950   2.151  0.2199 -0.1985 -0.5828
17958THY    CM129733   8.430   7.816   2.139 -0.3772  0.3163  0.3994
17958THY    HM129734   8.460   7.791   2.037 -0.4996  0.1778  0.7975
17958THY    HM229735   8.352   7.746   2.172  1.5985  1.8412 -1.1814
17958THY    HM329736   8.514   7.810   2.208  0.2652 -0.2997  1.7244
17958THY    CA629737   8.307   7.987   2.270  0.4029  0.3827 -0.7534
17958THY    HA629738   8.309   7.923   2.357 -3.0918 -0.5745 -2.4201
17959THY      O29739   0.410   1.328   6.733  0.1789 -0.1013 -0.8440
17959THY     HO29740   0.419   1.413   6.687  0.7205 -0.1231 -0.9066
17959THY    CA129741   0.522   1.259   6.695 -0.2799  0.5165 -0.4980
17959THY    CA229742   0.562   1.136   6.749  0.2753 -0.8527 -0.0229
17959THY    CP129743   0.470   1.060   6.846  0.0832 -0.1476 -0.6578
17959THY    HP129744   0.378   1.114   6.871  0.2650 -1.4042  0.2985
17959THY    CP229745   0.535   1.045   6.984  0.1724 -0.2006 -0.4560
17959THY    HP229746   0.590   0.950   6.989  0.5349 -2.4877 -0.4235
17959THY    HP329747   0.470   1.063   7.071  0.9599  0.1533  0.8788
17959THY    HP429748   0.604   1.127   7.006  0.3802  0.7329 -0.8620
17959THY    CP329749   0.431   0.929   6.780 -0.1498  0.6614  0.4002
17959THY    HP529750   0.376   0.953   6.688 -1.8720  1.3420 -0.7374
17959THY    HP629751   0.358   0.878   6.843 -1.0576 -2.0506 -1.8915
17959THY    HP729752   0.508   0.857   6.750 -2.0739 -2.6134 -0.5266
17959THY    CA329753   0.694   1.086   6.718  0.0726  0.7606 -0.6404
17959THY    HA329754   0.715   0.988   6.760  0.4650 -0.0813 -0.9295
17959THY    CA429755   0.767   1.153   6.617  0.3547 -0.2886  0.1840
17959THY    HA429756   0.865   1.115   6.590  0.3150  0.1367 -0.2374
17959THY    CA529757   0.727   1.270   6.560 -0.5242  0.3747  0.4237
17959THY    CM129758   0.826   1.344   6.465 -0.0579  0.3571  0.0841
17959THY    HM129759   0.920   1.374   6.514  0.5936 -0.9642  0.2825
17959THY    HM229760   0.772   1.430   6.424  0.5222 -0.6774 -0.0231
17959THY    HM329761   0.869   1.288   6.381  1.9976  0.1149  1.8909
17959THY    CA629762   0.609   1.330   6.604 -0.1335 -0.4502  0.1268
17959THY    HA629763   0.577   1.423   6.558 -0.6146 -2.5046 -0.9820
17960THY      O29764   1.180   3.085   5.400 -0.5600 -0.1761  0.3268
17960THY     HO29765   1.245   3.013   5.388  2.0425  0.3763  2.4400
17960THY    CA129766   1.132   3.088   5.529 -0.2979  1.2695  1.1751
17960THY    CA229767   1.033   3.180   5.574 -0.0065  0.4570  0.3061
17960THY    CP129768   0.976   3.263   5.463 -0.9235  0.6516  0.3063
17960THY    HP129769   1.049   3.283   5.383 -0.1420  0.9788 -1.0967
17960THY    CP229770   0.939   3.400   5.514 -0.6915  0.1974  0.1386
17960THY    HP229771   0.958   3.472   5.433  0.1750 -0.2580 -0.5710
17960THY    HP329772   1.005   3.433   5.595  0.5933 -0.3367 -1.0250
17960THY    HP429773   0.834   3.403   5.544 -1.4142 -1.6462 -2.7514
17960THY    CP329774   0.852   3.194   5.405 -0.1366  1.5175 -0.3118
17960THY    HP529775   0.816   3.245   5.315 -1.4234  1.5620 -1.0769
17960THY    HP629776   0.772   3.183   5.480 -0.2570  1.3771 -0.4069
17960THY    HP729777   0.864   3.098   5.352 -0.0789 -0.5218  0.7765
17960THY    CA329778   0.989   3.179   5.710  0.1349  0.7108  0.0915
17960THY    HA329779   0.914   3.255   5.732  1.4734  0.1124  1.6565
17960THY    CA429780   1.035   3.084   5.797 -0.1367  0.2089 -0.1169
17960THY    HA429781   1.002   3.090   5.900 -3.4671 -0.7210 -0.7759
17960THY    CA529782   1.135   2.991   5.758 -0.1502 -0.1624  0.4635
17960THY    CM129783   1.214   2.913   5.865  0.2014 -0.6877 -0.6438
17960THY    HM129784   1.149   2.827   5.887  0.5300 -2.1556 -1.2986
17960THY    HM229785   1.238   2.984   5.945 -1.5981 -1.2069  0.6187
17960THY    HM329786   1.298   2.864   5.814  0.3005 -0.8245 -0.3305
17960THY    CA629787   1.182   2.997   5.629  0.3421 -0.5446 -0.0953
17960THY    HA629788   1.263   2.929   5.608  0.6187 -0.1056  0.0947
17961THY      O29789   5.697   0.491   7.116  0.1115  0.4375 -0.4654
17961THY     HO29790   5.660   0.580   7.104 -2.5706 -1.5811 -1.7274
17961THY    CA129791   5.758   0.474   7.233 -0.3055  0.2370  0.2888
17961THY    CA229792   5.873   0.401   7.250 -0.4260 -0.3039 -0.2412
17961THY    CP129793   5.944   0.335   7.131  0.3605  1.1285 -0.4233
17961THY    HP129794   5.889   0.354   7.038  0.9836  0.8423  0.0287
17961THY    CP229795   5.972   0.184   7.154 -0.5305 -0.0030  0.6996
17961THY    HP229796   5.998   0.132   7.061  0.6260 -0.0630  1.3484
17961THY    HP329797   5.887   0.133   7.201  0.1433 -0.9941 -1.4257
17961THY    HP429798   6.060   0.177   7.219 -1.4473  1.0614 -2.8325
17961THY    CP329799   6.078   0.399   7.097  0.3808 -0.3648  0.2407
17961THY    HP529800   6.133   0.410   7.192  0.1900 -0.1445 -0.6575
17961THY    HP629801   6.057   0.499   7.058  0.0254 -0.2108  0.2273
17961THY    HP729802   6.137   0.337   7.029  1.0245  0.5033 -0.1278
17961THY    CA329803   5.924   0.396   7.379  0.3121 -0.4034  0.0153
17961THY    HA329804   6.006   0.327   7.397 -0.0058  0.1222 -0.2324
17961THY    CA429805   5.856   0.466   7.483 -0.1383  0.4871 -0.0890
17961THY    HA429806   5.895   0.449   7.583  0.5825 -0.2255 -3.2366
17961THY    CA529807   5.735   0.531   7.463  0.0433  0.3273  0.0424
17961THY    CM129808   5.664   0.587   7.587 -0.8891 -0.0909  0.4298
17961THY    HM129809   5.661   0.515   7.670  0.4507 -0.2599  0.1608
17961THY    HM229810   5.562   0.617   7.559 -0.8793 -1.6634 -0.8832
17961THY    HM329811   5.733   0.664   7.621  0.9217 -0.8411 -0.7961
17961THY    CA629812   5.690   0.541   7.330 -0.3724 -0.2197 -0.2357
17961THY    HA629813   5.596   0.595   7.317  0.0424  1.2368  0.9032
17962THY      O29814   4.748   3.337   6.003  0.4169 -0.3011 -0.1456
17962THY     HO29815   4.720   3.297   6.087 -0.3876 -0.8485 -0.7667
17962THY    CA129816   4.759   3.470   6.031  0.0954  0.2233 -0.2690
17962THY    CA229817   4.802   3.556   5.929  0.6276 -0.0066  0.1806
17962THY    CP129818   4.829   3.506   5.785  0.1331  0.5764  0.1636
17962THY    HP129819   4.759   3.425   5.760 -1.2977  2.6312  0.6773
17962THY    CP229820   4.969   3.455   5.770  0.3439 -0.6876  0.1596
17962THY    HP229821   4.985   3.419   5.668  1.9120  0.0830 -1.5010
17962THY    HP329822   4.986   3.372   5.840  0.4196  0.4204  1.0900
17962THY    HP429823   5.053   3.519   5.799 -0.0175  2.2801 -0.5575
17962THY    CP329824   4.801   3.625   5.691 -0.0721 -0.1580  0.7724
17962THY    HP529825   4.881   3.698   5.704  0.3694 -3.4048  0.9736
17962THY    HP629826   4.707   3.673   5.722 -1.2669 -1.3526 -0.6971
17962THY    HP729827   4.794   3.599   5.585 -2.2567 -0.3129  1.7576
17962THY    CA329828   4.822   3.695   5.970 -0.3426  0.5210 -0.3268
17962THY    HA329829   4.843   3.781   5.907 -0.1103  0.4883 -0.4058
17962THY    CA429830   4.806   3.735   6.105  0.1730  0.1717 -0.1304
17962THY    HA429831   4.817   3.838   6.137  0.3931 -2.5958  0.7789
17962THY    CA529832   4.765   3.641   6.199 -0.3257 -0.0122  0.0734
17962THY    CM129833   4.733   3.692   6.337  0.0232  0.1002 -0.2573
17962THY    HM129834   4.658   3.623   6.378 -0.9153 -2.2366 -0.7133
17962THY    HM229835   4.692   3.793   6.335  1.3131  0.8908  0.3129
17962THY    HM329836   4.817   3.689   6.408 -0.6626  0.9674  0.3608
17962THY    CA629837   4.739   3.506   6.163 -0.2878 -0.2544 -0.3636
17962THY    HA629838   4.705   3.435   6.237 -1.7656  0.1118  0.7016
17963THY      O29839   7.033   7.840   1.926  0.1574  0.4842  0.7622
17963THY     HO29840   7.120   7.884   1.930 -0.7235  0.8108  2.5739
17963THY    CA129841   7.022   7.773   2.044  0.9536 -0.8832 -0.0843
17963THY    CA229842   6.897   7.716   2.084  0.0454  0.1086  0.2107
17963THY    CP129843   6.774   7.722   1.996  0.2244 -0.5021 -0.0436
17963THY    HP129844   6.784   7.788   1.909 -0.1407 -0.9659 -0.5864
17963THY    CP229845   6.650   7.780   2.068 -0.4997  0.4055 -0.5160
17963THY    HP229846   6.574   7.799   1.991  0.5932 -0.6058 -0.1043
17963THY    HP329847   6.672   7.879   2.110 -2.9540  1.5447 -0.3762
17963THY    HP429848   6.615   7.717   2.150 -1.5630  0.3369 -0.0482
17963THY    CP329849   6.744   7.571   1.949 -0.9325  0.2127  0.0456
17963THY    HP529850   6.833   7.536   1.896  0.2899  1.7116  0.7505
17963THY    HP629851   6.657   7.554   1.885 -0.9718  0.7734 -2.3153
17963THY    HP729852   6.734   7.499   2.032  1.6854  1.2111  0.7173
17963THY    CA329853   6.893   7.648   2.212 -0.1249 -0.2886 -0.3853
17963THY    HA329854   6.803   7.614   2.261  0.8156  1.9445  0.1343
17963THY    CA429855   7.008   7.643   2.294  0.3963 -0.0442 -0.2335
17963THY    HA429856   7.003   7.609   2.397  0.8753  0.6753  1.7119
17963THY    CA529857   7.128   7.707   2.249 -0.6010 -0.9233  0.7512
17963THY    CM129858   7.245   7.716   2.351 -0.2429  0.5898  0.5540
17963THY    HM129859   7.219   7.702   2.457  3.2514  1.5456  0.2390
17963THY    HM229860   7.288   7.816   2.348 -2.1625  1.0383  1.4295
17963THY    HM329861   7.323   7.642   2.330 -2.2905  0.5589 -1.7162
17963THY    CA629862   7.137   7.767   2.125 -0.5090  0.6374  0.6565
17963THY    HA629863   7.228   7.809   2.084 -0.6645  0.1119  0.4823
17964THY      O29864   8.799   2.912   2.386  0.0972 -0.3769 -0.5941
17964THY     HO29865   8.798   3.009   2.396 -1.5238 -0.6819 -0.5476
17964THY    CA129866   8.908   2.878   2.308 -0.0296  0.5313 -0.7474
17964THY    CA229867   8.916   2.752   2.249 -0.8237 -0.1134  0.4703
17964THY    CP129868   8.804   2.651   2.272 -0.5898  0.6617 -0.3904
17964THY    HP129869   8.761   2.664   2.372  0.3152  1.2421 -1.6731
17964THY    CP229870   8.866   2.508   2.288 -0.3412 -0.5719  0.2840
17964THY    HP229871   8.800   2.439   2.343  0.2839 -0.7755 -0.4822
17964THY    HP329872   8.951   2.507   2.357 -2.3810  2.1296 -1.5133
17964THY    HP429873   8.900   2.466   2.193  1.2506 -1.0652  2.5255
17964THY    CP329874   8.709   2.661   2.158  1.1089 -0.0810  0.2580
17964THY    HP529875   8.676   2.763   2.134 -0.8825 -1.0189 -0.5587
17964THY    HP629876   8.622   2.597   2.175  1.9301 -1.3551 -1.2694
17964THY    HP729877   8.759   2.621   2.069  1.1158 -0.0627  0.2263
17964THY    CA329878   9.035   2.716   2.183  0.1017  0.1777 -0.3439
17964THY    HA329879   9.037   2.624   2.125  2.2708  0.5218 -0.5817
17964THY    CA429880   9.142   2.813   2.168  0.6358 -0.3432  0.5009
17964THY    HA429881   9.233   2.794   2.112 -0.0734 -1.9327  1.5548
17964THY    CA529882   9.123   2.943   2.227 -0.1549 -0.5634  0.5992
17964THY    CM129883   9.220   3.045   2.209 -0.2312 -0.4992  0.1372
17964THY    HM129884   9.191   3.119   2.134  3.3452  0.4010  2.7337
17964THY    HM229885   9.318   3.008   2.179  1.5570  0.8099  3.4096
17964THY    HM329886   9.240   3.115   2.292  0.2285 -1.2577  0.9262
17964THY    CA629887   9.016   2.966   2.306  0.1856 -0.5008  0.3085
17964THY    HA629888   9.013   3.068   2.345  0.5264 -1.3666  0.6599
17965THY      O29889   1.841   1.907   6.153 -1.1827  0.4206  0.2634
17965THY     HO29890   1.895   1.963   6.095 -1.3205  0.2801  0.2504
17965THY    CA129891   1.894   1.782   6.129 -0.4208 -0.2924 -0.4338
17965THY    CA229892   1.848   1.664   6.195  0.0433  0.2407 -0.4324
17965THY    CP129893   1.727   1.672   6.288  0.1458  0.1764  0.2732
17965THY    HP129894   1.694   1.777   6.286  1.0639 -3.0394  0.6093
17965THY    CP229895   1.755   1.614   6.431 -0.3931  0.5591 -0.3346
17965THY    HP229896   1.661   1.603   6.487 -1.4028 -1.5154 -3.3356
17965THY    HP329897   1.828   1.675   6.486 -0.8119  1.3506 -0.5353
17965THY    HP429898   1.801   1.515   6.424  1.4546 -1.4642  0.5964
17965THY    CP329899   1.603   1.599   6.225  0.6810 -0.6164 -0.1625
17965THY    HP529900   1.570   1.652   6.135 -0.2780 -0.8745 -1.1892
17965THY    HP629901   1.510   1.618   6.280 -0.3348 -2.7099  1.4258
17965THY    HP729902   1.620   1.491   6.217 -0.7332  1.7189 -0.6288
17965THY    CA329903   1.901   1.541   6.161 -0.3521 -0.4230  0.3991
17965THY    HA329904   1.857   1.446   6.192 -0.5295 -0.1473  0.5683
17965THY    CA429905   1.997   1.531   6.058  0.3625 -0.5772 -0.4388
17965THY    HA429906   2.040   1.432   6.046  3.0295  2.4478  0.2149
17965THY    CA529907   2.052   1.644   5.997 -0.1899 -0.5945  0.3158
17965THY    CM129908   2.162   1.639   5.895  0.4166 -0.0170 -0.6058
17965THY    HM129909   2.230   1.554   5.903  0.0783 -1.8166 -1.0841
17965THY    HM229910   2.200   1.740   5.876 -0.7156 -0.8146 -0.3159
17965THY    HM329911   2.113   1.619   5.799  1.1589 -0.4071 -0.5878
17965THY    CA629912   2.003   1.771   6.038  0.5519  0.4938  0.7372
17965THY    HA629913   2.036   1.863   5.991 -2.4930 -0.1053  1.6334
17966THY      O29914   6.179   2.240   7.407  0.0110 -0.3304  0.0058
17966THY     HO29915   6.144   2.154   7.434 -0.6591  1.6750  0.8517
17966THY    CA129916   6.073   2.306   7.376 -0.4426 -0.6197  0.4671
17966THY    CA229917   6.073   2.441   7.360 -0.0074 -0.1403 -0.1609
17966THY    CP129918   6.206   2.525   7.363  0.7317  0.4943 -0.3884
17966THY    HP129919   6.292   2.463   7.391  0.0453 -1.5969 -2.4563
17966THY    CP229920   6.200   2.651   7.448  0.7157  0.3527  0.2327
17966THY    HP229921   6.149   2.731   7.393 -0.3123  1.0165  0.0514
17966THY    HP329922   6.301   2.685   7.474  0.8261  0.9862 -0.5586
17966THY    HP429923   6.147   2.639   7.543 -3.0812 -1.4302  1.1498
17966THY    CP329924   6.260   2.576   7.222  0.5701  0.5892  0.0830
17966THY    HP529925   6.173   2.609   7.164 -0.8536  1.5945 -1.7294
17966THY    HP629926   6.295   2.487   7.168 -1.1173  1.0214 -0.8843
17966THY    HP729927   6.336   2.652   7.239 -1.7174  0.6288  2.5014
17966THY    CA329928   5.953   2.506   7.331  0.2048  0.2782 -0.6328
17966THY    HA329929   5.953   2.613   7.316  2.8679  1.0963 -0.4444
17966THY    CA429930   5.840   2.429   7.317 -0.1025  0.2758 -0.1821
17966THY    HA429931   5.750   2.475   7.276  0.5254 -1.5303 -0.4926
17966THY    CA529932   5.836   2.291   7.329  0.6188  0.2643 -0.7390
17966THY    CM129933   5.711   2.218   7.310  0.5859  0.3221 -0.1035
17966THY    HM129934   5.664   2.245   7.215  2.0209 -0.7051 -1.0218
17966THY    HM229935   5.633   2.255   7.378  0.0355 -0.2134 -0.2702
17966THY    HM329936   5.730   2.111   7.322 -1.0957  1.9916 -0.2607
17966THY    CA629937   5.957   2.229   7.355  0.2137 -0.0365 -0.1625
17966THY    HA629938   5.952   2.121   7.370  0.4665 -2.1156 -0.5115
17967THY      O29939   6.456   3.910   4.161 -0.0395 -0.0380  0.2044
17967THY     HO29940   6.459   3.817   4.135 -1.0482  0.1975  0.0932
17967THY    CA129941   6.459   3.968   4.037  0.1811 -0.9061 -0.2857
17967THY    CA229942   6.402   4.094   4.009  0.1464  0.0000  1.1669
17967THY    CP129943   6.333   4.176   4.120 -0.8419 -0.8469  0.7164
17967THY    HP129944   6.309   4.105   4.200  0.0981 -2.0619 -1.0407
17967THY    CP229945   6.199   4.240   4.080  0.0651 -0.1908 -0.6027
17967THY    HP229946   6.139   4.172   4.018 -0.5023 -0.4073  0.0701
17967THY    HP329947   6.217   4.329   4.018 -0.9817 -1.3890 -1.1710
17967THY    HP429948   6.150   4.276   4.171 -1.2414 -1.4746  1.0420
17967THY    CP329949   6.417   4.284   4.187 -0.2170 -0.0126 -0.0718
17967THY    HP529950   6.417   4.372   4.122  0.4205 -1.0646 -0.8242
17967THY    HP629951   6.520   4.248   4.195  0.2705 -0.9599  1.0333
17967THY    HP729952   6.380   4.322   4.282 -0.5479 -0.1291 -0.0952
17967THY    CA329953   6.416   4.154   3.884 -0.3395  0.5226 -0.5786
17967THY    HA329954   6.383   4.255   3.859  1.3145  0.8000  0.0635
17967THY    CA429955   6.493   4.086   3.785 -0.4499  0.3277 -0.0448
17967THY    HA429956   6.516   4.135   3.691 -0.5720  0.3470  0.0509
17967THY    CA529957   6.553   3.961   3.813 -0.2593 -0.0355 -0.1430
17967THY    CM129958   6.622   3.886   3.709  0.3870  0.2309  0.0196
17967THY    HM129959   6.565   3.797   3.679 -1.8940  0.5494  1.3012
17967THY    HM229960   6.721   3.865   3.749 -0.2250  1.0578 -1.4458
17967THY    HM329961   6.627   3.948   3.618 -1.2295  0.2893  0.2977
17967THY    CA629962   6.530   3.903   3.935 -0.2157 -0.8705 -0.0639
17967THY    HA629963   6.571   3.806   3.959 -0.7356 -2.5590 -0.7370
17968THY      O29964   3.606   3.460   6.472 -0.0541 -0.1420  0.0225
17968THY     HO29965   3.581   3.545   6.432 -0.0332  0.9890  0.5844
17968THY    CA129966   3.738   3.465   6.503  0.3907  0.5846 -0.6171
17968THY    CA229967   3.828   3.393   6.420 -0.9511 -0.3489 -0.2783
17968THY    CP129968   3.770   3.293   6.316  0.7609  0.1581 -0.3845
17968THY    HP129969   3.682   3.341   6.272 -0.2168  2.7342  0.3868
17968THY    CP229970   3.720   3.164   6.378  0.1789  0.4926  0.0292
17968THY    HP229971   3.796   3.110   6.436  0.7422  1.1303  1.4611
17968THY    HP329972   3.689   3.112   6.286 -1.1311  0.2630  1.1764
17968THY    HP429973   3.634   3.190   6.441 -0.0608  0.4627 -0.6684
17968THY    CP329974   3.865   3.264   6.195  0.4609 -0.4210 -0.5201
17968THY    HP529975   3.955   3.209   6.223  0.6401 -0.5317 -0.2836
17968THY    HP629976   3.898   3.365   6.168 -0.5376  2.3422  0.6450
17968THY    HP729977   3.807   3.216   6.115  0.4412 -0.1313 -0.9887
17968THY    CA329978   3.969   3.392   6.440  0.7865  0.2745  1.2312
17968THY    HA329979   4.036   3.338   6.375 -2.6903 -3.0288  0.4560
17968THY    CA429980   4.012   3.461   6.548 -0.4186  0.0313  0.4946
17968THY    HA429981   4.119   3.467   6.564 -0.2911 -0.4019 -0.4518
17968THY    CA529982   3.927   3.541   6.632  0.6779 -0.0129  0.7949
17968THY    CM129983   3.986   3.630   6.741 -0.1134  0.2280  0.3695
17968THY    HM129984   4.091   3.615   6.768  1.0608 -3.6898  0.4804
17968THY    HM229985   3.917   3.626   6.826 -0.5038 -0.0847  0.4044
17968THY    HM329986   3.994   3.731   6.700  0.1260  2.1931  1.1881
17968THY    CA629987   3.791   3.547   6.603  0.4569 -0.4267  0.5209
17968THY    HA629988   3.729   3.597   6.677  2.0829  0.9148  0.5992
17969THY      O29989   2.987   0.599   2.564 -0.6922  0.9990  0.2288
17969THY     HO29990   2.946   0.680   2.530  0.2835  1.5918  0.9872
17969THY    CA129991   3.119   0.625   2.543 -0.1504  0.0722  0.1847
17969THY    CA229992   3.217   0.523   2.533  0.7832 -0.7417  0.1771
17969THY    CP129993   3.180   0.378   2.520  0.8157 -0.5089 -0.2563
17969THY    HP129994   3.084   0.372   2.467  0.4442 -0.1748  2.0586
17969THY    CP229995   3.146   0.324   2.661  0.4056 -0.2576 -0.1296
17969THY    HP229996   3.108   0.222   2.649  1.1623 -0.9735 -0.3362
17969THY    HP329997   3.069   0.385   2.711  0.2053  0.4946 -0.9566
17969THY    HP429998   3.234   0.341   2.724  1.3846 -1.9896  1.6137
17969THY    CP329999   3.268   0.283   2.445  0.3879 -0.2264  0.4066
17969THY    HP530000   3.331   0.335   2.372  0.0969 -1.4563 -0.9020
17969THY    HP630001   3.214   0.208   2.386  1.5849  0.5770 -1.1718
17969THY    HP730002   3.337   0.235   2.516 -0.1246  0.0988  0.1529
17969THY    CA330003   3.347   0.549   2.533 -0.0607 -0.0289 -0.2119
17969THY    HA330004   3.417   0.467   2.522  0.6465 -1.0837  0.5085
17969THY    CA430005   3.395   0.682   2.528 -0.8373 -0.6010 -0.2896
17969THY    HA430006   3.502   0.697   2.526 -0.5416  1.4850 -1.6851
17969THY    CA530007   3.299   0.786   2.548 -1.2154 -0.3173 -0.6763
17969THY    CM130008   3.344   0.931   2.560 -0.5823 -0.6747  0.6378
17969THY    HM130009   3.282   0.997   2.497  0.6989  0.6162  3.2310
17969THY    HM230010   3.447   0.944   2.525 -0.9044 -2.1987 -0.5799
17969THY    HM330011   3.322   0.978   2.657  1.3018 -0.6679  1.6000
17969THY    CA630012   3.162   0.759   2.554 -0.2966 -0.3240  0.2109
17969THY    HA630013   3.091   0.831   2.595  0.3989  0.4352  0.4817
17970THY      O30014   7.616   5.319   3.231  0.2978 -0.1010  0.4455
17970THY     HO30015   7.543   5.308   3.294 -0.0239 -0.7564 -1.5812
17970THY    CA130016   7.543   5.362   3.121 -0.3143 -0.2977 -0.1171
17970THY    CA230017   7.595   5.379   2.990 -0.5852  1.0226  0.5730
17970THY    CP130018   7.739   5.340   2.942  0.0802 -0.2635 -1.1365
17970THY    HP130019   7.793   5.307   3.032  1.2299 -0.5382 -0.0895
17970THY    CP230020   7.814   5.472   2.910  0.4447  0.1245  0.4977
17970THY    HP230021   7.774   5.513   2.817 -0.4018 -0.4474 -1.5097
17970THY    HP330022   7.920   5.446   2.892  0.7244  0.5717  1.3128
17970THY    HP430023   7.804   5.542   2.993  2.5773 -0.0481  1.0784
17970THY    CP330024   7.742   5.234   2.833  0.2974  0.3208  0.2950
17970THY    HP530025   7.680   5.147   2.855  0.3991 -1.7885 -0.3891
17970THY    HP630026   7.840   5.187   2.817 -0.0140 -1.5410  0.1991
17970THY    HP730027   7.701   5.273   2.739  0.1633 -0.1116 -0.8321
17970THY    CA330028   7.508   5.421   2.892  1.0490 -0.2587  0.0304
17970THY    HA330029   7.542   5.424   2.789  1.2171 -0.1808  1.2542
17970THY    CA430030   7.375   5.476   2.929 -0.7086  0.0383 -0.7280
17970THY    HA430031   7.316   5.529   2.854  1.5401  0.8448  3.3816
17970THY    CA530032   7.333   5.475   3.056  0.0428  0.4124 -0.3335
17970THY    CM130033   7.199   5.556   3.089 -0.2635 -0.0899  1.0326
17970THY    HM130034   7.168   5.539   3.193 -0.0098 -0.3445 -1.4685
17970THY    HM230035   7.119   5.536   3.016 -1.4317  0.8789  2.0073
17970THY    HM330036   7.225   5.662   3.082  2.2857  2.6056  0.6959
17970THY    CA630037   7.419   5.416   3.152  0.2630  0.2309 -0.1983
17970THY    HA630038   7.388   5.423   3.256  2.0194  0.9534 -2.1816
17971THY      O30039   8.960   2.762   7.861  0.7458  0.1745  0.3613
17971THY     HO30040   8.894   2.810   7.807 -0.7094  1.8766  0.3541
17971THY    CA130041   9.073   2.830   7.844 -0.0759  0.3232 -0.0340
17971THY    CA230042   9.208   2.778   7.872  0.6703  0.5419 -0.7184
17971THY    CP130043   9.229   2.635   7.913  0.1829  0.4363 -0.1560
17971THY    HP130044   9.137   2.593   7.956 -0.7190 -0.4754  0.8527
17971THY    CP230045   9.321   2.626   8.033 -0.3658 -0.0361  0.2634
17971THY    HP230046   9.425   2.617   8.000 -0.4926 -1.1610  2.5257
17971THY    HP330047   9.293   2.538   8.093  1.4064  0.0643 -0.2794
17971THY    HP430048   9.295   2.718   8.086 -2.7904 -1.7301  0.6475
17971THY    CP330049   9.278   2.556   7.795  0.3395 -0.0109 -0.6498
17971THY    HP530050   9.365   2.607   7.752  0.2087 -0.2451 -0.6231
17971THY    HP630051   9.195   2.541   7.725 -0.5842  0.5426  1.4908
17971THY    HP730052   9.309   2.455   7.823  0.1609 -0.8281 -0.9413
17971THY    CA330053   9.319   2.851   7.828 -0.5864 -0.3143 -0.3373
17971THY    HA330054   9.419   2.809   7.844  0.0538 -0.8419  0.9439
17971THY    CA430055   9.299   2.975   7.775 -0.1259 -0.0461 -0.2332
17971THY    HA430056   9.384   3.039   7.752  0.5729  0.9574 -0.7569
17971THY    CA530057   9.173   3.030   7.758  0.4285 -0.3123 -0.1721
17971THY    CM130058   9.163   3.170   7.699  1.1907  0.3376  0.0711
17971THY    HM130059   9.200   3.255   7.758 -1.8006  3.3090 -0.4615
17971THY    HM230060   9.061   3.202   7.674  0.2825 -0.0047 -2.7892
17971THY    HM330061   9.210   3.167   7.601 -0.7023 -0.7892  2.9282
17971THY    CA630062   9.061   2.955   7.787  0.0605 -0.1921  0.2780
17971THY    HA630063   8.963   2.999   7.771  0.6896 -0.1263  1.7697
17972THY      O30064   1.686   5.757   4.009 -0.1754 -0.0166 -0.2868
17972THY     HO30065   1.625   5.692   4.046 -0.3495  1.0774  0.4519
17972THY    CA130066   1.811   5.706   4.008 -0.3488  0.4813 -0.4772
17972THY    CA230067   1.919   5.790   3.985  0.4653  0.2693 -0.0196
17972THY    CP130068   1.917   5.946   3.977 -0.8434  0.6343 -0.2690
17972THY    HP130069   1.810   5.971   3.975 -0.5849 -0.7189  0.8198
17972THY    CP230070   1.995   6.018   3.870 -0.3926  0.5666 -0.1504
17972THY    HP230071   1.975   6.126   3.878 -2.2010  1.6306 -0.5347
17972THY    HP330072   1.966   5.983   3.770 -2.9398  0.9586  0.6781
17972THY    HP430073   2.104   6.005   3.879 -0.6655  1.0615 -2.6367
17972THY    CP330074   1.972   6.008   4.106  0.1659 -0.3905 -0.4217
17972THY    HP530075   1.952   6.115   4.097  1.2053  2.1343  0.0723
17972THY    HP630076   2.081   6.002   4.118  0.2370 -0.4995  0.4676
17972THY    HP730077   1.933   5.960   4.197  2.9104  0.3886 -1.3990
17972THY    CA330078   2.044   5.723   3.986 -0.1240  0.0086 -0.0585
17972THY    HA330079   2.134   5.784   3.982 -1.3445 -4.9097  1.8983
17972THY    CA430080   2.055   5.584   4.009  0.1013 -0.9034 -0.4648
17972THY    HA430081   2.154   5.539   4.006 -0.9219 -0.0914 -2.9485
17972THY    CA530082   1.942   5.500   4.029  0.0177  0.4622 -0.7206
17972THY    CM130083   1.942   5.357   4.062 -0.6694 -0.0416 -0.2209
17972THY    HM130084   1.845   5.306   4.066  0.0008  1.6696 -1.4533
17972THY    HM230085   1.997   5.355   4.157  1.5392 -1.2390 -0.3166
17972THY    HM330086   1.995   5.298   3.986 -0.4565 -2.4145  2.8249
17972THY    CA630087   1.815   5.565   4.022  0.3303 -0.3325 -0.1721
17972THY    HA630088   1.726   5.503   4.028 -0.4889  2.2187  1.1193
17973THY      O30089   5.534   9.082   4.595 -0.0226  0.2433  0.3313
17973THY     HO30090   5.552   9.176   4.574 -0.2780 -2.0022 -0.0858
17973THY    CA130091   5.614   9.010   4.522 -0.7180 -0.3654  0.0905
17973THY    CA230092   5.687   8.888   4.562  0.4899  0.2437 -0.0054
17973THY    CP130093   5.688   8.839   4.711 -0.2773  0.1054 -0.4874
17973THY    HP130094   5.654   8.922   4.773  0.4594  0.9899 -0.8401
17973THY    CP230095   5.825   8.801   4.767 -0.0793  0.0161  0.0278
17973THY    HP230096   5.836   8.830   4.872  0.9348 -0.1271  0.1818
17973THY    HP330097   5.896   8.868   4.717  0.1629  0.0937 -0.1722
17973THY    HP430098   5.857   8.697   4.758  2.0130 -0.6888  0.6746
17973THY    CP330099   5.596   8.724   4.727 -0.1895 -0.1281 -0.4416
17973THY    HP530100   5.613   8.679   4.826  0.4272 -0.4614 -0.9771
17973THY    HP630101   5.614   8.637   4.663  1.0235 -1.0252  0.4313
17973THY    HP730102   5.495   8.764   4.715 -0.4846  1.2053 -0.7519
17973THY    CA330103   5.763   8.814   4.474  0.4112  0.3968  0.7402
17973THY    HA330104   5.816   8.725   4.507  0.6163 -1.7718  0.0009
17973THY    CA430105   5.784   8.869   4.346 -0.0780 -0.0437  0.3320
17973THY    HA430106   5.850   8.818   4.277  0.1108  0.5734 -0.2649
17973THY    CA530107   5.724   8.989   4.309  0.2553 -0.5428  0.2988
17973THY    CM130108   5.754   9.051   4.182 -0.9882  0.4377 -0.2360
17973THY    HM130109   5.861   9.075   4.182  0.2005 -1.4310 -4.6622
17973THY    HM230110   5.709   9.152   4.178 -2.5577 -1.0132 -0.9424
17973THY    HM330111   5.720   8.993   4.096  1.1186 -1.5057  1.2315
17973THY    CA630112   5.633   9.059   4.397  0.0383  0.3979 -0.0702
17973THY    HA630113   5.580   9.149   4.368  0.3026  0.4116  0.0897
17974THY      O30114   1.577   1.140   7.246 -0.2714 -0.1675  0.5994
17974THY     HO30115   1.588   1.233   7.271  1.6331 -0.0849  0.3958
17974THY    CA130116   1.625   1.075   7.356  0.0416  0.3742  0.1825
17974THY    CA230117   1.685   0.944   7.350  0.0123 -0.1932 -0.4371
17974THY    CP130118   1.684   0.859   7.216  0.0661 -0.6351 -0.0789
17974THY    HP130119   1.604   0.903   7.154  0.3435  0.5094  2.1986
17974THY    CP230120   1.628   0.710   7.245 -0.3605  0.7006 -0.4166
17974THY    HP230121   1.610   0.666   7.147 -0.9786  0.5732  0.1047
17974THY    HP330122   1.536   0.709   7.305 -1.1683 -0.4694  1.0176
17974THY    HP430123   1.711   0.645   7.276 -0.3252 -0.6334 -1.0234
17974THY    CP330124   1.817   0.860   7.139 -0.1720  0.1685 -0.2405
17974THY    HP530125   1.890   0.797   7.190 -0.1189  0.7222  0.2599
17974THY    HP630126   1.847   0.964   7.152 -1.9455 -0.2693  0.3712
17974THY    HP730127   1.804   0.840   7.032 -0.1544  0.4928 -2.1245
17974THY    CA330128   1.726   0.888   7.473  0.5189 -0.3277 -0.1288
17974THY    HA330129   1.757   0.784   7.469 -0.5928  1.7973 -0.5935
17974THY    CA430130   1.697   0.946   7.596 -0.2432 -0.7858  0.4594
17974THY    HA430131   1.721   0.898   7.691 -0.1469 -1.6302 -1.2543
17974THY    CA530132   1.640   1.075   7.598  0.3014 -0.4487  0.4671
17974THY    CM130133   1.622   1.151   7.723 -0.1056 -0.5473  0.4227
17974THY    HM130134   1.688   1.108   7.799 -0.0524 -0.6866  0.2574
17974THY    HM230135   1.519   1.152   7.760  0.4850  1.2040  0.0438
17974THY    HM330136   1.656   1.256   7.721  3.7547  0.4550 -0.6733
17974THY    CA630137   1.604   1.135   7.476  0.1154 -0.6270 -1.1822
17974THY    HA630138   1.572   1.238   7.489  1.5055  1.0879 -0.9266
17975THY      O30139   3.075   4.380   4.043 -0.5679  0.5065 -0.0502
17975THY     HO30140   3.038   4.295   4.071  1.5009  1.5610 -0.6691
17975THY    CA130141   2.986   4.464   4.097  0.0339  0.3673 -0.1787
17975THY    CA230142   3.020   4.591   4.119 -0.2926 -0.9275 -0.7141
17975THY    CP130143   3.157   4.647   4.076  0.7061 -0.3784  0.4533
17975THY    HP130144   3.188   4.584   3.991  2.1053  2.4188 -2.9550
17975THY    CP230145   3.254   4.630   4.187  0.1271 -0.0749  0.2755
17975THY    HP230146   3.212   4.629   4.287  1.3213  0.4500 -0.7600
17975THY    HP330147   3.331   4.709   4.191  0.3106  0.0051  0.0944
17975THY    HP430148   3.308   4.535   4.180 -0.4758  0.7928 -0.1353
17975THY    CP330149   3.155   4.791   4.028  0.2088  0.4805 -0.1891
17975THY    HP530150   3.177   4.854   4.115 -0.3122  1.0296 -0.7485
17975THY    HP630151   3.066   4.831   3.979  1.2577 -0.3400  1.2206
17975THY    HP730152   3.237   4.816   3.960  0.2226  1.3835  2.5535
17975THY    CA330153   2.919   4.679   4.166  0.0376  0.8404 -0.1978
17975THY    HA330154   2.943   4.785   4.164  0.3894  1.8033 -0.2510
17975THY    CA430155   2.803   4.629   4.213  0.8249  0.2665  0.0952
17975THY    HA430156   2.733   4.701   4.256  2.3220 -0.2487  1.9334
17975THY    CA530157   2.782   4.493   4.219 -0.8531  0.3032 -0.1626
17975THY    CM130158   2.660   4.422   4.288  0.1396  0.1526  0.2298
17975THY    HM130159   2.678   4.314   4.296 -2.3246  3.3739 -0.1207
17975THY    HM230160   2.570   4.434   4.226 -0.9710  1.9606  1.9677
17975THY    HM330161   2.628   4.462   4.385  1.0820  0.7527 -0.4276
17975THY    CA630162   2.875   4.414   4.162  0.0934  0.2342  0.4753
17975THY    HA630163   2.852   4.308   4.156 -0.8119  0.8405  0.6325
17976THY      O30164   1.927   8.199   3.344  0.3559 -0.0028  0.6900
17976THY     HO30165   1.954   8.283   3.387  0.4707  3.6516 -1.0188
17976THY    CA130166   2.018   8.102   3.367  0.6308  0.5560  0.4533
17976THY    CA230167   1.977   7.972   3.405 -0.2021 -0.1115  0.3918
17976THY    CP130168   1.833   7.947   3.433  1.4322  0.4439  0.5437
17976THY    HP130169   1.760   8.010   3.382 -0.5691  2.2979 -0.1859
17976THY    CP230170   1.791   7.977   3.576  0.1187  0.1107  0.1857
17976THY    HP230171   1.681   7.977   3.582  0.1527  1.1426  1.6009
17976THY    HP330172   1.829   8.075   3.607 -0.2824 -3.2210  1.5246
17976THY    HP430173   1.827   7.905   3.651 -2.8283  0.3319 -1.2089
17976THY    CP330174   1.788   7.811   3.383  0.3322  0.4884 -0.3714
17976THY    HP530175   1.849   7.724   3.408  0.6289 -0.6165 -0.5008
17976THY    HP630176   1.807   7.820   3.276  4.0250  1.1743  2.0559
17976THY    HP730177   1.682   7.790   3.402  0.0038  1.3759  1.7357
17976THY    CA330178   2.081   7.880   3.431  0.5213 -0.0251  0.1573
17976THY    HA330179   2.045   7.788   3.476 -0.8128 -0.5473  0.3970
17976THY    CA430180   2.220   7.916   3.421 -0.6746  0.5303  0.1939
17976THY    HA430181   2.298   7.844   3.446 -2.8453  0.7254 -2.2526
17976THY    CA530182   2.244   8.045   3.372 -0.3898  0.0200  0.5141
17976THY    CM130183   2.390   8.087   3.353 -0.0475 -0.8306 -0.2635
17976THY    HM130184   2.417   8.117   3.251  3.6940  0.1234  0.1165
17976THY    HM230185   2.462   8.005   3.358 -0.5657  0.5889 -0.6685
17976THY    HM330186   2.419   8.162   3.428 -0.9347 -0.9535  0.2175
17976THY    CA630187   2.141   8.132   3.339 -0.1149  0.0486 -0.1655
17976THY    HA630188   2.166   8.226   3.293  0.3810  0.2406 -0.2005
17977THY      O30189   8.633   1.903   4.371  0.1348 -0.1897  0.4500
17977THY     HO30190   8.578   1.944   4.440 -0.2725 -1.5631  2.3138
17977THY    CA130191   8.546   1.831   4.295  0.3349  0.5607  0.0678
17977THY    CA230192   8.599   1.740   4.204 -0.3583 -0.2542 -0.2163
17977THY    CP130193   8.748   1.719   4.178 -0.2698 -1.0208  0.3166
17977THY    HP130194   8.808   1.752   4.264  3.0822 -2.8564 -0.5821
17977THY    CP230195   8.801   1.794   4.065 -0.8199  0.1724  0.2591
17977THY    HP230196   8.747   1.761   3.975  0.3767 -0.1693 -0.8377
17977THY    HP330197   8.901   1.757   4.037 -0.1574  1.1985  1.2108
17977THY    HP430198   8.800   1.903   4.078 -2.1405 -0.2171  0.3052
17977THY    CP330199   8.779   1.565   4.167 -0.0064 -0.7592 -0.0015
17977THY    HP530200   8.769   1.539   4.061  0.3790 -0.6691 -0.5302
17977THY    HP630201   8.705   1.511   4.227 -1.2611 -2.5130 -0.3170
17977THY    HP730202   8.879   1.549   4.210  0.2327 -0.3453  2.2678
17977THY    CA330203   8.508   1.680   4.115  0.3496  0.0597  0.1835
17977THY    HA330204   8.551   1.616   4.038  0.9778 -0.6384  1.3889
17977THY    CA430205   8.375   1.703   4.122 -0.2621 -0.5080 -1.0370
17977THY    HA430206   8.301   1.662   4.055  0.7532 -2.5748  0.3520
17977THY    CA530207   8.325   1.786   4.226  0.8620 -0.2679  1.3453
17977THY    CM130208   8.180   1.810   4.242 -0.6648  0.0192  0.7557
17977THY    HM130209   8.133   1.784   4.338 -0.9172  0.9441  4.1130
17977THY    HM230210   8.114   1.785   4.158 -0.1719  0.0822 -0.8360
17977THY    HM330211   8.179   1.920   4.231  0.5912  1.3269  0.9206
17977THY    CA630212   8.409   1.854   4.317 -0.0326 -0.5646 -0.0963
17977THY    HA630213   8.364   1.920   4.390 -0.9229 -1.9765  0.9263
17978THY      O30214   4.760   3.338   1.862 -0.3243 -0.5410  0.3013
17978THY     HO30215   4.682   3.280   1.872 -0.3068  1.3262  0.5473
17978THY    CA130216   4.846   3.290   1.958  0.8848  0.1032 -0.1722
17978THY    CA230217   4.922   3.376   2.048  0.3839  0.5546  0.5089
17978THY    CP130218   4.922   3.529   2.027 -0.2029 -0.8671 -0.2784
17978THY    HP130219   4.828   3.563   1.981 -0.7796  0.5340  0.1062
17978THY    CP230220   5.035   3.572   1.934  0.1219 -0.1130 -0.5604
17978THY    HP230221   4.996   3.542   1.836 -1.1317  0.2756 -0.2359
17978THY    HP330222   5.130   3.517   1.943 -0.0377  0.1065 -0.8008
17978THY    HP430223   5.049   3.681   1.945  0.2463 -1.0627 -0.4726
17978THY    CP330224   4.929   3.607   2.157  0.0443  0.4981 -0.3051
17978THY    HP530225   5.034   3.618   2.185  0.9953 -1.9435 -2.3382
17978THY    HP630226   4.874   3.565   2.242  0.1530 -0.3848 -2.3125
17978THY    HP730227   4.883   3.707   2.152 -2.5135  1.3240 -1.3505
17978THY    CA330228   5.001   3.322   2.152  0.8310 -0.6207 -0.5650
17978THY    HA330229   5.057   3.379   2.225 -0.6220 -0.7326  1.0791
17978THY    CA430230   5.005   3.181   2.157 -0.2639  0.6862 -0.4294
17978THY    HA430231   5.076   3.129   2.220 -0.8630  0.8529 -1.0545
17978THY    CA530232   4.934   3.100   2.075  0.5158  0.2666 -0.1878
17978THY    CM130233   4.941   2.953   2.096  0.2607  0.5212  0.2435
17978THY    HM130234   4.836   2.924   2.110  0.4797 -0.3925 -1.0962
17978THY    HM230235   4.984   2.913   2.188  0.2371  0.3076 -0.2705
17978THY    HM330236   4.971   2.895   2.008  0.3794 -0.1898  1.3507
17978THY    CA630237   4.848   3.153   1.986  0.0211  0.1470 -0.2277
17978THY    HA630238   4.791   3.089   1.919 -2.7262  1.0327  1.1314
17979THY      O30239   8.676   8.721   3.483  0.2975 -0.4708  0.0481
17979THY     HO30240   8.759   8.698   3.438  2.3603  2.5008  1.0621
17979THY    CA130241   8.680   8.657   3.610  1.2265  0.5367 -0.4524
17979THY    CA230242   8.583   8.674   3.706  0.5376 -0.1121 -0.2083
17979THY    CP130243   8.451   8.754   3.682  0.3542 -0.0912  0.4443
17979THY    HP130244   8.472   8.834   3.610 -2.9466  1.3309  2.8377
17979THY    CP230245   8.409   8.826   3.824  0.4612  0.6185 -0.4041
17979THY    HP230246   8.325   8.888   3.790  0.6499  1.0605  0.0920
17979THY    HP330247   8.481   8.890   3.876  0.2504 -0.5660  0.8256
17979THY    HP430248   8.376   8.752   3.898  0.8947  1.5594  0.3254
17979THY    CP330249   8.335   8.670   3.627  0.5036 -0.0254  0.0634
17979THY    HP530250   8.360   8.639   3.525 -1.5826 -1.1582  1.8424
17979THY    HP630251   8.240   8.725   3.621 -0.1458 -0.8091 -1.1130
17979THY    HP730252   8.326   8.583   3.693  2.5204  1.1341  0.6569
17979THY    CA330253   8.575   8.577   3.812  0.0257 -0.3709 -0.9754
17979THY    HA330254   8.491   8.574   3.881 -0.7579 -1.1478  1.4193
17979THY    CA430255   8.681   8.488   3.833 -0.1728  0.2299 -0.3532
17979THY    HA430256   8.670   8.412   3.909 -3.0414 -1.2454 -1.5542
17979THY    CA530257   8.786   8.485   3.744 -0.1513  0.8293  0.0806
17979THY    CM130258   8.886   8.380   3.760 -0.1757  0.2388  0.3173
17979THY    HM130259   8.900   8.351   3.865  1.1357 -0.2255 -0.8008
17979THY    HM230260   8.975   8.407   3.703 -0.3050  0.2770  0.8318
17979THY    HM330261   8.849   8.292   3.706 -1.0001  1.1903  0.0498
17979THY    CA630262   8.781   8.562   3.624 -0.4270 -0.5259 -0.5352
17979THY    HA630263   8.861   8.557   3.550 -0.8809 -1.1159  0.5137
17980THY      O30264   5.227   0.648   5.068  0.1850 -0.6073 -0.0893
17980THY     HO30265   5.284   0.692   5.133  1.9456 -1.2180 -1.3117
17980THY    CA130266   5.178   0.750   5.004  0.5600  0.3080 -0.8196
17980THY    CA230267   5.048   0.741   4.948  0.2176 -0.3718  0.1365
17980THY    CP130268   4.975   0.606   4.950 -0.2895 -0.0519  0.2286
17980THY    HP130269   5.025   0.527   5.008 -3.1478  2.0535 -0.1715
17980THY    CP230270   4.954   0.560   4.798 -0.1380 -0.6464  0.0590
17980THY    HP230271   4.881   0.478   4.791 -3.3333 -1.4341  2.7689
17980THY    HP330272   5.046   0.513   4.762  0.2010 -0.9538  0.9508
17980THY    HP430273   4.931   0.644   4.731 -1.4466  0.3885  0.5709
17980THY    CP330274   4.834   0.617   5.017 -0.3918  0.4871 -0.7480
17980THY    HP530275   4.777   0.694   4.965  0.2534 -0.9423 -1.1909
17980THY    HP630276   4.843   0.637   5.124 -0.0488  0.0131  1.9929
17980THY    HP730277   4.778   0.525   4.997 -0.2490 -2.3875 -0.3269
17980THY    CA330278   4.989   0.862   4.903  0.5464  0.5185 -0.1811
17980THY    HA330279   4.887   0.856   4.865  0.5880  0.5979 -1.6869
17980THY    CA430280   5.052   0.985   4.916  0.9098  0.0726  0.3126
17980THY    HA430281   4.994   1.070   4.880  0.4632  0.1028  0.0231
17980THY    CA530282   5.186   0.999   4.974  0.0237  0.2415 -0.2596
17980THY    CM130283   5.250   1.133   4.996  0.3350  0.1658 -0.7895
17980THY    HM130284   5.188   1.216   5.032  1.5960  0.0204  0.2485
17980THY    HM230285   5.320   1.154   4.914 -0.4666 -0.3818 -0.2113
17980THY    HM330286   5.317   1.115   5.081  1.4739 -0.0806  1.8244
17980THY    CA630287   5.245   0.879   5.018 -0.7429 -0.5173  1.2606
17980THY    HA630288   5.338   0.880   5.074 -0.1147 -1.5015  0.1718
17981THY      O30289   4.312   4.200   3.632 -0.0101  0.6768  0.3741
17981THY     HO30290   4.295   4.180   3.726 -1.0768  0.3590 -0.2804
17981THY    CA130291   4.364   4.099   3.566 -0.2290 -0.2883  0.6405
17981THY    CA230292   4.392   4.107   3.426  0.7068 -0.8833  0.6161
17981THY    CP130293   4.348   4.227   3.342 -0.3310  0.1614 -0.1471
17981THY    HP130294   4.311   4.304   3.411 -0.2838 -0.5188  0.4951
17981THY    CP230295   4.232   4.198   3.256  0.5056  0.3810 -0.5369
17981THY    HP230296   4.243   4.108   3.195  0.1826  0.5827 -0.7167
17981THY    HP330297   4.213   4.286   3.192  0.8198  0.2083 -0.5961
17981THY    HP430298   4.152   4.173   3.327  1.3857  1.5510 -0.1017
17981THY    CP330299   4.475   4.295   3.272  0.3227 -0.3351  0.6854
17981THY    HP530300   4.539   4.218   3.229  1.1256  1.3583  0.3696
17981THY    HP630301   4.530   4.334   3.359  1.2859 -0.3975 -0.4783
17981THY    HP730302   4.455   4.381   3.206  1.0109 -1.7535 -0.1988
17981THY    CA330303   4.446   3.999   3.357  0.2907  0.1679  0.0597
17981THY    HA330304   4.455   4.005   3.249 -4.2714 -0.3910  0.4651
17981THY    CA430305   4.477   3.884   3.431 -0.3202 -0.2660 -0.1706
17981THY    HA430306   4.521   3.801   3.376  1.6015  0.3669  0.3690
17981THY    CA530307   4.450   3.877   3.567  0.2947  0.1937 -0.4216
17981THY    CM130308   4.484   3.753   3.637  0.5969 -0.7997 -0.5112
17981THY    HM130309   4.471   3.769   3.744 -2.2250 -1.5319  3.6840
17981THY    HM230310   4.587   3.738   3.601  0.3840 -1.6582  0.0065
17981THY    HM330311   4.419   3.669   3.611 -1.6308  1.9093  0.2579
17981THY    CA630312   4.385   3.979   3.637 -0.6489  0.4381  0.3677
17981THY    HA630313   4.367   3.973   3.744 -1.0715  0.3645  0.2979
17982THY      O30314   8.468   5.026   4.321  0.1060 -0.6428 -0.3781
17982THY     HO30315   8.426   4.943   4.293 -0.8795 -1.6088  0.4320
17982THY    CA130316   8.421   5.111   4.224  0.6000 -0.8743  0.0524
17982THY    CA230317   8.503   5.163   4.128 -0.7062  0.1030 -0.5137
17982THY    CP130318   8.650   5.118   4.117  0.4058  0.0597  0.5542
17982THY    HP130319   8.690   5.103   4.218 -0.1037 -0.1303 -3.1130
17982THY    CP230320   8.754   5.213   4.056  0.0156 -0.5152  0.5816
17982THY    HP230321   8.717   5.254   3.961 -2.9915 -0.2379 -1.1803
17982THY    HP330322   8.852   5.164   4.052 -0.5024 -0.5875 -0.4807
17982THY    HP430323   8.757   5.300   4.122 -3.0522  0.7821 -0.1806
17982THY    CP330324   8.655   4.971   4.070  0.2327 -0.1487  0.1316
17982THY    HP530325   8.748   4.921   4.099 -0.9186  0.1031 -1.9438
17982THY    HP630326   8.630   4.956   3.964  0.6981 -0.5705  1.9985
17982THY    HP730327   8.575   4.913   4.117  0.7059  0.2670 -0.1976
17982THY    CA330328   8.446   5.256   4.034 -0.4030 -0.6529 -0.4757
17982THY    HA330329   8.502   5.309   3.958 -2.0926  0.0564  2.5564
17982THY    CA430330   8.310   5.287   4.037  0.1021 -0.1733 -0.4497
17982THY    HA430331   8.275   5.362   3.967  1.3964  1.7959  2.1338
17982THY    CA530332   8.225   5.225   4.129  0.3943  0.2347 -0.3518
17982THY    CM130333   8.080   5.239   4.124  0.4919 -0.1127 -0.0121
17982THY    HM130334   8.039   5.326   4.071 -2.7211  0.0938 -1.2426
17982THY    HM230335   8.043   5.258   4.226  0.3574 -0.2820  0.6501
17982THY    HM330336   8.032   5.152   4.078  0.4742 -0.3154  0.1045
17982THY    CA630337   8.283   5.133   4.214 -0.4689 -0.6200  0.0585
17982THY    HA630338   8.219   5.076   4.280 -0.1350  0.1962  0.6028
17983THY      O30339   6.684   6.557   5.405 -0.3694  0.2013 -0.2649
17983THY     HO30340   6.775   6.583   5.430 -0.2179  0.6332 -1.1930
17983THY    CA130341   6.670   6.574   5.278  0.1293  0.3372 -0.0596
17983THY    CA230342   6.548   6.551   5.219 -0.4713 -0.6825  0.2293
17983THY    CP130343   6.430   6.493   5.297 -0.7044 -0.2806  0.0793
17983THY    HP130344   6.461   6.443   5.390 -0.2048  0.1541  1.1476
17983THY    CP230345   6.345   6.381   5.230  0.7844 -0.9820 -0.2648
17983THY    HP230346   6.410   6.300   5.197  2.0305  0.3745  0.1250
17983THY    HP330347   6.298   6.411   5.136 -0.9828 -0.3114 -0.8495
17983THY    HP430348   6.276   6.342   5.305  1.5127 -0.1225  0.0546
17983THY    CP330349   6.341   6.610   5.350  0.0545  0.0109 -0.1581
17983THY    HP530350   6.414   6.664   5.413  0.1174  0.8608 -1.2128
17983THY    HP630351   6.257   6.587   5.416 -0.7961 -0.5378  1.2495
17983THY    HP730352   6.313   6.664   5.259  2.8639 -1.3318 -0.7327
17983THY    CA330353   6.533   6.565   5.085 -0.6450  0.9607 -0.1181
17983THY    HA330354   6.437   6.563   5.035  0.1035 -0.5391 -1.3819
17983THY    CA430355   6.648   6.605   5.008 -0.2448 -0.3069  0.0501
17983THY    HA430356   6.635   6.622   4.902 -0.2660 -0.6438 -1.8056
17983THY    CA530357   6.780   6.616   5.069  0.2541  0.8054  0.8570
17983THY    CM130358   6.910   6.637   4.995 -0.5522  0.7523 -0.4117
17983THY    HM130359   6.970   6.719   5.034  0.0195 -0.6663 -0.1137
17983THY    HM230360   6.882   6.638   4.889  0.3407  0.5043 -0.5330
17983THY    HM330361   6.975   6.551   5.016 -1.6144  0.3420 -1.3342
17983THY    CA630362   6.784   6.603   5.207 -0.6279  0.2741 -0.1059
17983THY    HA630363   6.881   6.608   5.256 -0.7566  0.5272 -0.1163
17984THY      O30364   3.255   3.613   4.973 -0.3837  0.0952  0.4953
17984THY     HO30365   3.314   3.671   4.921  1.2167  1.1650 -0.1079
17984THY    CA130366   3.155   3.600   4.887  0.5187  0.7045  0.4439
17984THY    CA230367   3.038   3.526   4.914 -0.0594  0.6801 -0.4338
17984THY    CP130368   3.023   3.453   5.049 -0.1309 -0.1807 -0.3547
17984THY    HP130369   3.122   3.410   5.070  0.8483 -0.4840  1.6588
17984THY    CP230370   2.925   3.338   5.041  0.1089 -0.2638 -0.4515
17984THY    HP230371   2.827   3.369   5.004  1.3015 -2.5535  0.8415
17984THY    HP330372   2.905   3.304   5.143 -1.0729 -0.4942 -0.4950
17984THY    HP430373   2.963   3.271   4.963  0.7841 -1.2944  1.0638
17984THY    CP330374   2.979   3.551   5.165  0.0141 -0.7603 -0.3598
17984THY    HP530375   2.920   3.511   5.249  0.0938 -0.6198 -0.1860
17984THY    HP630376   2.899   3.609   5.117 -0.8976 -0.6074 -1.4710
17984THY    HP730377   3.064   3.609   5.202 -0.5617  1.8626 -1.0652
17984THY    CA330378   2.942   3.511   4.809 -0.1178  0.0251  0.3202
17984THY    HA330379   2.860   3.440   4.818 -0.7748  1.2400  1.1994
17984THY    CA430380   2.950   3.582   4.694 -0.4610 -0.5699 -0.0229
17984THY    HA430381   2.875   3.559   4.619  0.2811 -0.6458 -2.5161
17984THY    CA530382   3.061   3.667   4.675 -0.3280 -0.1309  0.2282
17984THY    CM130383   3.079   3.744   4.554  0.4449 -0.1442 -0.6783
17984THY    HM130384   3.004   3.726   4.476 -0.8785  1.2839 -1.6682
17984THY    HM230385   3.176   3.716   4.511 -0.9466 -3.0606 -1.4363
17984THY    HM330386   3.089   3.848   4.587 -1.9811  0.7762 -0.6839
17984THY    CA630387   3.168   3.670   4.770 -0.4625 -0.5526 -0.4096
17984THY    HA630388   3.257   3.730   4.755 -0.2055  1.2773 -0.2587
17985THY      O30389   4.506   6.264   4.003  0.3669  0.4366 -0.1428
17985THY     HO30390   4.436   6.198   4.023 -0.9155 -1.6477  0.4807
17985THY    CA130391   4.461   6.380   4.066  0.5850 -0.3429  0.5117
17985THY    CA230392   4.540   6.499   4.063  0.5040  0.6625 -0.1782
17985THY    CP130393   4.669   6.505   3.973 -0.4009  0.8210  0.9034
17985THY    HP130394   4.672   6.412   3.915 -0.9845 -1.6757  2.3527
17985THY    CP230395   4.799   6.526   4.054  0.0266 -0.4655  0.2727
17985THY    HP230396   4.823   6.444   4.122 -0.3193  3.0751  2.8517
17985THY    HP330397   4.792   6.617   4.115 -1.2820 -0.7309  0.3737
17985THY    HP430398   4.887   6.522   3.988  0.5171  0.1342  0.8317
17985THY    CP330399   4.628   6.603   3.865  0.0820 -0.1123 -0.0304
17985THY    HP530400   4.576   6.696   3.891  0.2055 -0.0397  0.0192
17985THY    HP630401   4.555   6.560   3.795 -1.1562  0.3950  1.1787
17985THY    HP730402   4.715   6.627   3.802  0.7153  0.4705 -0.7541
17985THY    CA330403   4.500   6.611   4.132  0.5210 -0.1432 -1.0936
17985THY    HA330404   4.562   6.700   4.131  0.9740  1.7977 -1.3441
17985THY    CA430405   4.380   6.606   4.203  0.5993  0.4443  0.0570
17985THY    HA430406   4.354   6.693   4.263  1.4011  1.7580 -0.5909
17985THY    CA530407   4.307   6.490   4.213 -0.1095 -1.1190  0.1268
17985THY    CM130408   4.186   6.493   4.311 -0.8006 -0.8204  0.0667
17985THY    HM130409   4.192   6.394   4.357 -0.0667 -3.7039 -1.3224
17985THY    HM230410   4.092   6.514   4.259 -0.9784 -0.4644  0.1733
17985THY    HM330411   4.190   6.576   4.383 -0.5094 -2.7991  1.8383
17985THY    CA630412   4.344   6.374   4.143  0.0557  0.2816  0.6557
17985THY    HA630413   4.289   6.280   4.146 -0.1027 -0.8890  0.6916
17986THY      O30414   4.690   8.172   5.173 -0.3561  0.3707  0.2501
17986THY     HO30415   4.642   8.254   5.152  2.2527 -0.3398  1.7135
17986THY    CA130416   4.607   8.096   5.242 -0.1606 -0.4180  0.5180
17986THY    CA230417   4.633   7.957   5.257 -0.2018  0.2512  0.2580
17986THY    CP130418   4.764   7.892   5.197  0.0915 -0.2812  0.4889
17986THY    HP130419   4.833   7.970   5.162  0.3467  0.9341  0.8274
17986THY    CP230420   4.743   7.778   5.100 -0.0755 -0.2318 -0.2947
17986THY    HP230421   4.842   7.734   5.082  1.0526  1.2571  1.4844
17986THY    HP330422   4.698   7.815   5.007 -0.1772  0.1512  0.5903
17986THY    HP430423   4.672   7.710   5.149 -0.2099  2.3258  1.5074
17986THY    CP330424   4.841   7.827   5.312  0.0574 -0.2428 -0.5314
17986THY    HP530425   4.948   7.841   5.292  0.1501  0.7560  0.2422
17986THY    HP630426   4.818   7.724   5.339  0.2857  1.9836 -0.0465
17986THY    HP730427   4.830   7.889   5.402  0.3384 -1.2538  1.0635
17986THY    CA330428   4.541   7.882   5.331 -1.1013 -0.8326  0.5607
17986THY    HA330429   4.568   7.782   5.365 -2.8451  0.2885  0.4164
17986THY    CA430430   4.423   7.936   5.382  0.5634  0.8482 -0.0972
17986THY    HA430431   4.353   7.877   5.441  1.0144  1.8481  0.3253
17986THY    CA530432   4.397   8.069   5.363 -0.0035 -0.8710 -0.8909
17986THY    CM130433   4.283   8.137   5.433  0.0880 -0.2648 -0.0239
17986THY    HM130434   4.195   8.073   5.428 -0.2483 -1.8004  0.5128
17986THY    HM230435   4.249   8.234   5.395  0.7926 -1.4522 -0.2117
17986THY    HM330436   4.299   8.153   5.540  0.7173 -0.5946  1.9006
17986THY    CA630437   4.492   8.152   5.300  0.2502 -0.2191 -0.3729
17986THY    HA630438   4.473   8.259   5.290 -1.7765 -0.3759 -0.7040
17987THY      O30439   0.564   4.889   6.127  0.5585  0.0890 -0.1289
17987THY     HO30440   0.576   4.792   6.133 -1.1973  1.1753 -0.3205
17987THY    CA130441   0.450   4.904   6.203 -0.1884  0.2529  0.4144
17987THY    CA230442   0.393   5.029   6.238 -0.7871 -0.2864 -0.0820
17987THY    CP130443   0.478   5.160   6.209 -0.2076 -0.2427  0.0627
17987THY    HP130444   0.564   5.148   6.142 -0.1080 -0.7471  2.8067
17987THY    CP230445   0.522   5.234   6.342 -0.6749  0.7260 -0.4387
17987THY    HP230446   0.560   5.332   6.314 -0.0409  0.1391 -0.8460
17987THY    HP330447   0.606   5.188   6.396 -0.7051  0.9542 -0.2310
17987THY    HP430448   0.432   5.247   6.405 -1.7543 -0.9245  0.3534
17987THY    CP330449   0.393   5.258   6.134 -0.3549 -0.5192 -0.2247
17987THY    HP530450   0.342   5.224   6.044  2.2263 -2.9534  1.8747
17987THY    HP630451   0.443   5.352   6.106 -0.9468 -0.2074  0.1940
17987THY    HP730452   0.311   5.281   6.203 -1.6686 -2.4982  1.4192
17987THY    CA330453   0.266   5.024   6.303 -0.2380 -0.1611  0.6999
17987THY    HA330454   0.211   5.111   6.336 -0.6972  1.8757 -0.2902
17987THY    CA430455   0.204   4.897   6.331  0.0681 -0.9932 -0.1663
17987THY    HA430456   0.107   4.895   6.380  0.4450 -0.0981  1.3859
17987THY    CA530457   0.260   4.777   6.291 -0.8597 -0.1913 -0.3267
17987THY    CM130458   0.183   4.651   6.315 -0.0825  0.4686  0.0237
17987THY    HM130459   0.099   4.661   6.386  0.8975  2.3311 -3.4535
17987THY    HM230460   0.248   4.570   6.350  0.9179  0.8256  0.9625
17987THY    HM330461   0.141   4.618   6.219 -0.1834  0.7497 -0.6816
17987THY    CA630462   0.383   4.783   6.221  0.2890  0.1399 -0.1320
17987THY    HA630463   0.418   4.688   6.184 -2.1489 -1.5600 -0.4476
17988THY      O30464   3.747   5.935   5.550 -0.3868 -0.0012  0.7158
17988THY     HO30465   3.812   5.992   5.506 -0.0805 -1.4859 -0.7357
17988THY    CA130466   3.806   5.886   5.664 -0.0225  0.2862 -1.6192
17988THY    CA230467   3.780   5.761   5.716  0.0370 -0.0341 -0.3446
17988THY    CP130468   3.659   5.682   5.657 -0.7527  0.2413 -0.6054
17988THY    HP130469   3.660   5.692   5.548  0.2591  0.1927 -1.1423
17988THY    CP230470   3.531   5.738   5.719 -0.1542  0.5036  0.1282
17988THY    HP230471   3.447   5.671   5.694 -1.8923 -2.8478  3.2090
17988THY    HP330472   3.508   5.830   5.664  3.4630 -2.3489 -0.4565
17988THY    HP430473   3.552   5.769   5.822  1.6382 -0.0973  1.0490
17988THY    CP330474   3.691   5.531   5.676  0.0383 -0.7221  0.5041
17988THY    HP530475   3.669   5.490   5.776 -0.9417 -1.4672 -0.8987
17988THY    HP630476   3.797   5.513   5.653  0.3388  1.8774 -1.7604
17988THY    HP730477   3.625   5.480   5.605 -0.6801  0.2952 -0.0285
17988THY    CA330478   3.840   5.725   5.839  0.0181  0.4624  0.6125
17988THY    HA330479   3.823   5.634   5.896  2.4954 -1.4861 -1.2392
17988THY    CA430480   3.939   5.806   5.896 -0.3424 -0.0579  0.0678
17988THY    HA430481   3.998   5.761   5.975  0.0367 -0.8989 -0.9542
17988THY    CA530482   3.956   5.941   5.855 -0.2078  0.4537  0.4470
17988THY    CM130483   4.048   6.037   5.928 -0.1596 -0.0649  0.1578
17988THY    HM130484   4.066   6.116   5.855  2.2018  1.3998  1.0633
17988THY    HM230485   4.134   5.987   5.973 -0.2337  2.1159  1.8267
17988THY    HM330486   4.006   6.076   6.022 -1.2576 -0.6379  0.4068
17988THY    CA630487   3.885   5.981   5.741  0.5858  0.1140 -0.1959
17988THY    HA630488   3.880   6.087   5.715 -0.1362  0.8405 -0.0440
17989THY      O30489   4.143   1.245   2.467  0.0220  0.2561  0.0992
17989THY     HO30490   4.167   1.331   2.429 -0.1801 -1.1157 -0.4323
17989THY    CA130491   4.210   1.243   2.584  0.3731 -0.0752 -0.0178
17989THY    CA230492   4.160   1.174   2.704  0.0708  0.2821 -0.1706
17989THY    CP130493   4.037   1.082   2.686 -0.3843 -0.2877  0.2794
17989THY    HP130494   4.020   1.060   2.580 -0.9106 -0.5366  1.8009
17989THY    CP230495   3.907   1.158   2.727  0.0200  0.0048 -0.1231
17989THY    HP230496   3.835   1.082   2.761 -0.5446  0.4779  0.6020
17989THY    HP330497   3.861   1.210   2.642 -1.7256 -0.1350 -1.7879
17989THY    HP430498   3.926   1.232   2.806 -1.4181 -2.9079  3.6911
17989THY    CP330499   4.055   0.947   2.758 -0.7184  0.0113  0.0144
17989THY    HP530500   4.148   0.902   2.722  0.5246  0.7671  1.8703
17989THY    HP630501   3.975   0.875   2.735  2.0667 -1.8370 -2.8036
17989THY    HP730502   4.060   0.963   2.866  0.6264  0.3457 -2.1801
17989THY    CA330503   4.213   1.194   2.828 -0.0200 -0.3429  0.8438
17989THY    HA330504   4.159   1.163   2.916 -0.3242  0.4345  3.3724
17989THY    CA430505   4.340   1.271   2.835  1.1522 -0.5671  0.3466
17989THY    HA430506   4.397   1.293   2.925  0.9386 -0.7947  1.9787
17989THY    CA530507   4.394   1.328   2.718  0.7410  0.0579 -0.5669
17989THY    CM130508   4.520   1.411   2.728 -0.0046  0.2677  0.2782
17989THY    HM130509   4.541   1.455   2.827  3.4158  0.1679 -0.8513
17989THY    HM230510   4.522   1.485   2.647  0.8874 -0.1558 -0.1943
17989THY    HM330511   4.597   1.340   2.698 -0.9738  0.3499 -0.8340
17989THY    CA630512   4.326   1.324   2.598 -0.3313 -0.3333 -0.1577
17989THY    HA630513   4.367   1.377   2.512 -0.1480  1.0675  2.1214
17990THY      O30514   4.769   6.194   4.090 -0.4234  0.1216 -0.2085
17990THY     HO30515   4.674   6.216   4.090 -0.4397 -0.2218 -0.2667
17990THY    CA130516   4.785   6.131   4.209 -0.0085 -0.0428  0.0596
17990THY    CA230517   4.909   6.100   4.270  0.1141  1.2525 -0.4017
17990THY    CP130518   5.041   6.108   4.186  0.2141 -0.0572 -0.1851
17990THY    HP130519   5.026   6.164   4.094  0.0098 -0.3321 -0.6875
17990THY    CP230520   5.077   5.965   4.134 -0.0306  0.0825  0.4963
17990THY    HP230521   5.157   5.972   4.059  0.6820  0.8591  0.8909
17990THY    HP330522   4.988   5.911   4.101 -0.6257  1.7682  0.3819
17990THY    HP430523   5.133   5.916   4.215  0.2434 -0.4419 -0.0728
17990THY    CP330524   5.145   6.186   4.261 -0.6705 -0.4357  0.4299
17990THY    HP530525   5.230   6.203   4.194  0.7707  1.3202  0.4634
17990THY    HP630526   5.177   6.123   4.345 -2.2012 -0.5548 -0.5563
17990THY    HP730527   5.115   6.284   4.299 -0.6353  2.5249 -0.5959
17990THY    CA330528   4.914   6.067   4.407  0.3153 -0.2390 -0.4594
17990THY    HA330529   5.004   6.043   4.462 -0.1471  0.5035 -0.4958
17990THY    CA430530   4.789   6.061   4.478  1.2142 -0.2850  0.2919
17990THY    HA430531   4.788   6.036   4.584  1.2638 -0.3707 -0.0839
17990THY    CA530532   4.667   6.081   4.416  0.0964 -0.0013  0.0057
17990THY    CM130533   4.536   6.049   4.483  0.9527 -0.1608 -0.4644
17990THY    HM130534   4.508   5.946   4.456 -1.0966  0.3224 -0.0783
17990THY    HM230535   4.461   6.123   4.454 -0.2546  1.4783 -0.9850
17990THY    HM330536   4.544   6.045   4.592  0.1918 -0.0433  0.8242
17990THY    CA630537   4.669   6.105   4.281 -1.0406 -0.2713  0.0348
17990THY    HA630538   4.575   6.121   4.229 -0.3846 -0.9999  1.7187
17991THY      O30539   5.434   5.141   7.413 -0.0469 -0.2974 -0.4427
17991THY     HO30540   5.339   5.120   7.407 -0.3791  2.3098 -0.0282
17991THY    CA130541   5.440   5.274   7.440 -0.0889  0.3155  0.7530
17991THY    CA230542   5.558   5.333   7.481 -0.3121  0.3336  0.8250
17991THY    CP130543   5.685   5.255   7.510  0.0676 -0.0969  0.2508
17991THY    HP130544   5.668   5.146   7.511  0.8309 -1.2720  0.0928
17991THY    CP230545   5.736   5.285   7.654 -0.7475 -0.1678 -0.9383
17991THY    HP230546   5.799   5.375   7.653 -1.7591  0.8384 -0.1954
17991THY    HP330547   5.809   5.204   7.669  1.8397 -1.9683  0.9023
17991THY    HP430548   5.660   5.293   7.732 -0.5011 -0.1143  1.5291
17991THY    CP330549   5.800   5.292   7.406  0.5461 -0.1923  0.0828
17991THY    HP530550   5.819   5.399   7.412 -0.6634  0.0065  0.3020
17991THY    HP630551   5.780   5.282   7.299  1.7021 -0.4123 -0.0931
17991THY    HP730552   5.896   5.243   7.428  0.3619  0.0336 -0.1864
17991THY    CA330553   5.562   5.470   7.508 -0.9743 -0.0079  0.3960
17991THY    HA330554   5.652   5.510   7.553 -2.1487  3.4276 -0.4666
17991THY    CA430555   5.456   5.550   7.477  1.1079 -0.3273 -0.0761
17991THY    HA430556   5.455   5.658   7.491 -0.5497 -1.0375  0.0345
17991THY    CA530557   5.334   5.492   7.445 -0.6897  0.1080 -0.6655
17991THY    CM130558   5.205   5.569   7.446 -1.4615  0.1349  0.3910
17991THY    HM130559   5.200   5.653   7.375  0.4012  1.4144  1.6594
17991THY    HM230560   5.188   5.615   7.543  0.6858 -1.0192  3.9968
17991THY    HM330561   5.117   5.508   7.422 -1.9031 -1.5099  1.6112
17991THY    CA630562   5.324   5.356   7.425 -0.1993  0.5391  0.4434
17991THY    HA630563   5.235   5.298   7.402 -0.7843 -3.8316  2.6889
17992THY      O30564   2.120   8.781   5.516  0.6440  0.2269 -0.1642
17992THY     HO30565   2.078   8.704   5.474  0.8337 -1.8935  0.8196
17992THY    CA130566   2.239   8.778   5.453 -0.2805 -0.1691  0.4760
17992THY    CA230567   2.358   8.821   5.531 -0.7442 -0.2253 -0.4017
17992THY    CP130568   2.353   8.865   5.677  0.3156  0.6520 -0.5312
17992THY    HP130569   2.258   8.915   5.699  0.6872  1.6202 -0.2217
17992THY    CP230570   2.453   8.984   5.695 -0.2978 -0.6108  0.2917
17992THY    HP230571   2.436   9.057   5.616 -1.5716 -1.6915 -1.1026
17992THY    HP330572   2.557   8.956   5.714 -0.9820 -0.5166 -2.5926
17992THY    HP430573   2.422   9.035   5.787  1.7799  1.0057 -1.1625
17992THY    CP330574   2.385   8.754   5.776 -0.2700  0.1584  0.6104
17992THY    HP530575   2.383   8.799   5.876 -2.0091  1.0407 -1.2529
17992THY    HP630576   2.484   8.713   5.754 -0.5061  2.6609 -1.6041
17992THY    HP730577   2.301   8.684   5.768 -0.6224 -0.9467  1.1363
17992THY    CA330578   2.481   8.799   5.464 -0.5073 -0.1454 -0.3604
17992THY    HA330579   2.575   8.827   5.511 -1.7635 -0.0050  4.4620
17992THY    CA430580   2.476   8.757   5.323 -0.2317 -0.6221  0.8788
17992THY    HA430581   2.570   8.762   5.268  0.1875  0.0462  0.5603
17992THY    CA530582   2.359   8.743   5.253 -0.0929 -0.1180  0.0343
17992THY    CM130583   2.352   8.722   5.105  0.5963 -0.0021  0.1279
17992THY    HM130584   2.412   8.635   5.075  1.2394  1.8551 -0.1081
17992THY    HM230585   2.396   8.802   5.045 -0.1570 -2.0884 -0.9520
17992THY    HM330586   2.247   8.714   5.074  0.5815 -0.1254  0.7301
17992THY    CA630587   2.237   8.753   5.318 -0.5624 -0.6491  0.0924
17992THY    HA630588   2.140   8.733   5.274 -0.5898 -1.2687  1.5081
17993THY      O30589   2.050   2.633   2.952  0.2348  0.6081  0.1617
17993THY     HO30590   2.044   2.593   2.863  1.7385  0.7559 -0.4425
17993THY    CA130591   2.175   2.692   2.960 -0.2367  0.1076 -0.2503
17993THY    CA230592   2.288   2.660   2.880  0.0948  0.1733 -0.9066
17993THY    CP130593   2.279   2.564   2.765  0.0200  0.2111  0.2513
17993THY    HP130594   2.178   2.521   2.759  0.6007  0.1070 -1.1580
17993THY    CP230595   2.354   2.438   2.780 -0.7735  0.0996  0.8127
17993THY    HP230596   2.316   2.389   2.871  0.9291 -0.7700 -2.3677
17993THY    HP330597   2.461   2.459   2.783 -0.5284 -3.5426  0.6233
17993THY    HP430598   2.330   2.370   2.698 -1.0711  0.5624  0.3531
17993THY    CP330599   2.320   2.639   2.640  0.0556 -0.0186 -0.3684
17993THY    HP530600   2.422   2.681   2.644 -0.3293  0.3052  0.5729
17993THY    HP630601   2.259   2.725   2.610  2.7754 -1.7309  1.1411
17993THY    HP730602   2.313   2.566   2.559 -0.8907 -1.0537  0.8333
17993THY    CA330603   2.407   2.730   2.908 -0.5084 -0.1971  0.2856
17993THY    HA330604   2.498   2.710   2.852 -0.3457  0.6427 -1.5147
17993THY    CA430605   2.411   2.831   2.998 -0.3606 -0.2364 -0.2668
17993THY    HA430606   2.495   2.900   2.994 -0.1915 -0.3130 -0.4755
17993THY    CA530607   2.293   2.865   3.068  0.5843 -0.2941  0.1742
17993THY    CM130608   2.302   2.987   3.161 -0.1968  0.1293  0.0363
17993THY    HM130609   2.205   3.038   3.155  0.7097 -0.7140  1.7720
17993THY    HM230610   2.380   3.059   3.135  0.5484 -0.6169 -1.0157
17993THY    HM330611   2.323   2.954   3.264  1.1157  0.1796  0.9298
17993THY    CA630612   2.181   2.794   3.061  0.1011 -0.0698 -0.2556
17993THY    HA630613   2.090   2.823   3.113 -0.2664 -1.1373  0.5667
17994THY      O30614   1.926   7.629   7.945  0.5221  0.8285  0.1465
17994THY     HO30615   1.893   7.538   7.958 -0.4867  1.8147  0.6280
17994THY    CA130616   1.894   7.666   7.818 -0.5239 -0.3353 -0.1300
17994THY    CA230617   1.957   7.782   7.758 -0.1291 -0.5520  0.6645
17994THY    CP130618   2.069   7.847   7.828  0.2423 -0.2172 -0.0798
17994THY    HP130619   2.117   7.777   7.897 -1.2347  0.7657 -0.1663
17994THY    CP230620   2.026   7.977   7.910  0.2350  0.0512 -0.0150
17994THY    HP230621   1.963   7.953   7.996  1.4018  0.8974 -0.1214
17994THY    HP330622   1.967   8.032   7.836 -0.1987  2.0115  2.2711
17994THY    HP430623   2.114   8.032   7.946  1.3887 -1.5576 -0.7019
17994THY    CP330624   2.192   7.878   7.737  0.3572  0.5130  0.3825
17994THY    HP530625   2.222   7.786   7.685 -0.2565 -1.5461  1.2732
17994THY    HP630626   2.274   7.916   7.798  0.8237  0.1426 -0.0136
17994THY    HP730627   2.171   7.948   7.656 -1.6948  1.9496  1.5423
17994THY    CA330628   1.902   7.821   7.632  0.1586 -0.6732  0.4826
17994THY    HA330629   1.946   7.905   7.578  2.2731  1.2238  0.7031
17994THY    CA430630   1.797   7.753   7.572  0.2594 -1.2973 -0.2851
17994THY    HA430631   1.750   7.779   7.478  0.6251 -1.1428  1.0225
17994THY    CA530632   1.754   7.632   7.632  0.5939  0.3635 -0.4000
17994THY    CM130633   1.631   7.555   7.566  0.5780  0.2179 -0.6762
17994THY    HM130634   1.589   7.611   7.482 -0.4291  0.9538 -0.3145
17994THY    HM230635   1.550   7.541   7.638  0.1478  0.5179  2.6263
17994THY    HM330636   1.680   7.459   7.547 -0.2856  2.8125 -1.7046
17994THY    CA630637   1.801   7.590   7.756 -0.0121  0.2915  0.4627
17994THY    HA630638   1.742   7.512   7.803 -0.0145  0.0122  0.2945
17995THY      O30639   3.769   0.769   7.453  0.0162  0.0647 -0.0220
17995THY     HO30640   3.845   0.771   7.391 -2.0758 -2.6785  1.8293
17995THY    CA130641   3.660   0.734   7.377 -0.2203 -0.3060 -0.3973
17995THY    CA230642   3.526   0.747   7.426 -0.4210 -0.4313 -0.4351
17995THY    CP130643   3.496   0.785   7.572 -0.4033  0.7549  0.1556
17995THY    HP130644   3.590   0.834   7.600 -0.2528  0.1073  0.2527
17995THY    CP230645   3.463   0.673   7.668 -0.3469  0.1351  0.3346
17995THY    HP230646   3.362   0.631   7.661 -0.1373 -1.1411  0.0230
17995THY    HP330647   3.500   0.699   7.768 -0.2332  0.2575 -0.2877
17995THY    HP430648   3.522   0.588   7.632 -2.0190 -0.1927 -0.7462
17995THY    CP330649   3.395   0.896   7.573  0.0319  0.3129 -0.2449
17995THY    HP530650   3.363   0.924   7.674 -0.7347 -0.3749  1.4740
17995THY    HP630651   3.305   0.845   7.538  0.2749 -1.3338  0.3908
17995THY    HP730652   3.416   0.992   7.525 -2.2309  0.4784  0.3729
17995THY    CA330653   3.419   0.724   7.332 -0.6444 -0.3853  0.7530
17995THY    HA330654   3.314   0.721   7.360 -0.5782 -0.2184 -0.2144
17995THY    CA430655   3.450   0.681   7.203 -0.1831 -0.0761  0.6162
17995THY    HA430656   3.372   0.642   7.139 -0.4980  0.0780  0.9859
17995THY    CA530657   3.581   0.667   7.162 -0.8827  0.8656 -0.2874
17995THY    CM130658   3.607   0.611   7.025  0.5335  0.0365  0.7285
17995THY    HM130659   3.683   0.532   7.029  1.2264 -2.7516  1.1528
17995THY    HM230660   3.646   0.692   6.963 -0.7588 -0.2333  1.1764
17995THY    HM330661   3.517   0.569   6.978  0.5351 -0.0840  0.8594
17995THY    CA630662   3.688   0.693   7.249 -0.3431  0.5244 -0.4583
17995THY    HA630663   3.790   0.683   7.214 -0.2302  0.8566 -0.4603
17996THY      O30664   0.381   8.736   2.576 -0.3741  0.3260  0.2046
17996THY     HO30665   0.404   8.686   2.496  0.2255  0.9494 -0.5560
17996THY    CA130666   0.501   8.760   2.638 -0.2492  0.4711 -0.0662
17996THY    CA230667   0.511   8.832   2.756  0.1346  0.1301  0.2728
17996THY    CP130668   0.387   8.909   2.812 -0.0929  0.1702 -0.3100
17996THY    HP130669   0.299   8.904   2.746 -0.7186  1.0017 -0.4948
17996THY    CP230670   0.415   9.059   2.824 -0.3160  0.6685  0.1436
17996THY    HP230671   0.321   9.106   2.856  0.9801  2.4674  1.6482
17996THY    HP330672   0.451   9.110   2.734 -0.6785  0.0608 -0.6465
17996THY    HP430673   0.484   9.078   2.906  0.0677  0.4118 -0.1223
17996THY    CP330674   0.354   8.859   2.954 -0.0251 -0.2382 -0.3289
17996THY    HP530675   0.452   8.841   3.000  0.0144  0.5366  1.6660
17996THY    HP630676   0.294   8.767   2.952 -0.4903  1.0080 -0.0685
17996THY    HP730677   0.295   8.934   3.007  0.3775  1.0050 -0.8710
17996THY    CA330678   0.637   8.846   2.813 -0.8633 -0.1668 -0.0753
17996THY    HA330679   0.646   8.895   2.909  1.0199 -0.1165 -0.4325
17996THY    CA430680   0.746   8.787   2.751 -0.0825 -0.9801  0.0123
17996THY    HA430681   0.844   8.811   2.790 -1.6905  1.5395  3.1538
17996THY    CA530682   0.731   8.721   2.637 -0.7185  0.4805  0.2654
17996THY    CM130683   0.852   8.674   2.573  0.0611 -0.1017 -0.3518
17996THY    HM130684   0.813   8.667   2.471 -1.5682  0.0346  3.9009
17996THY    HM230685   0.883   8.576   2.612 -1.3650  0.9055 -0.4382
17996THY    HM330686   0.931   8.749   2.577 -0.0635 -0.1173 -0.2183
17996THY    CA630687   0.609   8.702   2.575 -0.1292 -0.0666 -0.2078
17996THY    HA630688   0.593   8.645   2.483  2.0427  0.1961 -1.3597
17997THY      O30689   4.542   7.733   2.194  0.3242  0.5788 -0.1905
17997THY     HO30690   4.562   7.822   2.162  0.5117 -0.2451 -0.5195
17997THY    CA130691   4.615   7.653   2.113  1.1743 -0.2755  0.0262
17997THY    CA230692   4.557   7.529   2.079 -0.4476 -0.4997  0.1244
17997THY    CP130693   4.429   7.482   2.144  1.4940 -0.0345  0.3020
17997THY    HP130694   4.380   7.553   2.211 -0.5055  0.2923 -1.2694
17997THY    CP230695   4.451   7.354   2.231 -0.6784  0.3611 -0.8026
17997THY    HP230696   4.489   7.267   2.177  1.6680  1.9584 -0.8621
17997THY    HP330697   4.367   7.336   2.300  0.0206  1.6491  0.6131
17997THY    HP430698   4.531   7.385   2.300 -0.2910 -0.6776  0.6186
17997THY    CP330699   4.328   7.442   2.023  0.2672 -0.7624 -0.0572
17997THY    HP530700   4.309   7.528   1.958 -1.0323 -0.7658 -0.3159
17997THY    HP630701   4.229   7.434   2.070  0.9338  0.6662 -0.2541
17997THY    HP730702   4.355   7.355   1.962 -1.6564 -0.7491 -0.7243
17997THY    CA330703   4.619   7.447   1.982 -0.1628  0.6968  0.4695
17997THY    HA330704   4.593   7.345   1.956  1.8220  3.5687 -0.8851
17997THY    CA430705   4.742   7.498   1.925  1.2790 -0.1755  0.8790
17997THY    HA430706   4.797   7.446   1.847  0.0136 -1.7067  1.7366
17997THY    CA530707   4.791   7.627   1.962 -0.8267 -0.6218  0.6056
17997THY    CM130708   4.908   7.678   1.885 -0.0864  0.2423  0.4390
17997THY    HM130709   4.925   7.626   1.790  0.3283 -0.0550  1.0929
17997THY    HM230710   4.998   7.669   1.947 -0.0530  0.4176  1.8004
17997THY    HM330711   4.893   7.779   1.845 -1.1582 -4.5401 -1.3536
17997THY    CA630712   4.726   7.706   2.053  0.5485  0.3340 -0.0347
17997THY    HA630713   4.767   7.805   2.071 -0.6872  0.1749  0.5257
17998THY      O30714   7.234   5.763   5.405 -0.1874 -0.2327 -0.6998
17998THY     HO30715   7.295   5.831   5.370 -0.7295 -1.9307 -1.0384
17998THY    CA130716   7.293   5.661   5.472  0.5202  0.3859 -0.1651
17998THY    CA230717   7.219   5.549   5.507 -0.2660  0.4716  0.9556
17998THY    CP130718   7.072   5.543   5.482  0.2207 -0.2930  0.1194
17998THY    HP130719   7.042   5.634   5.429 -0.6139 -0.6231 -0.3305
17998THY    CP230720   6.984   5.529   5.606 -0.6857  0.3459  0.6046
17998THY    HP230721   6.878   5.521   5.577 -0.5636 -0.3985  1.4814
17998THY    HP330722   7.008   5.611   5.675  2.9601  0.9722 -0.7913
17998THY    HP430723   7.006   5.439   5.663 -1.6009  0.8283  0.6719
17998THY    CP330724   7.034   5.427   5.385  0.5469 -0.3113 -0.4308
17998THY    HP530725   7.070   5.447   5.284  2.5274  0.9351  3.2368
17998THY    HP630726   6.926   5.413   5.377  0.7602 -1.0773 -1.7313
17998THY    HP730727   7.061   5.327   5.420 -1.2980  0.1532 -0.7925
17998THY    CA330728   7.289   5.436   5.561  0.0335  0.0976  0.1757
17998THY    HA330729   7.230   5.349   5.588 -1.1724  1.3296  1.3197
17998THY    CA430730   7.424   5.445   5.578 -0.3424 -0.2778  0.8442
17998THY    HA430731   7.482   5.362   5.616 -1.6956 -0.7779 -0.3784
17998THY    CA530732   7.498   5.558   5.549  0.7093  0.3558  0.3022
17998THY    CM130733   7.643   5.550   5.561  0.0559  0.0617 -0.4292
17998THY    HM130734   7.685   5.565   5.661 -0.0040  0.2325 -1.3233
17998THY    HM230735   7.693   5.609   5.484  0.0171  0.6956  0.4454
17998THY    HM330736   7.668   5.445   5.540  1.7089 -1.1432  0.1767
17998THY    CA630737   7.437   5.669   5.496 -0.2773  0.3221  0.1946
17998THY    HA630738   7.502   5.751   5.466  0.1089  2.9747  0.9700
17999THY      O30739   3.645   3.577   7.350 -0.0494 -0.2994  0.4944
17999THY     HO30740   3.693   3.498   7.320  2.7162 -0.1532  1.9933
17999THY    CA130741   3.690   3.588   7.480 -0.2689  0.8263 -0.7669
17999THY    CA230742   3.608   3.627   7.580  0.2476 -0.3485  1.1849
17999THY    CP130743   3.463   3.673   7.557  0.4182  0.0428 -0.3381
17999THY    HP130744   3.442   3.689   7.450  1.5175  0.2521  3.7459
17999THY    CP230745   3.448   3.816   7.608  0.2867 -0.3667  0.0852
17999THY    HP230746   3.353   3.853   7.566 -0.8336  1.1974 -0.8764
17999THY    HP330747   3.539   3.869   7.580 -0.0502 -0.6758  0.5101
17999THY    HP430748   3.433   3.814   7.717 -1.9908 -0.6200  0.1376
17999THY    CP330749   3.373   3.568   7.606  0.0699 -1.1118 -0.3289
17999THY    HP530750   3.406   3.476   7.556  2.4806 -0.1391 -0.0637
17999THY    HP630751   3.270   3.583   7.569 -0.8815  1.3447 -0.3689
17999THY    HP730752   3.377   3.565   7.715 -1.2109 -0.9148  2.0997
17999THY    CA330753   3.649   3.622   7.716  0.0799 -0.0917  0.7157
17999THY    HA330754   3.575   3.648   7.792  0.4385  0.5172 -0.0092
17999THY    CA430755   3.782   3.578   7.738  0.8512 -0.2473 -0.0809
17999THY    HA430756   3.817   3.577   7.841 -2.0526  0.8283 -0.8464
17999THY    CA530757   3.868   3.538   7.633  1.2148 -0.1859  0.2200
17999THY    CM130758   4.014   3.494   7.659 -0.2683 -0.3007  0.0635
17999THY    HM130759   4.078   3.540   7.583 -0.6539 -0.9319 -0.4279
17999THY    HM230760   4.036   3.387   7.647  0.5451  0.8770  0.0831
17999THY    HM330761   4.055   3.511   7.759  0.1570 -0.2617 -1.0944
17999THY    CA630762   3.820   3.539   7.501  1.1763 -0.1367  0.0724
17999THY    HA630763   3.892   3.513   7.424 -0.6854 -1.1867 -2.2748
18000THY      O30764   7.106   7.186   4.409  0.4518 -0.0587 -0.3458
18000THY     HO30765   7.121   7.280   4.429 -3.2164 -0.7421  0.5251
18000THY    CA130766   7.223   7.132   4.362  0.3654  0.4414  0.1523
18000THY    CA230767   7.228   7.007   4.302  0.2076  0.2237 -0.3409
18000THY    CP130768   7.103   6.914   4.296  0.1799 -0.2641  0.9302
18000THY    HP130769   7.020   6.985   4.304 -0.0238 -0.0187  0.6664
18000THY    CP230770   7.104   6.798   4.403 -0.7424 -0.3591 -0.7041
18000THY    HP230771   7.185   6.726   4.385 -2.3759 -0.8513 -2.4914
18000THY    HP330772   7.014   6.735   4.405 -1.1979 -0.4594 -0.0617
18000THY    HP430773   7.124   6.838   4.503 -0.9875 -0.3431 -0.6222
18000THY    CP330774   7.086   6.856   4.152 -0.2928  0.0448 -0.1606
18000THY    HP530775   7.162   6.781   4.127  0.2788  0.2906  0.3257
18000THY    HP630776   7.088   6.936   4.076 -0.3577  0.3124  0.0992
18000THY    HP730777   6.985   6.817   4.135 -1.0729  2.2049  0.7836
18000THY    CA330778   7.349   6.954   4.260 -0.3437  0.4049 -0.6868
18000THY    HA330779   7.356   6.855   4.216 -0.3128 -1.2715  0.0314
18000THY    CA430780   7.466   7.039   4.262 -0.5407  0.7151  0.0577
18000THY    HA430781   7.557   7.007   4.213  0.3152  1.5330  1.1478
18000THY    CA530782   7.460   7.166   4.319  0.2795 -0.1505  0.2850
18000THY    CM130783   7.585   7.248   4.354 -0.4083  0.6190  0.1257
18000THY    HM130784   7.673   7.203   4.306 -0.4567  0.7148 -0.0692
18000THY    HM230785   7.605   7.237   4.461 -0.6290  0.5603 -1.0127
18000THY    HM330786   7.575   7.354   4.329  1.3877  0.5815  0.3175
18000THY    CA630787   7.340   7.207   4.377 -0.7667  0.3076  0.5287
18000THY    HA630788   7.341   7.294   4.442 -0.5150  0.8076  0.1529
18001THY      O30789   4.398   5.084   7.630  0.1046 -0.7855 -0.0447
18001THY     HO30790   4.353   5.158   7.673  0.7280  2.2583 -1.2836
18001THY    CA130791   4.321   5.035   7.530  0.0188 -0.2711  0.5792
18001THY    CA230792   4.361   4.925   7.455  0.2959  0.1488 -0.4541
18001THY    CP130793   4.490   4.860   7.494 -0.2422  0.5517 -0.5109
18001THY    HP130794   4.556   4.923   7.556  0.0630 -1.1807  0.9545
18001THY    CP230795   4.588   4.845   7.375 -0.6072 -0.2605  0.4769
18001THY    HP230796   4.602   4.933   7.311  0.4354  3.0950  2.9724
18001THY    HP330797   4.547   4.768   7.309  0.1823  0.5020 -0.6365
18001THY    HP430798   4.686   4.805   7.404  0.8146 -3.0192  1.6951
18001THY    CP330799   4.470   4.721   7.554 -0.4516  0.0828 -0.3125
18001THY    HP530800   4.426   4.647   7.487  1.3512 -2.5716  0.8779
18001THY    HP630801   4.409   4.742   7.643 -0.6046  0.3493 -1.7575
18001THY    HP730802   4.559   4.672   7.595 -2.3539  3.4909 -1.2815
18001THY    CA330803   4.275   4.871   7.356  0.1903  0.4242 -0.8999
18001THY    HA330804   4.317   4.802   7.283 -0.9474 -1.1492  0.0135
18001THY    CA430805   4.149   4.929   7.337 -0.1175  0.2001 -0.0189
18001THY    HA430806   4.086   4.901   7.253  1.1227 -1.1978  1.1656
18001THY    CA530807   4.111   5.034   7.421  0.4395 -0.0378 -0.0056
18001THY    CM130808   3.974   5.080   7.413  0.3729  0.1900 -0.3652
18001THY    HM130809   3.905   4.996   7.429  0.9058  1.0027 -0.6663
18001THY    HM230810   3.954   5.128   7.316  1.1067  1.1920  2.1120
18001THY    HM330811   3.966   5.159   7.488  3.3294 -0.0042  0.2243
18001THY    CA630812   4.199   5.093   7.516  0.3990 -0.6259 -0.0887
18001THY    HA630813   4.173   5.173   7.584  3.3453  0.3000  0.1998
18002THY      O30814   4.400   6.454   4.992 -0.4020  0.0688  0.3910
18002THY     HO30815   4.377   6.360   5.000 -0.3810  2.4510  0.5265
18002THY    CA130816   4.336   6.501   4.889 -0.3706  0.1978  0.5267
18002THY    CA230817   4.337   6.640   4.857 -0.7333 -0.2514  0.1049
18002THY    CP130818   4.413   6.741   4.940  0.5251 -0.0213 -1.0322
18002THY    HP130819   4.476   6.678   5.005  1.6456 -1.1794 -1.1646
18002THY    CP230820   4.327   6.835   5.018 -0.0903  0.0191 -0.4866
18002THY    HP230821   4.277   6.912   4.957 -1.5882  0.1778 -1.2813
18002THY    HP330822   4.396   6.889   5.083 -1.2340 -0.7211  2.0418
18002THY    HP430823   4.255   6.776   5.076  1.4189  0.8799 -1.5357
18002THY    CP330824   4.501   6.828   4.852  0.2507 -0.5196 -0.5611
18002THY    HP530825   4.538   6.906   4.919  0.4106 -1.9663  0.6491
18002THY    HP630826   4.445   6.876   4.771 -3.1239  1.3811 -0.9737
18002THY    HP730827   4.582   6.762   4.817  1.0791  1.0144 -0.3882
18002THY    CA330828   4.245   6.679   4.755  0.0017  0.1236 -0.0282
18002THY    HA330829   4.227   6.785   4.744  1.6309 -3.1721  0.0184
18002THY    CA430830   4.181   6.585   4.677 -0.4470  0.2891 -0.0036
18002THY    HA430831   4.116   6.612   4.594 -1.2604  0.3261 -1.7020
18002THY    CA530832   4.180   6.449   4.712 -0.2129 -0.0004  0.5480
18002THY    CM130833   4.090   6.356   4.641 -0.1788  0.3032  0.3233
18002THY    HM130834   4.023   6.410   4.573  0.5436 -1.3905 -0.8077
18002THY    HM230835   4.023   6.300   4.707 -1.5293 -1.6632 -0.5178
18002THY    HM330836   4.141   6.283   4.576 -0.3991 -0.3707  0.7571
18002THY    CA630837   4.267   6.410   4.816  0.1023 -0.2148  0.1952
18002THY    HA630838   4.261   6.302   4.831  2.1288  0.4711  0.1358
18003THY      O30839   4.065   2.141   2.687 -0.9445 -0.5560  0.3815
18003THY     HO30840   4.073   2.182   2.599  0.8513 -0.9854 -0.7586
18003THY    CA130841   3.938   2.094   2.682  0.3733 -0.2106  0.4309
18003THY    CA230842   3.861   2.052   2.794  0.3899 -0.7131 -0.4196
18003THY    CP130843   3.921   2.056   2.937  0.1201  0.0895  0.0392
18003THY    HP130844   4.018   2.101   2.911 -0.6751 -1.9947  0.6569
18003THY    CP230845   3.925   1.922   3.013 -0.0299  0.1941  0.2323
18003THY    HP230846   4.003   1.858   2.971 -0.9751  1.1924 -1.6678
18003THY    HP330847   3.833   1.866   2.996 -1.9501  1.5372  2.7646
18003THY    HP430848   3.935   1.932   3.122  0.9317  0.5411 -3.3563
18003THY    CP330849   3.850   2.159   3.028 -0.2497  0.3180 -0.2118
18003THY    HP530850   3.744   2.132   3.033 -1.0178 -1.0314  2.2728
18003THY    HP630851   3.885   2.255   2.988  1.3813 -1.4328 -1.4785
18003THY    HP730852   3.902   2.149   3.124  0.7359 -0.1210  0.4625
18003THY    CA330853   3.732   2.006   2.771 -0.4166 -0.1418 -0.2525
18003THY    HA330854   3.674   1.977   2.859 -0.9053 -1.7297 -5.0244
18003THY    CA430855   3.672   2.013   2.642  0.5464 -1.5685 -0.0865
18003THY    HA430856   3.569   1.981   2.624  0.4200  1.6842 -1.8956
18003THY    CA530857   3.750   2.056   2.534 -0.5463 -0.0749  0.1626
18003THY    CM130858   3.686   2.066   2.399  0.0765  0.3332 -1.0171
18003THY    HM130859   3.774   2.056   2.335 -0.2615 -0.5160  0.9015
18003THY    HM230860   3.645   2.167   2.381 -0.4967  0.6926 -1.1796
18003THY    HM330861   3.613   1.987   2.383 -0.5103  1.8963 -0.8367
18003THY    CA630862   3.884   2.091   2.552  0.5475 -0.9315 -0.6596
18003THY    HA630863   3.939   2.125   2.464 -0.5114 -1.6506 -0.7666
18004THY      O30864   3.975   1.899   3.865  0.3662  0.5073 -0.3123
18004THY     HO30865   3.894   1.848   3.879  1.3190  1.7868 -1.5927
18004THY    CA130866   3.963   2.019   3.923 -0.2413  0.6578 -1.1098
18004THY    CA230867   4.059   2.123   3.897  0.7407 -0.2189 -0.3126
18004THY    CP130868   4.181   2.093   3.804  0.1357 -0.4519 -0.3738
18004THY    HP130869   4.154   2.005   3.746  0.4889 -0.0297 -0.7700
18004THY    CP230870   4.311   2.061   3.865  0.3874 -0.3696 -0.5444
18004THY    HP230871   4.295   1.987   3.944 -0.1789 -1.8688 -2.0677
18004THY    HP330872   4.363   2.149   3.906  0.2508 -2.3894  0.5414
18004THY    HP430873   4.392   2.016   3.807  2.5321  2.3370 -0.4423
18004THY    CP330874   4.206   2.212   3.714 -0.5369 -0.8564 -0.7842
18004THY    HP530875   4.209   2.314   3.753 -1.6723 -0.9937 -0.6929
18004THY    HP630876   4.119   2.201   3.648 -0.4172 -1.0765 -0.4208
18004THY    HP730877   4.299   2.197   3.657  1.1012  1.6482 -0.7886
18004THY    CA330878   4.046   2.242   3.967  0.2212  0.1978  0.0032
18004THY    HA330879   4.121   2.319   3.958  0.1635  0.2962  0.0704
18004THY    CA430880   3.937   2.260   4.050  0.4292  0.4329  0.0420
18004THY    HA430881   3.921   2.352   4.106  1.2102  0.2610  0.2846
18004THY    CA530882   3.830   2.165   4.058 -0.9204 -0.2084  0.2173
18004THY    CM130883   3.714   2.173   4.151  0.6101 -0.0449  0.7964
18004THY    HM130884   3.673   2.073   4.170  0.2823  1.8377  1.2428
18004THY    HM230885   3.630   2.229   4.107 -1.1781  0.1798 -1.5382
18004THY    HM330886   3.730   2.228   4.245  0.4117  0.0595  0.6768
18004THY    CA630887   3.844   2.048   3.984  0.0581  0.6255 -0.1161
18004THY    HA630888   3.765   1.974   3.973 -1.1110  1.7735  0.9194
18005THY      O30889   0.082   1.830   7.624  0.5373  0.0431  0.1140
18005THY     HO30890   0.078   1.927   7.628 -0.0237  2.1416  0.0543
18005THY    CA130891   0.157   1.808   7.519 -0.2489 -0.3539  0.7150
18005THY    CA230892   0.252   1.704   7.525 -0.0726 -0.7586 -0.9511
18005THY    CP130893   0.263   1.610   7.648 -0.1466  0.7068 -0.5086
18005THY    HP130894   0.175   1.626   7.712 -0.5966 -0.5387  2.5249
18005THY    CP230895   0.385   1.635   7.743 -0.1862  0.7504 -0.0526
18005THY    HP230896   0.478   1.640   7.685 -1.5797 -1.5258  0.8495
18005THY    HP330897   0.390   1.548   7.810 -2.2024  0.2569 -0.5857
18005THY    HP430898   0.379   1.730   7.799 -1.4749 -2.1661  1.7084
18005THY    CP330899   0.268   1.462   7.601 -0.4873  0.1107  0.2317
18005THY    HP530900   0.366   1.430   7.565 -1.8310 -1.6826 -2.1560
18005THY    HP630901   0.198   1.439   7.520 -1.1272  0.8917 -0.6547
18005THY    HP730902   0.244   1.403   7.691 -0.1605 -1.0758 -1.7877
18005THY    CA330903   0.346   1.679   7.419  1.0803  0.1922 -0.7204
18005THY    HA330904   0.430   1.610   7.428  1.2477 -1.6572 -0.8053
18005THY    CA430905   0.319   1.749   7.297 -0.3130 -0.0024  0.1653
18005THY    HA430906   0.371   1.725   7.205 -1.2758 -1.1577  2.2617
18005THY    CA530907   0.213   1.846   7.292 -0.2115 -0.0844  0.6394
18005THY    CM130908   0.178   1.930   7.168  0.4764  1.0269  0.4356
18005THY    HM130909   0.075   1.899   7.147  0.1575  0.8051  1.5731
18005THY    HM230910   0.241   1.907   7.081 -1.0175 -0.2154  0.8990
18005THY    HM330911   0.196   2.038   7.176 -1.3895 -2.0506  1.0873
18005THY    CA630912   0.143   1.887   7.411  0.1776  0.3409 -0.5977
18005THY    HA630913   0.073   1.970   7.417 -0.2452 -2.6166 -0.6355
18006THY      O30914   3.399   0.969   7.113  0.1276 -0.0617  0.5055
18006THY     HO30915   3.404   0.908   7.188  0.3900 -0.7175 -0.3025
18006THY    CA130916   3.301   1.053   7.139  0.4823  0.3368 -0.5891
18006THY    CA230917   3.266   1.159   7.048  0.0200  0.5149 -0.1517
18006THY    CP130918   3.344   1.179   6.917 -0.1821  0.4726 -0.3549
18006THY    HP130919   3.397   1.092   6.877  0.8787 -2.3076  1.4452
18006THY    CP230920   3.447   1.283   6.941 -0.1064 -0.0475  0.3016
18006THY    HP230921   3.519   1.277   6.858 -0.7707 -0.7217  1.3931
18006THY    HP330922   3.508   1.271   7.032  0.9965 -0.9045 -0.8888
18006THY    HP430923   3.411   1.386   6.950  2.3932  0.1285  1.2295
18006THY    CP330924   3.266   1.222   6.795  0.0780 -0.7870  0.5488
18006THY    HP530925   3.238   1.328   6.803  3.6772 -1.2957  1.6455
18006THY    HP630926   3.177   1.158   6.786  1.1047 -2.6992 -0.7066
18006THY    HP730927   3.323   1.205   6.704 -1.5689 -1.5216 -1.4399
18006THY    CA330928   3.170   1.258   7.088 -0.5937 -0.4869  0.2502
18006THY    HA330929   3.128   1.339   7.029 -1.4767  3.4822  3.0150
18006THY    CA430930   3.110   1.232   7.210  0.2515  0.5840 -0.0956
18006THY    HA430931   3.033   1.302   7.242 -1.1980  0.2971 -1.5004
18006THY    CA530932   3.143   1.132   7.297  0.0397  0.1885  0.0228
18006THY    CM130933   3.071   1.131   7.433 -0.0867 -0.5585 -0.1842
18006THY    HM130934   3.110   1.051   7.497 -0.1767  1.5444  1.3359
18006THY    HM230935   2.961   1.121   7.434 -0.0487  2.1396 -1.3658
18006THY    HM330936   3.088   1.225   7.488 -2.4261  1.6353 -0.8925
18006THY    CA630937   3.241   1.039   7.258 -0.4588 -0.7002 -0.5422
18006THY    HA630938   3.255   0.948   7.316  1.1175 -0.4909 -0.1929
18007THY      O30939   6.935   2.376   7.254  0.6481  0.1818  0.1403
18007THY     HO30940   7.027   2.403   7.235  1.2011  1.7878 -0.4665
18007THY    CA130941   6.938   2.387   7.384  0.2417 -0.2731  0.0781
18007THY    CA230942   6.824   2.418   7.457  0.2657 -0.3314  0.2040
18007THY    CP130943   6.687   2.422   7.392  0.1481 -0.2649 -0.2518
18007THY    HP130944   6.686   2.392   7.286 -2.7992  0.1654 -2.1279
18007THY    CP230945   6.624   2.559   7.395 -0.3369 -0.2167  0.9034
18007THY    HP230946   6.695   2.637   7.365  0.4815 -2.3422 -0.5487
18007THY    HP330947   6.587   2.576   7.497 -1.0718 -0.7622  2.9029
18007THY    HP430948   6.542   2.555   7.323  0.9158 -1.8074  2.2947
18007THY    CP330949   6.595   2.300   7.440  0.3218  0.4488 -0.3328
18007THY    HP530950   6.596   2.306   7.549  0.8877  0.4094  0.4593
18007THY    HP630951   6.644   2.211   7.398 -1.4120 -1.0173 -0.6524
18007THY    HP730952   6.499   2.314   7.389  1.2133 -1.8151 -1.9503
18007THY    CA330953   6.836   2.440   7.600  0.0261  0.0699 -0.1327
18007THY    HA330954   6.749   2.452   7.663 -1.3702 -1.9822  1.2605
18007THY    CA430955   6.960   2.442   7.655 -1.0130 -0.4877  0.2535
18007THY    HA430956   6.969   2.463   7.761  1.1815 -0.2538 -1.4982
18007THY    CA530957   7.075   2.416   7.576  0.3598 -0.2189 -0.4296
18007THY    CM130958   7.204   2.428   7.632 -0.1669  0.0722 -0.5063
18007THY    HM130959   7.212   2.411   7.740 -0.4476  0.7821  3.1097
18007THY    HM230960   7.246   2.528   7.614 -1.4471 -1.6659 -0.2404
18007THY    HM330961   7.272   2.359   7.581 -0.9191  0.3770 -1.5070
18007THY    CA630962   7.062   2.388   7.443  0.2700 -0.3274 -0.1696
18007THY    HA630963   7.153   2.371   7.387  1.2176  1.7193 -2.4487
18008THY      O30964   0.810   7.444   7.725 -0.0240  0.0435 -0.0159
18008THY     HO30965   0.762   7.482   7.649  1.4104  0.7294  3.5994
18008THY    CA130966   0.935   7.452   7.678  0.0411 -0.2053  1.0906
18008THY    CA230967   1.037   7.402   7.754 -0.1290 -0.6762 -0.5461
18008THY    CP130968   1.008   7.340   7.896 -0.4443 -0.5063 -0.2569
18008THY    HP130969   0.907   7.297   7.891  0.0504  1.3376 -1.7493
18008THY    CP230970   1.017   7.457   8.003 -0.2600  0.7232 -0.3707
18008THY    HP230971   1.115   7.506   8.002 -1.1906 -3.9080  1.9010
18008THY    HP330972   0.988   7.411   8.099 -3.7698 -0.2869 -0.5690
18008THY    HP430973   0.952   7.543   7.987  1.3008  2.0182  1.1135
18008THY    CP330974   1.107   7.233   7.931 -1.0883  0.0814  0.4786
18008THY    HP530975   1.207   7.275   7.949 -0.6239 -1.4692  0.1231
18008THY    HP630976   1.117   7.147   7.863 -0.7625  0.3662  0.2879
18008THY    HP730977   1.067   7.182   8.019  1.7813  2.0429  1.3542
18008THY    CA330978   1.170   7.409   7.708  0.6928  0.1756  0.0740
18008THY    HA330979   1.256   7.369   7.762 -0.5234  1.6320 -0.6590
18008THY    CA430980   1.190   7.475   7.585 -0.3714  0.8847  0.6032
18008THY    HA430981   1.286   7.466   7.534  0.2087  2.1827 -1.0413
18008THY    CA530982   1.080   7.526   7.511 -1.0730  0.3960  0.3636
18008THY    CM130983   1.104   7.574   7.373 -0.3931  0.5559  0.3026
18008THY    HM130984   1.043   7.514   7.305 -0.1084 -1.4578  2.1989
18008THY    HM230985   1.207   7.557   7.341 -0.7996 -1.2737  1.0837
18008THY    HM330986   1.096   7.682   7.362  2.5404  0.6873  0.6108
18008THY    CA630987   0.953   7.520   7.557  0.0184 -0.1407  0.4485
18008THY    HA630988   0.867   7.552   7.500  0.1219 -1.5093 -1.5138
18009THY      O30989   6.077   7.188   3.343  0.3901  0.2016 -0.0013
18009THY     HO30990   6.122   7.102   3.332  0.1258  0.3264 -0.1578
18009THY    CA130991   5.984   7.198   3.243  1.0203  0.0362  0.0354
18009THY    CA230992   5.869   7.277   3.255  0.8163  0.1545 -0.8539
18009THY    CP130993   5.832   7.350   3.386 -0.0310 -0.4181  0.3975
18009THY    HP130994   5.905   7.321   3.463 -1.4300  1.3329  1.2538
18009THY    CP230995   5.691   7.319   3.436  0.6783  0.2175 -0.0805
18009THY    HP230996   5.680   7.210   3.439 -1.7578  1.5852  0.1453
18009THY    HP330997   5.611   7.370   3.381  2.3126 -0.8263  1.4699
18009THY    HP430998   5.686   7.355   3.539 -2.2500  0.5744 -1.2481
18009THY    CP330999   5.847   7.502   3.369 -0.0009  0.6950 -0.5729
18009THY    HP531000   5.756   7.562   3.356  0.7875  1.3806  0.8375
18009THY    HP631001   5.928   7.527   3.299  0.4033  1.4615  0.3076
18009THY    HP731002   5.883   7.527   3.469  1.5747 -0.2803  1.3817
18009THY    CA331003   5.769   7.270   3.150 -1.0309 -0.3560 -0.3430
18009THY    HA331004   5.665   7.301   3.160 -1.2478 -0.4598 -1.0021
18009THY    CA431005   5.788   7.185   3.038  0.0189 -0.1791 -1.0717
18009THY    HA431006   5.704   7.176   2.970  0.4789 -0.6846 -1.6497
18009THY    CA531007   5.908   7.113   3.021  0.2098 -0.2553 -0.3571
18009THY    CM131008   5.932   7.042   2.898  0.7192  0.7596 -0.3880
18009THY    HM131009   5.982   7.101   2.820 -0.5101 -0.5527 -1.0178
18009THY    HM231010   5.837   7.009   2.855 -0.2222  2.6062 -0.2111
18009THY    HM331011   5.990   6.950   2.909 -1.1768 -0.9722 -1.8923
18009THY    CA631012   6.004   7.115   3.126 -0.9171  0.5549 -0.0519
18009THY    HA631013   6.096   7.058   3.120 -0.1759  2.3820  0.8452
18010THY      O31014   2.001   3.085   2.969 -0.1012 -0.6242  0.1439
18010THY     HO31015   1.988   3.007   3.025  1.1102 -0.0827  0.3013
18010THY    CA131016   1.925   3.180   3.033  0.0891 -0.0505  0.0186
18010THY    CA231017   1.912   3.310   2.981  0.7722  0.4295  0.2774
18010THY    CP131018   1.969   3.350   2.840 -0.3796 -0.2945 -0.0923
18010THY    HP131019   1.986   3.256   2.785  0.8925 -2.7932  1.4932
18010THY    CP231020   2.101   3.421   2.841  0.3995 -0.0653 -0.2836
18010THY    HP231021   2.144   3.412   2.741  1.0872  0.1665  0.3248
18010THY    HP331022   2.186   3.385   2.901  2.3685 -1.3236  1.9543
18010THY    HP431023   2.095   3.529   2.862  1.3384 -0.9624 -0.0427
18010THY    CP331024   1.874   3.434   2.745 -0.4525 -0.3732  0.2898
18010THY    HP531025   1.769   3.404   2.744 -0.6780 -1.3139  1.0718
18010THY    HP631026   1.919   3.438   2.646  0.3916  0.0085  0.4677
18010THY    HP731027   1.865   3.537   2.782 -0.5911 -1.0003  0.5045
18010THY    CA331028   1.830   3.402   3.048 -0.3090  0.2016  0.0874
18010THY    HA331029   1.814   3.504   3.014 -0.8594 -1.9167 -0.6578
18010THY    CA431030   1.759   3.357   3.163  0.2445  1.1324 -0.2981
18010THY    HA431031   1.693   3.424   3.218 -0.6571  1.1719 -1.1853
18010THY    CA531032   1.770   3.228   3.215 -0.1521 -0.0817  0.2260
18010THY    CM131033   1.709   3.200   3.346  0.3663 -0.1597  0.1023
18010THY    HM131034   1.725   3.093   3.366  0.9720 -0.0569  0.2067
18010THY    HM231035   1.603   3.222   3.363  0.7873  3.2739  0.1094
18010THY    HM331036   1.774   3.251   3.419  0.4180 -0.5342  0.5767
18010THY    CA631037   1.847   3.138   3.146 -0.5974  0.5998 -0.2401
18010THY    HA631038   1.853   3.033   3.176  1.8455 -0.1991 -0.3859
18011THY      O31039   2.764   4.408   4.942  0.8711 -0.0649 -0.7311
18011THY     HO31040   2.752   4.349   4.866  1.4132 -1.4125  0.8470
18011THY    CA131041   2.825   4.516   4.890 -0.7379  0.5191 -0.2477
18011THY    CA231042   2.895   4.612   4.964  0.1079  0.4682  0.3185
18011THY    CP131043   2.913   4.598   5.115  0.2090  0.1819  0.8741
18011THY    HP131044   2.825   4.543   5.151 -1.2785 -1.0145  2.3557
18011THY    CP231045   2.920   4.730   5.200  0.3959 -0.7191  0.0165
18011THY    HP231046   2.899   4.712   5.306  1.2213 -0.4862  0.3413
18011THY    HP331047   2.843   4.798   5.162  1.0031 -1.1375  0.4882
18011THY    HP431048   3.018   4.777   5.215 -0.2018 -0.6146  1.2619
18011THY    CP331049   3.033   4.509   5.135  0.1172  0.7598  0.4405
18011THY    HP531050   3.130   4.556   5.111  0.4502  0.3798 -0.4132
18011THY    HP631051   3.030   4.415   5.080 -0.9843  1.9259 -0.2247
18011THY    HP731052   3.052   4.478   5.238 -0.1380  0.9109  0.7737
18011THY    CA331053   2.963   4.719   4.898 -0.8924  0.4111 -0.0157
18011THY    HA331054   3.020   4.790   4.957  0.7907 -1.7743  0.5747
18011THY    CA431055   2.957   4.736   4.757  0.4323  0.1032  0.1471
18011THY    HA431056   3.006   4.821   4.710  1.7405  1.2657  0.0602
18011THY    CA531057   2.891   4.639   4.684  0.1716  0.6994 -0.2311
18011THY    CM131058   2.888   4.648   4.532 -0.1584 -0.4260 -0.1679
18011THY    HM131059   2.986   4.622   4.489 -0.8830 -0.9610 -2.2641
18011THY    HM231060   2.856   4.752   4.519 -0.2577 -0.2947 -0.1818
18011THY    HM331061   2.813   4.578   4.495 -0.2453  1.1165 -0.9241
18011THY    CA631062   2.819   4.531   4.745  0.6195  0.1696  0.1738
18011THY    HA631063   2.753   4.474   4.679  2.0942 -0.2894 -1.0658
18012THY      O31064   6.520   3.833   4.415 -0.0583  0.1469 -0.1088
18012THY     HO31065   6.477   3.891   4.350  3.3388 -1.7323  0.5611
18012THY    CA131066   6.577   3.913   4.514  0.4147  0.3992 -0.0509
18012THY    CA231067   6.675   3.865   4.601 -0.2754 -0.3733  0.1065
18012THY    CP131068   6.722   3.725   4.595  0.2389 -0.3186  0.3294
18012THY    HP131069   6.708   3.685   4.493  2.4380  0.2035 -1.9854
18012THY    CP231070   6.652   3.641   4.710 -0.6203  0.0058  0.6686
18012THY    HP231071   6.721   3.615   4.792  1.0875 -1.7444 -0.6374
18012THY    HP331072   6.607   3.552   4.666 -1.0419 -0.3735  1.0680
18012THY    HP431073   6.563   3.688   4.752 -0.3448  0.7684  0.5230
18012THY    CP331074   6.878   3.704   4.613  0.3478  0.3445  0.5647
18012THY    HP531075   6.916   3.749   4.706 -0.7147  0.5231  1.1081
18012THY    HP631076   6.929   3.747   4.527  0.5322  0.5840  0.8325
18012THY    HP731077   6.903   3.598   4.629 -1.5218 -2.6377 -0.4394
18012THY    CA331078   6.722   3.955   4.700 -0.2374  0.1896  0.0063
18012THY    HA331079   6.797   3.925   4.772  0.3261 -0.8303 -1.1839
18012THY    CA431080   6.690   4.092   4.695  1.0043 -0.3167  0.3479
18012THY    HA431081   6.734   4.163   4.765 -0.4609  0.4717  0.5174
18012THY    CA531082   6.597   4.139   4.601 -0.1669  0.7059  0.8334
18012THY    CM131083   6.543   4.280   4.584 -0.2136  0.6919 -0.0536
18012THY    HM131084   6.443   4.263   4.542  0.3571 -0.3354 -1.0215
18012THY    HM231085   6.599   4.329   4.504 -1.4462 -0.5330 -0.5638
18012THY    HM331086   6.536   4.345   4.672  1.2304  0.5629  0.2961
18012THY    CA631087   6.547   4.052   4.505  0.8145 -0.2169 -0.0559
18012THY    HA631088   6.477   4.091   4.432  0.9435 -0.2890  0.0407
18013THY      O31089   7.390   1.219   6.250  0.7623 -0.2640  0.1013
18013THY     HO31090   7.315   1.175   6.294 -0.0065 -0.2972  1.3279
18013THY    CA131091   7.345   1.342   6.225 -0.1771  0.1846  0.3456
18013THY    CA231092   7.410   1.420   6.129  0.3193 -0.6946 -0.1717
18013THY    CP131093   7.521   1.361   6.040 -0.1890 -0.8547 -0.4716
18013THY    HP131094   7.561   1.266   6.077  0.9895  1.0816  0.7265
18013THY    CP231095   7.643   1.451   6.035  0.3792  0.0156 -0.0256
18013THY    HP231096   7.727   1.397   5.992 -0.8888  0.5348 -2.5486
18013THY    HP331097   7.669   1.494   6.133 -0.3871  0.7403 -1.1689
18013THY    HP431098   7.630   1.539   5.970  2.3509 -0.6985 -0.2261
18013THY    CP331099   7.456   1.344   5.899  0.4745  0.1862 -0.5675
18013THY    HP531100   7.366   1.282   5.894 -1.2804 -2.4607  1.9279
18013THY    HP631101   7.531   1.305   5.828 -0.5001  0.2321 -2.6798
18013THY    HP731102   7.421   1.441   5.862 -0.2709  0.4116 -0.7507
18013THY    CA331103   7.364   1.554   6.103  0.7206  0.1138  0.2541
18013THY    HA331104   7.401   1.621   6.027  2.2405 -0.7956 -1.5254
18013THY    CA431105   7.258   1.599   6.178 -0.0617 -0.1729 -0.6913
18013THY    HA431106   7.231   1.704   6.168  2.7460 -1.3863  0.0057
18013THY    CA531107   7.195   1.518   6.276 -0.0552  0.7258 -0.7877
18013THY    CM131108   7.090   1.576   6.367 -0.0013 -1.2868  0.1197
18013THY    HM131109   7.081   1.682   6.341  1.4840  2.7799  1.4478
18013THY    HM231110   7.120   1.564   6.472 -0.7928 -1.1183 -0.4728
18013THY    HM331111   6.993   1.527   6.354 -1.0003 -0.7058  1.8692
18013THY    CA631112   7.233   1.385   6.296 -0.0637  0.9148 -0.8288
18013THY    HA631113   7.197   1.329   6.381  0.4483  1.4720 -0.3346
18014THY      O31114   5.686   6.707   5.023 -0.4077 -0.3440  0.1630
18014THY     HO31115   5.734   6.759   4.957 -0.2669 -0.4039 -0.0428
18014THY    CA131116   5.631   6.799   5.106  0.7619 -0.5998 -0.5459
18014THY    CA231117   5.543   6.762   5.211 -0.7804 -0.1175  0.1606
18014THY    CP131118   5.514   6.616   5.236 -0.6383  1.0048 -0.0935
18014THY    HP131119   5.535   6.563   5.141 -1.5032  1.2311 -0.8766
18014THY    CP231120   5.362   6.588   5.241 -0.0153  0.3858  0.1567
18014THY    HP231121   5.343   6.506   5.311  2.3853  0.3390 -0.5049
18014THY    HP331122   5.325   6.565   5.141  1.8025 -0.9269  2.4981
18014THY    HP431123   5.303   6.671   5.282  0.0179 -0.5633  0.6604
18014THY    CP331124   5.585   6.567   5.365  0.3610 -0.4364  0.4084
18014THY    HP531125   5.561   6.461   5.381 -0.8212  3.5186  1.0990
18014THY    HP631126   5.540   6.619   5.450 -0.1722 -0.3646 -0.1621
18014THY    HP731127   5.694   6.567   5.355  0.2818 -2.7744 -2.7746
18014THY    CA331128   5.484   6.857   5.292  0.5497  0.3111 -0.1966
18014THY    HA331129   5.411   6.833   5.368 -3.5200 -2.8743  1.0583
18014THY    CA431130   5.518   6.992   5.271 -0.0535  0.2844 -0.3127
18014THY    HA431131   5.473   7.073   5.328  1.2400 -2.0061  2.1943
18014THY    CA531132   5.615   7.026   5.178  0.1819 -0.0231 -0.0936
18014THY    CM131133   5.654   7.166   5.155  0.5479 -0.2771 -0.2147
18014THY    HM131134   5.622   7.193   5.054 -0.8296 -0.4927 -2.3770
18014THY    HM231135   5.763   7.171   5.163  0.5215  0.5656 -0.7129
18014THY    HM331136   5.606   7.233   5.227 -2.1991  1.1376 -3.3815
18014THY    CA631137   5.669   6.930   5.093  0.6172 -0.1010  0.1642
18014THY    HA631138   5.744   6.963   5.022 -0.1565 -0.3174  1.5630
18015THY      O31139   0.565   3.200   3.152 -0.3491 -0.4384 -0.2438
18015THY     HO31140   0.609   3.263   3.093 -2.7866 -0.7257  1.2979
18015THY    CA131141   0.663   3.166   3.248 -0.3379  0.3299 -0.1035
18015THY    CA231142   0.634   3.113   3.375 -0.2462 -0.3476 -0.4606
18015THY    CP131143   0.488   3.086   3.419 -1.0126 -0.2387  0.6826
18015THY    HP131144   0.447   3.032   3.332 -0.9892 -0.8533  1.6298
18015THY    CP231145   0.403   3.209   3.448 -0.1482  0.0740  0.2441
18015THY    HP231146   0.308   3.189   3.498  0.3594  0.7318 -0.6037
18015THY    HP331147   0.382   3.260   3.353 -1.8202  0.7272  0.8408
18015THY    HP431148   0.455   3.288   3.505 -1.1588  0.7803  0.4127
18015THY    CP331149   0.485   2.991   3.535 -0.7590 -0.8455  0.0473
18015THY    HP531150   0.384   2.956   3.558 -0.6104 -1.4782 -0.8232
18015THY    HP631151   0.527   3.041   3.624  0.5220 -0.6813 -1.2431
18015THY    HP731152   0.549   2.902   3.541 -1.1791  1.9089 -0.1623
18015THY    CA331153   0.746   3.077   3.461  0.1304  0.7930 -0.0292
18015THY    HA331154   0.727   3.037   3.560  3.3783  2.5717  2.3333
18015THY    CA431155   0.873   3.104   3.422  0.2507 -0.0303  1.0410
18015THY    HA431156   0.955   3.077   3.488  0.3804 -0.1834  1.0548
18015THY    CA531157   0.892   3.169   3.299  0.0493  0.6273  0.2160
18015THY    CM131158   1.032   3.196   3.269 -0.2900  0.4399  0.2677
18015THY    HM131159   1.099   3.113   3.297  2.0663 -3.1375  0.7515
18015THY    HM231160   1.081   3.287   3.304 -1.0314  1.2402  0.3765
18015THY    HM331161   1.041   3.198   3.160 -3.6852  0.0227 -0.5990
18015THY    CA631162   0.791   3.194   3.212 -0.0030 -0.2844  0.5506
18015THY    HA631163   0.805   3.244   3.116 -1.2006  0.5960  2.7003
18016THY      O31164   5.496   1.014   4.204 -0.0303 -0.2666 -0.0631
18016THY     HO31165   5.478   0.918   4.199 -0.3293  0.6233 -0.0591
18016THY    CA131166   5.375   1.072   4.188 -0.7489  0.1028  0.3653
18016THY    CA231167   5.346   1.201   4.249 -0.3273  0.3747 -0.5410
18016THY    CP131168   5.455   1.274   4.326  0.0230 -0.0951 -0.4062
18016THY    HP131169   5.526   1.198   4.362 -1.9542  0.9267 -1.8550
18016THY    CP231170   5.402   1.345   4.461  0.0517 -0.0393 -0.1448
18016THY    HP231171   5.374   1.268   4.534 -1.6193  1.0219  1.3846
18016THY    HP331172   5.313   1.406   4.441  0.0162  0.2100 -0.1139
18016THY    HP431173   5.485   1.398   4.511 -1.1563  0.5233  1.2906
18016THY    CP331174   5.529   1.381   4.241  0.5752  0.6649  0.1705
18016THY    HP531175   5.592   1.447   4.303 -1.7877  0.8394  2.4580
18016THY    HP631176   5.453   1.448   4.201  1.5599  1.0582  1.5828
18016THY    HP731177   5.582   1.342   4.154  0.1340  0.8985 -0.9580
18016THY    CA331178   5.220   1.261   4.220 -0.7238  0.3332 -0.0750
18016THY    HA331179   5.188   1.358   4.254 -1.5737 -1.2616  0.2411
18016THY    CA431180   5.120   1.194   4.145  0.4517  0.1807 -0.0763
18016THY    HA431181   5.025   1.243   4.127  0.1520  1.5997 -0.0648
18016THY    CA531182   5.151   1.069   4.096 -0.6883  0.5060  0.0384
18016THY    CM131183   5.047   0.997   4.021 -0.1024  0.1280 -0.0102
18016THY    HM131184   4.958   0.973   4.081 -0.6790  0.1798  2.0742
18016THY    HM231185   5.083   0.903   3.978 -2.1250  0.3348 -0.9402
18016THY    HM331186   5.010   1.054   3.935  0.9308 -0.2444  0.1219
18016THY    CA631187   5.270   1.004   4.119 -0.0605  0.0409  0.2794
18016THY    HA631188   5.278   0.902   4.083  1.2185 -0.2250  0.4555
18017THY      O31189   9.182   3.697   6.702  0.1151  0.0799  0.1362
18017THY     HO31190   9.270   3.656   6.711 -0.4746  0.1784 -1.1444
18017THY    CA131191   9.103   3.642   6.796 -0.4951  0.5525 -0.0789
18017THY    CA231192   8.969   3.657   6.790 -0.0973  0.4587 -0.1095
18017THY    CP131193   8.900   3.727   6.668  0.1571  0.4460 -0.0729
18017THY    HP131194   8.977   3.721   6.590  1.2972  1.5455 -0.3966
18017THY    CP231195   8.852   3.863   6.695 -0.3175 -0.4488 -0.0748
18017THY    HP231196   8.786   3.877   6.781  0.6598  0.1771  0.8038
18017THY    HP331197   8.820   3.923   6.609 -1.5566  1.7982  2.7104
18017THY    HP431198   8.940   3.917   6.733  0.8568 -2.1924 -0.6649
18017THY    CP331199   8.775   3.654   6.609  0.2095  0.2638  0.5979
18017THY    HP531200   8.685   3.660   6.671  0.1499  0.0720  1.9901
18017THY    HP631201   8.799   3.549   6.589  0.3362  0.9126  0.5005
18017THY    HP731202   8.744   3.697   6.513  3.3850 -1.7607 -1.2447
18017THY    CA331203   8.895   3.602   6.898 -0.0471 -0.4394  0.3732
18017THY    HA331204   8.787   3.605   6.893  0.0220 -2.0640  1.4546
18017THY    CA431205   8.952   3.542   7.002  0.1936 -0.3694 -0.6449
18017THY    HA431206   8.888   3.506   7.082  1.2533 -0.2276 -2.3236
18017THY    CA531207   9.088   3.518   6.999 -0.1013 -0.6530  0.0829
18017THY    CM131208   9.139   3.421   7.102 -0.4173  0.0269  0.2037
18017THY    HM131209   9.195   3.344   7.047 -0.0160 -1.4410  1.4878
18017THY    HM231210   9.058   3.370   7.155 -0.3428 -1.1064 -1.1706
18017THY    HM331211   9.201   3.468   7.179 -0.4544  0.0569  0.2028
18017THY    CA631212   9.163   3.570   6.894  0.3474 -0.3871  0.6826
18017THY    HA631213   9.269   3.549   6.888  0.2998 -1.6590  0.7530
18018THY      O31214   0.513   2.145   6.773 -0.0473  0.5435  0.0913
18018THY     HO31215   0.430   2.145   6.824  0.2834  1.0895 -0.6953
18018THY    CA131216   0.608   2.116   6.863  0.3777 -0.9150  0.0141
18018THY    CA231217   0.731   2.079   6.819  0.0437 -0.1680 -0.4816
18018THY    CP131218   0.770   2.088   6.672  0.5415  0.4874  0.7457
18018THY    HP131219   0.681   2.121   6.618 -0.6773  1.4159 -0.8685
18018THY    CP231220   0.786   1.945   6.622 -0.4545  0.6979 -0.4772
18018THY    HP231221   0.871   1.895   6.670 -0.4177 -1.0096 -2.1622
18018THY    HP331222   0.788   1.956   6.513 -2.4441  0.8667  2.8185
18018THY    HP431223   0.697   1.889   6.651 -0.0999 -0.8182 -1.9052
18018THY    CP331224   0.888   2.183   6.635  0.1351  0.0376  0.3796
18018THY    HP531225   0.917   2.153   6.533 -0.1400  0.4666 -1.4515
18018THY    HP631226   0.971   2.169   6.704  1.3632 -1.8329 -2.8936
18018THY    HP731227   0.848   2.284   6.645  0.4619  2.5302  0.3011
18018THY    CA331228   0.824   2.035   6.919  0.3241 -0.7944  0.0895
18018THY    HA331229   0.921   1.994   6.890  0.2310 -0.2015 -0.5741
18018THY    CA431230   0.789   2.033   7.052  0.0858 -0.4386 -0.4062
18018THY    HA431231   0.863   1.997   7.123  0.1888 -1.0076 -1.3724
18018THY    CA531232   0.659   2.072   7.089 -0.8140 -0.9060  0.1842
18018THY    CM131233   0.613   2.055   7.233 -0.5963 -0.3120 -0.1896
18018THY    HM131234   0.665   2.102   7.317 -0.8433 -0.3252  0.1073
18018THY    HM231235   0.620   1.952   7.272  1.8165  2.1519  0.7798
18018THY    HM331236   0.509   2.088   7.240 -0.3147  2.1199  0.3577
18018THY    CA631237   0.573   2.114   6.995  0.0770 -0.0414 -0.2247
18018THY    HA631238   0.469   2.134   7.018 -0.0847 -2.2154  1.9280
18019THY      O31239   8.564   4.173   7.698 -0.4497 -0.5518  0.1102
18019THY     HO31240   8.650   4.150   7.738 -0.3851 -0.6435  0.1877
18019THY    CA131241   8.564   4.303   7.682  1.1254 -0.8783 -1.2246
18019THY    CA231242   8.465   4.369   7.604  0.2624 -0.4316  1.2160
18019THY    CP131243   8.345   4.290   7.539 -0.2293 -0.3839 -0.3149
18019THY    HP131244   8.385   4.198   7.496 -0.5794 -1.8642  0.2014
18019THY    CP231245   8.289   4.365   7.408 -0.1733  0.4631  0.9915
18019THY    HP231246   8.225   4.302   7.346  0.9895  1.7903 -1.6506
18019THY    HP331247   8.373   4.377   7.339  0.3287  0.8946  0.0529
18019THY    HP431248   8.239   4.460   7.431 -0.3963  1.5470  0.6239
18019THY    CP331249   8.238   4.258   7.638 -0.1501  0.1039 -0.0318
18019THY    HP531250   8.185   4.349   7.668  0.2480  1.9601 -0.3702
18019THY    HP631251   8.288   4.220   7.728  0.3965  0.3155  1.1418
18019THY    HP731252   8.170   4.179   7.604  0.4991 -0.9471 -0.1520
18019THY    CA331253   8.470   4.512   7.611  0.2195  0.2704 -0.0097
18019THY    HA331254   8.384   4.566   7.572  0.3294  1.2424  0.9142
18019THY    CA431255   8.578   4.586   7.669  0.3081 -0.4300  0.7473
18019THY    HA431256   8.585   4.694   7.666 -0.0273  0.1895  0.7909
18019THY    CA531257   8.676   4.514   7.746  0.1677  0.5611 -0.3707
18019THY    CM131258   8.786   4.591   7.818 -0.0019 -0.2704  0.5287
18019THY    HM131259   8.878   4.537   7.843  0.9617 -3.5365  0.4147
18019THY    HM231260   8.748   4.634   7.911  1.5449  0.9164 -0.5508
18019THY    HM331261   8.802   4.687   7.767 -0.2656  1.8362  1.7399
18019THY    CA631262   8.666   4.376   7.743  0.2761 -0.7968 -0.0821
18019THY    HA631263   8.736   4.307   7.789 -1.4801 -0.4700 -1.7300
18020THY      O31264   7.565   5.099   6.141  0.0872  0.2301  0.4249
18020THY     HO31265   7.566   5.017   6.193  1.2428  0.1814  0.3830
18020THY    CA131266   7.488   5.089   6.037 -0.5171  0.7103  0.1640
18020THY    CA231267   7.420   5.200   5.986  0.6726 -0.6969 -0.4503
18020THY    CP131268   7.438   5.348   6.026 -0.5019 -0.8846  0.3417
18020THY    HP131269   7.496   5.358   6.119 -1.8765  0.2356 -1.4238
18020THY    CP231270   7.306   5.405   6.064 -0.2495  0.1724 -0.4074
18020THY    HP231271   7.262   5.455   5.977 -2.5858  1.3104 -0.3005
18020THY    HP331272   7.317   5.480   6.144 -1.9655 -1.1095  1.3035
18020THY    HP431273   7.239   5.324   6.096  0.6567 -1.3359 -1.8098
18020THY    CP331274   7.515   5.426   5.916 -0.0508  0.5300 -0.2495
18020THY    HP531275   7.616   5.385   5.900 -0.3361  0.5301 -0.9705
18020THY    HP631276   7.520   5.534   5.935  0.2857  0.3412 -0.2318
18020THY    HP731277   7.469   5.423   5.817  0.7957  0.1358 -2.6900
18020THY    CA331278   7.322   5.178   5.886  0.9479 -0.2636  0.1160
18020THY    HA331279   7.268   5.263   5.845  0.5973  1.3395  0.6961
18020THY    CA431280   7.305   5.050   5.830 -0.1300  0.6240 -0.4180
18020THY    HA431281   7.219   5.038   5.764 -0.1460 -0.1152  2.7390
18020THY    CA531282   7.377   4.941   5.887  0.2277 -0.8154  0.0334
18020THY    CM131283   7.352   4.794   5.848 -0.1346  0.6465  0.4756
18020THY    HM131284   7.440   4.749   5.801  0.4586  0.3261  1.9103
18020THY    HM231285   7.275   4.789   5.770  1.1808 -0.6928  0.4974
18020THY    HM331286   7.324   4.732   5.935  0.6936  0.5690 -0.0251
18020THY    CA631287   7.472   4.959   5.985 -0.1582 -0.9263  0.6590
18020THY    HA631288   7.522   4.873   6.028  2.2800  0.4054  2.5954
18021THY      O31289   2.693   5.985   5.495 -0.2770  0.3835  0.1048
18021THY     HO31290   2.759   6.030   5.552  3.2961 -0.9753 -2.9414
18021THY    CA131291   2.779   5.930   5.407 -0.1091 -0.0585  0.0608
18021THY    CA231292   2.755   5.941   5.271  0.3134  0.2897 -0.1338
18021THY    CP131293   2.617   5.999   5.215 -0.0958  0.6576  0.2047
18021THY    HP131294   2.554   6.037   5.297 -2.3510 -0.5048 -0.8051
18021THY    CP231295   2.533   5.892   5.139  0.5317  0.1428  0.3515
18021THY    HP231296   2.587   5.831   5.065  0.0155 -1.8159  2.1350
18021THY    HP331297   2.440   5.925   5.090  0.0886 -2.1962 -3.7230
18021THY    HP431298   2.504   5.817   5.213  2.6723  0.3591 -0.3218
18021THY    CP331299   2.647   6.112   5.118  0.7789  0.2878 -0.5205
18021THY    HP531300   2.703   6.085   5.028 -0.8215 -0.8441 -0.2497
18021THY    HP631301   2.704   6.189   5.171 -1.3506  0.5706  0.9349
18021THY    HP731302   2.553   6.158   5.086 -0.2201  0.3560 -2.3972
18021THY    CA331303   2.859   5.898   5.190  0.8026 -0.2166  0.6758
18021THY    HA331304   2.849   5.916   5.083  1.3020 -0.3747  0.0529
18021THY    CA431305   2.988   5.862   5.238  0.1181  0.8457  0.1465
18021THY    HA431306   3.068   5.840   5.169 -0.1098  0.4158  0.6413
18021THY    CA531307   3.007   5.854   5.375 -0.0435  0.8363  0.1847
18021THY    CM131308   3.135   5.816   5.432  0.0681 -0.1442 -0.6517
18021THY    HM131309   3.190   5.909   5.444 -0.7429 -0.7399 -0.0828
18021THY    HM231310   3.186   5.745   5.366  1.4075 -0.4434  0.5670
18021THY    HM331311   3.118   5.777   5.534 -1.5109 -0.0231  0.2532
18021THY    CA631312   2.898   5.883   5.457 -0.1384  0.4440  0.3091
18021THY    HA631313   2.912   5.878   5.565 -2.7607  0.8496  0.3654
18022THY      O31314   2.718   3.303   7.466  0.1656 -0.2654 -0.0750
18022THY     HO31315   2.627   3.331   7.487  0.5877  0.1883  1.0195
18022THY    CA131316   2.742   3.217   7.568 -0.1305  0.0380 -0.2638
18022THY    CA231317   2.873   3.187   7.610  0.3482 -0.3286 -0.2840
18022THY    CP131318   2.989   3.249   7.536 -0.2245  0.2592 -0.0319
18022THY    HP131319   2.966   3.337   7.475 -1.3810 -1.5679 -1.5091
18022THY    CP231320   3.054   3.146   7.444  0.1112  0.3766 -0.1939
18022THY    HP231321   3.112   3.077   7.507 -1.9175  1.2302 -1.2048
18022THY    HP331322   3.125   3.195   7.377  1.5418  2.4215  0.6545
18022THY    HP431323   2.980   3.092   7.383 -1.4862 -0.4811  2.7457
18022THY    CP331324   3.078   3.309   7.634  0.0486 -0.1920  0.0196
18022THY    HP531325   3.022   3.371   7.706 -0.4203 -0.4338 -0.1190
18022THY    HP631326   3.154   3.374   7.590  1.3012  2.4851  0.4928
18022THY    HP731327   3.141   3.236   7.686  2.7203 -1.1865  1.4879
18022THY    CA331328   2.896   3.096   7.713 -0.1781  0.2677  0.3372
18022THY    HA331329   2.994   3.075   7.755 -1.0407  1.9766 -0.3669
18022THY    CA431330   2.781   3.045   7.778 -0.1408  0.0462 -0.5266
18022THY    HA431331   2.792   2.976   7.861  0.8171 -0.0760 -0.5261
18022THY    CA531332   2.652   3.061   7.725 -0.2040  0.0507 -0.4613
18022THY    CM131333   2.527   3.001   7.794 -0.4239  0.1036  0.1373
18022THY    HM131334   2.456   2.959   7.721 -1.3391  0.6521  0.6995
18022THY    HM231335   2.485   3.082   7.854  2.6681 -1.1811  2.9377
18022THY    HM331336   2.560   2.920   7.860 -0.5823 -0.9544 -0.8293
18022THY    CA631337   2.633   3.151   7.616  0.2213 -0.4642 -0.4403
18022THY    HA631338   2.527   3.163   7.595 -0.6520  2.7682 -1.2424
18023THY      O31339   8.531   6.932   7.414 -0.4076  0.0370 -0.2582
18023THY     HO31340   8.605   6.899   7.468  1.3616 -2.8098 -1.2542
18023THY    CA131341   8.552   7.061   7.398  0.3182 -0.6590  0.1400
18023THY    CA231342   8.460   7.157   7.357  0.2360  0.0912 -0.0948
18023THY    CP131343   8.323   7.118   7.321  0.0532  0.6274  0.1132
18023THY    HP131344   8.299   7.013   7.342  1.1954 -1.4788 -0.6239
18023THY    CP231345   8.312   7.129   7.169  0.0407 -0.5643 -0.2498
18023THY    HP231346   8.220   7.078   7.139 -1.2282 -1.9378  2.6195
18023THY    HP331347   8.393   7.080   7.113  0.1555 -0.3278 -0.3281
18023THY    HP431348   8.300   7.235   7.143  1.8284 -0.3604  0.0447
18023THY    CP331349   8.215   7.201   7.382 -0.2445 -0.6183  0.4395
18023THY    HP531350   8.229   7.170   7.486  1.0794 -1.8407 -3.6831
18023THY    HP631351   8.116   7.162   7.353 -0.1854 -1.0035  0.5654
18023THY    HP731352   8.218   7.308   7.360  1.7891 -0.5191  0.4384
18023THY    CA331353   8.506   7.296   7.354  0.6961 -0.7716  0.3132
18023THY    HA331354   8.442   7.376   7.319 -1.5875  1.7598 -0.2705
18023THY    CA431355   8.635   7.331   7.397  0.3923 -0.5342  0.1747
18023THY    HA431356   8.656   7.438   7.401  0.2765  1.9685  0.1568
18023THY    CA531357   8.726   7.235   7.433 -0.3432 -0.2958  0.5163
18023THY    CM131358   8.864   7.262   7.452  0.8992  0.1161 -0.6768
18023THY    HM131359   8.894   7.367   7.465 -1.1491  1.6652 -0.2186
18023THY    HM231360   8.925   7.243   7.363  1.4255  0.1385  0.7614
18023THY    HM331361   8.905   7.210   7.539  0.0033  0.6558 -0.5089
18023THY    CA631362   8.687   7.101   7.431  0.6022  0.2756  0.0322
18023THY    HA631363   8.752   7.026   7.476 -0.8499  2.3739 -0.0724
18024THY      O31364   3.577   5.794   7.601 -0.3727 -0.5131 -0.1492
18024THY     HO31365   3.498   5.817   7.549 -1.1800  0.6502 -0.1430
18024THY    CA131366   3.671   5.887   7.588  0.1465  0.3029  0.6738
18024THY    CA231367   3.806   5.848   7.587 -0.2651  0.0261 -0.5683
18024THY    CP131368   3.848   5.700   7.608 -0.0734 -0.1955  0.4788
18024THY    HP131369   3.766   5.636   7.644 -0.0127  1.0034  1.0518
18024THY    CP231370   3.962   5.683   7.711 -0.6000  0.1008  0.2748
18024THY    HP231371   3.950   5.596   7.776 -1.6188  0.0997  0.4067
18024THY    HP331372   3.970   5.773   7.774  1.4433  0.2511  0.0225
18024THY    HP431373   4.059   5.682   7.660  0.4936  1.9807  2.0816
18024THY    CP331374   3.896   5.644   7.472 -0.0358  1.1016  0.3983
18024THY    HP531375   3.947   5.550   7.495 -0.4060  1.6133  0.3228
18024THY    HP631376   3.965   5.715   7.424 -1.7437  0.5235  1.7501
18024THY    HP731377   3.812   5.634   7.403 -0.4951  1.5632  0.9859
18024THY    CA331378   3.908   5.941   7.562  0.0133  0.6792 -0.3158
18024THY    HA331379   4.012   5.911   7.550  0.6868  2.2381  1.2494
18024THY    CA431380   3.867   6.067   7.536 -0.7809  0.8853 -0.2402
18024THY    HA431381   3.941   6.144   7.515 -2.1335  0.7323  1.0563
18024THY    CA531382   3.731   6.107   7.539  1.0770  0.1874  0.3437
18024THY    CM131383   3.691   6.248   7.503 -0.0847 -0.3757 -0.6069
18024THY    HM131384   3.771   6.297   7.446 -0.4525 -1.9007 -1.6872
18024THY    HM231385   3.666   6.298   7.597 -2.9577  0.8082 -3.8571
18024THY    HM331386   3.610   6.260   7.429  1.3935 -1.7597  1.7398
18024THY    CA631387   3.629   6.016   7.563 -0.2368 -0.1482  0.2009
18024THY    HA631388   3.526   6.050   7.560  0.0638  2.0243  1.4644
18025THY      O31389   3.774   5.822   7.018  0.4381  0.1725 -0.1121
18025THY     HO31390   3.785   5.726   7.010 -2.2259 -2.3422 -0.3177
18025THY    CA131391   3.885   5.883   6.978  0.9703  0.1501 -0.1268
18025THY    CA231392   3.885   6.022   6.969 -1.0062  1.5466 -0.4791
18025THY    CP131393   3.768   6.101   7.036  0.1538 -0.4783  0.1111
18025THY    HP131394   3.670   6.054   7.023 -0.2833  1.2874  0.4762
18025THY    CP231395   3.757   6.242   6.975  0.1808  0.3803  0.0454
18025THY    HP231396   3.731   6.232   6.869  1.7479 -0.0697  0.4810
18025THY    HP331397   3.839   6.312   6.987 -1.0350  2.6922  1.1849
18025THY    HP431398   3.668   6.295   7.012  0.5389 -0.2852  1.1190
18025THY    CP331399   3.790   6.105   7.183  0.4854 -0.1036 -0.3499
18025THY    HP531400   3.869   6.174   7.213 -0.5050  1.1688  0.2664
18025THY    HP631401   3.829   6.008   7.217 -0.2509 -1.2553 -1.0808
18025THY    HP731402   3.700   6.127   7.241  1.4630  0.2787  3.1267
18025THY    CA331403   4.005   6.086   6.919  0.5422 -0.2518 -0.0914
18025THY    HA331404   4.020   6.193   6.922 -0.3215 -0.3209  0.0348
18025THY    CA431405   4.116   6.001   6.898 -0.8122 -0.7043 -0.3157
18025THY    HA431406   4.212   6.048   6.879  0.1812  1.3818 -1.3646
18025THY    CA531407   4.117   5.866   6.925  1.1397 -0.1663 -0.5191
18025THY    CM131408   4.242   5.784   6.925 -0.4766 -0.3820 -0.1081
18025THY    HM131409   4.242   5.674   6.924  1.0165 -1.5056 -0.1255
18025THY    HM231410   4.312   5.815   7.003 -1.4390  0.2226  0.6064
18025THY    HM331411   4.281   5.814   6.827 -0.2346 -0.7402 -1.5047
18025THY    CA631412   3.999   5.809   6.970 -0.0573  0.2862 -0.1716
18025THY    HA631413   4.003   5.700   6.973  4.7513 -1.5185 -0.2850
18026THY      O31414   7.617   8.443   4.029 -0.6040  0.1707  0.3375
18026THY     HO31415   7.643   8.372   4.091  0.2941 -3.7953 -3.2176
18026THY    CA131416   7.497   8.407   3.973 -0.1752 -0.7657  0.2510
18026THY    CA231417   7.422   8.505   3.905 -0.6995 -0.3331  0.1838
18026THY    CP131418   7.471   8.651   3.915 -0.0301 -0.1928 -0.6188
18026THY    HP131419   7.579   8.645   3.896 -0.2230 -1.1431 -1.4886
18026THY    CP231420   7.445   8.722   4.056  0.3549 -0.2023 -0.2381
18026THY    HP231421   7.495   8.657   4.129  0.1828 -1.3388 -1.7099
18026THY    HP331422   7.336   8.722   4.064  0.3338 -0.2993 -1.2354
18026THY    HP431423   7.487   8.823   4.059 -0.3915 -1.1402  0.1134
18026THY    CP331424   7.427   8.749   3.805  0.1902 -0.2678 -0.4740
18026THY    HP531425   7.320   8.765   3.821  0.6632  0.3978  2.4923
18026THY    HP631426   7.438   8.707   3.704  0.3438  0.2967 -1.8696
18026THY    HP731427   7.480   8.845   3.805  0.7439  0.5740 -0.7618
18026THY    CA331428   7.313   8.459   3.827  0.5285  0.7333 -0.1569
18026THY    HA331429   7.248   8.528   3.776  0.9904 -0.3406 -0.4842
18026THY    CA431430   7.287   8.325   3.820 -0.2663 -0.2214 -0.6371
18026THY    HA431431   7.215   8.291   3.747 -1.6158 -0.4141  2.3172
18026THY    CA531432   7.355   8.237   3.897 -0.0306  0.0327  0.3169
18026THY    CM131433   7.343   8.089   3.889 -0.3996 -0.6280  0.1167
18026THY    HM131434   7.437   8.046   3.854 -1.2832 -3.0707 -0.0110
18026THY    HM231435   7.273   8.062   3.808  0.3057 -1.4882  0.8168
18026THY    HM331436   7.312   8.045   3.984  0.9059 -1.0753 -1.8796
18026THY    CA631437   7.462   8.276   3.979 -0.6114  0.4847  0.3024
18026THY    HA631438   7.519   8.199   4.030  0.1350 -1.4880 -0.5225
18027THY      O31439   2.826   1.706   3.856  0.0165 -0.1906  0.1147
18027THY     HO31440   2.772   1.776   3.897 -1.6769 -0.0262 -1.1984
18027THY    CA131441   2.751   1.601   3.897  0.3614  0.3893 -0.0730
18027THY    CA231442   2.799   1.469   3.907 -0.4852 -0.2754 -0.1028
18027THY    CP131443   2.945   1.443   3.877 -0.4207  0.3448  0.0212
18027THY    HP131444   2.993   1.537   3.906  0.4380  1.5875 -0.7680
18027THY    CP231445   2.950   1.420   3.727  0.0560 -0.7270  0.3044
18027THY    HP231446   3.054   1.402   3.694  0.2939  0.0689  0.1689
18027THY    HP331447   2.914   1.507   3.671  2.8874 -0.6717  1.6267
18027THY    HP431448   2.893   1.329   3.704  0.9434  0.4427 -0.5926
18027THY    CP331449   3.002   1.326   3.955 -0.6031 -0.9206 -0.0387
18027THY    HP531450   2.979   1.232   3.904 -1.7611 -0.3290 -0.1061
18027THY    HP631451   2.963   1.328   4.058 -0.1021 -0.7232 -0.3228
18027THY    HP731452   3.111   1.330   3.959 -0.6715  1.0764  1.4893
18027THY    CA331453   2.709   1.366   3.937  0.9655 -0.7982 -0.0404
18027THY    HA331454   2.750   1.265   3.932  0.7948 -2.7938 -0.0582
18027THY    CA431455   2.572   1.393   3.954 -0.0845 -0.1264 -0.0748
18027THY    HA431456   2.499   1.313   3.962  0.0955 -2.8802 -0.6134
18027THY    CA531457   2.534   1.526   3.952  0.3610 -0.0093 -0.2787
18027THY    CM131458   2.383   1.545   3.971 -0.2755  0.5019  0.2876
18027THY    HM131459   2.338   1.495   4.057  0.6611  0.1773 -1.1794
18027THY    HM231460   2.335   1.497   3.885 -0.0296  0.8220 -0.5501
18027THY    HM331461   2.352   1.649   3.984  2.5827  0.2620  1.2651
18027THY    CA631462   2.622   1.633   3.933  0.4766  0.0104  0.2149
18027THY    HA631463   2.591   1.735   3.912  0.1444 -0.8777 -0.0659
18028THY      O31464   5.395   8.178   6.855 -0.3575  0.3383 -0.4445
18028THY     HO31465   5.481   8.201   6.815 -1.1112 -0.7466  0.6270
18028THY    CA131466   5.297   8.217   6.758  0.1350 -0.4187  0.0154
18028THY    CA231467   5.169   8.157   6.759  0.9239  0.4116  0.0731
18028THY    CP131468   5.131   8.063   6.877  0.8364 -0.0414  0.5040
18028THY    HP131469   5.168   8.097   6.975  0.9107 -0.4016  1.4837
18028THY    CP231470   5.172   7.922   6.846 -0.8724 -0.2333  0.2645
18028THY    HP231471   5.147   7.849   6.923 -3.6698 -1.0836  0.1892
18028THY    HP331472   5.281   7.927   6.848 -0.8698  1.4282 -0.0622
18028THY    HP431473   5.120   7.895   6.753 -0.3416 -0.4127 -0.1678
18028THY    CP331474   4.981   8.062   6.900 -0.9420 -0.2418 -0.1888
18028THY    HP531475   4.964   8.001   6.990  1.2312  1.4050  1.4525
18028THY    HP631476   4.928   8.016   6.816 -1.0448  0.8920 -2.2471
18028THY    HP731477   4.941   8.162   6.923  0.4463 -0.3761  0.4239
18028THY    CA331478   5.086   8.183   6.643  0.2355 -0.2038  0.2849
18028THY    HA331479   4.986   8.139   6.639  0.6711 -0.2830 -0.7426
18028THY    CA431480   5.137   8.269   6.542  0.2787 -0.4756  0.0879
18028THY    HA431481   5.070   8.284   6.458 -0.8386  0.3001 -0.4174
18028THY    CA531482   5.262   8.330   6.548 -0.2805 -0.2759  0.1883
18028THY    CM131483   5.308   8.423   6.440 -0.1779 -0.4952 -0.6106
18028THY    HM131484   5.392   8.483   6.477 -0.3464 -1.9017  0.5416
18028THY    HM231485   5.224   8.485   6.407 -0.0087  0.6727  0.2836
18028THY    HM331486   5.336   8.369   6.349 -0.1366  0.4216 -2.2008
18028THY    CA631487   5.337   8.306   6.664 -0.5357 -0.0501  0.4602
18028THY    HA631488   5.430   8.361   6.675 -1.0633  1.3245  1.1120
18029THY      O31489   5.049   8.296   7.652  0.7894  0.1239 -0.4295
18029THY     HO31490   4.990   8.232   7.610 -0.5262  0.1783  0.7115
18029THY    CA131491   5.157   8.317   7.571 -0.6639  1.0471 -0.0672
18029THY    CA231492   5.268   8.395   7.606  0.3310  0.0522 -0.3398
18029THY    CP131493   5.272   8.463   7.748  0.7578  0.0078 -0.4480
18029THY    HP131494   5.191   8.417   7.807 -3.9785 -0.9304  5.4325
18029THY    CP231495   5.255   8.612   7.741  0.4191  0.4303 -0.0481
18029THY    HP231496   5.152   8.623   7.705  0.2360  1.3812  1.6102
18029THY    HP331497   5.335   8.645   7.674  0.0462  0.4402  0.9107
18029THY    HP431498   5.263   8.650   7.843  1.2922  0.6290 -0.7361
18029THY    CP331499   5.406   8.439   7.832 -0.3237  0.6090  0.2385
18029THY    HP531500   5.485   8.463   7.759  1.8469  2.8493  0.3519
18029THY    HP631501   5.423   8.332   7.849  1.1722 -0.2638  0.2984
18029THY    HP731502   5.411   8.505   7.919  0.3638  0.5424  0.2848
18029THY    CA331503   5.373   8.411   7.514 -0.1147  0.5235  0.0511
18029THY    HA331504   5.461   8.469   7.540  0.3857 -0.3344 -0.2963
18029THY    CA431505   5.367   8.366   7.385  0.0399 -0.4892 -0.1085
18029THY    HA431506   5.449   8.378   7.315  0.3659 -0.3686 -1.4981
18029THY    CA531507   5.249   8.296   7.349 -0.1611  0.1751  0.7706
18029THY    CM131508   5.235   8.239   7.204 -0.1665 -0.4304  0.2079
18029THY    HM131509   5.279   8.307   7.131  1.7405 -0.2833 -0.7855
18029THY    HM231510   5.135   8.209   7.171 -0.1344 -0.5613  0.2447
18029THY    HM331511   5.287   8.143   7.193 -0.6397 -1.0116  0.0137
18029THY    CA631512   5.156   8.263   7.445 -0.1038 -0.5146  0.2871
18029THY    HA631513   5.091   8.179   7.422  0.3261 -0.0408 -0.1855
18030THY      O31514   2.539   8.799   7.194 -0.3139  0.0491  0.6446
18030THY     HO31515   2.607   8.736   7.163 -1.6030 -1.3008 -0.1613
18030THY    CA131516   2.438   8.714   7.195 -0.2290 -1.1698 -0.2866
18030THY    CA231517   2.311   8.743   7.254 -0.2677 -0.5271  0.5392
18030THY    CP131518   2.291   8.881   7.310 -0.6665  0.9279  0.0813
18030THY    HP131519   2.371   8.906   7.381  0.5083  0.0883 -1.1343
18030THY    CP231520   2.159   8.895   7.381  0.7886 -0.1371  0.4031
18030THY    HP231521   2.138   9.001   7.400 -0.5680  0.9052 -0.0250
18030THY    HP331522   2.153   8.838   7.474 -0.9770  0.2107  1.0832
18030THY    HP431523   2.083   8.862   7.310  0.4566  0.0782  0.7021
18030THY    CP331524   2.295   8.988   7.196  0.4052 -0.3738  0.4603
18030THY    HP531525   2.206   8.984   7.132  1.3974 -1.7571 -0.5476
18030THY    HP631526   2.379   8.971   7.128  1.3782  0.4647  1.7402
18030THY    HP731527   2.318   9.088   7.234  1.9714 -1.9664  0.7647
18030THY    CA331528   2.212   8.637   7.255 -0.5720  1.1217  1.2160
18030THY    HA331529   2.114   8.646   7.301 -0.1992  2.7769 -1.8708
18030THY    CA431530   2.243   8.513   7.194 -0.3386  0.0918 -0.1531
18030THY    HA431531   2.165   8.438   7.185 -0.2692  0.0558 -0.2207
18030THY    CA531532   2.371   8.496   7.143  0.3470 -0.1438  0.1006
18030THY    CM131533   2.387   8.359   7.065 -0.2582 -0.1976 -0.4886
18030THY    HM131534   2.362   8.270   7.124  0.4686  0.2466 -0.4011
18030THY    HM231535   2.492   8.345   7.037 -0.0438  0.7814 -0.9385
18030THY    HM331536   2.326   8.366   6.974 -0.0360 -0.3590 -0.6335
18030THY    CA631537   2.469   8.589   7.142  0.0307 -0.2221 -0.1712
18030THY    HA631538   2.560   8.568   7.087 -0.3802 -1.0246  0.1192
18031THY      O31539   6.392   7.065   7.414 -0.2120 -0.2765  0.6175
18031THY     HO31540   6.372   7.154   7.446  2.4501  1.6494  0.6447
18031THY    CA131541   6.320   7.041   7.301 -0.2915  0.3213 -0.7726
18031THY    CA231542   6.251   6.922   7.274  0.7220  0.1159  0.5879
18031THY    CP131543   6.256   6.808   7.377 -0.3887 -0.4321  0.2943
18031THY    HP131544   6.267   6.837   7.482  0.6801 -0.0847 -1.2476
18031THY    CP231545   6.371   6.711   7.341 -0.5107 -0.3250  1.1972
18031THY    HP231546   6.368   6.670   7.240  1.9895 -0.9435  2.3173
18031THY    HP331547   6.390   6.633   7.415  3.6491 -1.1234  1.1956
18031THY    HP431548   6.462   6.771   7.359  0.2408 -2.5222  0.8072
18031THY    CP331549   6.120   6.725   7.371 -0.6352 -0.3754  0.2687
18031THY    HP531550   6.028   6.781   7.393 -0.6224 -1.5566  0.7814
18031THY    HP631551   6.109   6.655   7.455  1.4581  1.0347  1.5135
18031THY    HP731552   6.110   6.676   7.274  0.7634 -1.4851  2.0700
18031THY    CA331553   6.207   6.903   7.140 -0.1503  0.4650  0.1050
18031THY    HA331554   6.153   6.812   7.117 -0.1782  1.1153 -0.0443
18031THY    CA431555   6.216   7.007   7.042 -0.6813  0.1233 -0.3223
18031THY    HA431556   6.184   6.991   6.940 -2.5228  0.8555 -1.6483
18031THY    CA531557   6.280   7.130   7.079 -0.5448  0.1107 -0.0828
18031THY    CM131558   6.309   7.241   6.977  0.0312  0.0819 -0.6782
18031THY    HM131559   6.404   7.230   6.924 -0.6547 -1.4547  0.4325
18031THY    HM231560   6.312   7.340   7.022  2.0168 -1.4804  0.0438
18031THY    HM331561   6.233   7.237   6.897 -0.3036  0.3564  0.0184
18031THY    CA631562   6.326   7.145   7.208 -0.1281 -0.7184  0.3131
18031THY    HA631563   6.384   7.233   7.231 -0.1632 -1.9997  0.6817
18032THY      O31564   9.551   1.965   3.201 -0.0331  0.0691 -0.1131
18032THY     HO31565   9.559   2.062   3.200  2.4232 -1.4209 -0.2234
18032THY    CA131566   9.423   1.936   3.224  0.2345 -0.1279  0.0514
18032THY    CA231567   9.371   1.804   3.209 -0.4730 -1.2245 -0.1728
18032THY    CP131568   9.466   1.687   3.186  0.2156 -0.6817  0.2670
18032THY    HP131569   9.548   1.720   3.122  0.2074 -0.8922 -0.1103
18032THY    CP231570   9.405   1.571   3.095  0.7244 -0.9089  0.0495
18032THY    HP231571   9.356   1.622   3.012 -0.3183 -0.9935 -1.0379
18032THY    HP331572   9.329   1.509   3.145 -0.1368 -2.2811 -0.0414
18032THY    HP431573   9.476   1.497   3.057 -0.1632 -0.4196 -1.0917
18032THY    CP331574   9.520   1.617   3.311 -0.6108  0.9724 -0.3197
18032THY    HP531575   9.433   1.596   3.374 -1.3873  0.4285  1.0395
18032THY    HP631576   9.589   1.687   3.359 -1.1965  0.4132  0.6673
18032THY    HP731577   9.569   1.523   3.283 -0.5139  0.0715 -0.0191
18032THY    CA331578   9.229   1.781   3.219 -0.0094 -0.6882 -0.6037
18032THY    HA331579   9.183   1.684   3.206  0.3386 -0.1240 -0.8530
18032THY    CA431580   9.148   1.893   3.238 -0.4025  0.1517 -0.0613
18032THY    HA431581   9.041   1.884   3.248 -0.3841  1.2728  0.7662
18032THY    CA531582   9.201   2.021   3.259 -0.4718 -0.4437  0.7442
18032THY    CM131583   9.115   2.139   3.266 -0.1140 -0.2925 -0.6095
18032THY    HM131584   9.005   2.137   3.263 -0.3144 -0.2220  2.9096
18032THY    HM231585   9.148   2.191   3.175  1.1708 -1.2619 -2.9739
18032THY    HM331586   9.148   2.195   3.354  0.6799  0.7546 -2.6336
18032THY    CA631587   9.342   2.042   3.257 -0.3136  0.1691 -0.7452
18032THY    HA631588   9.378   2.145   3.260 -1.1603 -0.7462 -0.4005
18033THY      O31589   5.677   2.535   5.518 -0.1425 -0.4701 -0.0764
18033THY     HO31590   5.741   2.464   5.499  1.6477  2.1736  0.6821
18033THY    CA131591   5.688   2.545   5.653  1.1163 -0.4378 -0.2440
18033THY    CA231592   5.570   2.577   5.726  1.5650 -0.4136 -0.3566
18033THY    CP131593   5.438   2.609   5.647  0.2490  0.3205 -0.4753
18033THY    HP131594   5.460   2.635   5.543 -0.0872  1.0880  3.5051
18033THY    CP231595   5.356   2.738   5.691 -0.4624 -0.5265 -0.2120
18033THY    HP231596   5.335   2.737   5.799 -1.3932 -0.6740  1.4914
18033THY    HP331597   5.259   2.742   5.642 -0.6945 -0.0101  0.6478
18033THY    HP431598   5.420   2.824   5.670 -1.9748  1.7098  1.5648
18033THY    CP331599   5.348   2.493   5.655  0.6096  0.2563  0.4080
18033THY    HP531600   5.312   2.480   5.758  2.1295  0.8333  0.5476
18033THY    HP631601   5.397   2.395   5.642  1.1311 -0.1118  0.7141
18033THY    HP731602   5.263   2.507   5.588 -0.3418  1.4863  0.6906
18033THY    CA331603   5.571   2.580   5.868 -0.1868 -0.3585  0.1931
18033THY    HA331604   5.477   2.604   5.916 -0.0455 -0.3819  0.8121
18033THY    CA431605   5.688   2.538   5.934 -0.1297 -0.5983 -0.2706
18033THY    HA431606   5.686   2.537   6.043 -0.9184 -0.6036  0.0912
18033THY    CA531607   5.805   2.505   5.860 -0.5238  0.1547  0.2938
18033THY    CM131608   5.926   2.454   5.933  1.2962  0.7258 -0.2081
18033THY    HM131609   5.905   2.449   6.040 -0.1426  0.4894  0.3162
18033THY    HM231610   6.012   2.518   5.910  1.0417  2.7570  0.9547
18033THY    HM331611   5.952   2.353   5.899 -0.8810 -0.3890 -0.4635
18033THY    CA631612   5.805   2.512   5.722 -0.4501 -0.0775  0.2125
18033THY    HA631613   5.890   2.472   5.667 -0.1465 -0.0470  0.8063
18034THY      O31614   3.087   4.109   2.701  0.3971 -0.2870  0.9161
18034THY     HO31615   3.015   4.053   2.669  0.4288  0.1036  0.6475
18034THY    CA131616   3.117   4.052   2.825 -0.3931  0.7712 -0.3331
18034THY    CA231617   3.194   4.110   2.924  0.5380 -0.0079 -0.5304
18034THY    CP131618   3.247   4.250   2.905 -0.2794 -0.4509 -0.0818
18034THY    HP131619   3.302   4.244   2.810  0.6141  0.1325 -1.8974
18034THY    CP231620   3.360   4.297   3.008  0.0779  0.4367  0.2570
18034THY    HP231621   3.441   4.223   3.012  0.6054  0.3079  0.8199
18034THY    HP331622   3.324   4.315   3.109  0.0119  0.4728 -0.0698
18034THY    HP431623   3.393   4.399   2.987 -1.2195  1.0767  0.8228
18034THY    CP331624   3.134   4.356   2.897 -0.3256  0.3157 -1.0562
18034THY    HP531625   3.101   4.385   2.998 -0.5749 -0.3177  1.0112
18034THY    HP631626   3.036   4.320   2.866 -0.2268 -0.5759 -0.5715
18034THY    HP731627   3.167   4.443   2.840 -2.7166  0.2545 -0.1183
18034THY    CA331628   3.220   4.048   3.043 -0.0976 -0.2159  0.0240
18034THY    HA331629   3.278   4.097   3.119 -0.0550 -0.7178  0.7636
18034THY    CA431630   3.170   3.918   3.061  0.6525 -1.3287  0.6315
18034THY    HA431631   3.190   3.861   3.151 -2.4325 -0.2891  1.0120
18034THY    CA531632   3.092   3.856   2.970 -0.4541  0.3320 -0.2205
18034THY    CM131633   3.056   3.715   2.985 -0.5995  0.2288  0.8635
18034THY    HM131634   2.974   3.670   2.928 -0.0660 -1.0761  1.5011
18034THY    HM231635   3.036   3.702   3.092 -2.6825 -0.3352 -1.4255
18034THY    HM331636   3.140   3.649   2.962 -0.8484  4.0303 -1.0882
18034THY    CA631637   3.052   3.923   2.853 -0.0792  0.7205 -0.1482
18034THY    HA631638   2.986   3.873   2.783  1.7127 -0.4607 -0.9697
18035THY      O31639   1.370   4.654   3.340 -0.1412 -0.4593  0.6914
18035THY     HO31640   1.457   4.666   3.297 -0.4979 -1.7234 -1.0225
18035THY    CA131641   1.291   4.667   3.230  0.1485  0.4888  0.2960
18035THY    CA231642   1.156   4.644   3.246  0.0150 -0.3840 -0.9910
18035THY    CP131643   1.092   4.605   3.380 -0.2770 -0.4440 -0.0221
18035THY    HP131644   1.162   4.571   3.458  1.7415 -1.6027  1.2716
18035THY    CP231645   0.987   4.486   3.360 -0.3943  0.3047 -0.2566
18035THY    HP231646   0.892   4.527   3.322 -0.9564  0.3665 -1.4568
18035THY    HP331647   0.971   4.430   3.452  2.5666  0.2731 -1.3096
18035THY    HP431648   1.026   4.409   3.293  1.9653  1.4184 -0.1020
18035THY    CP331649   1.026   4.728   3.444  0.3054 -0.3179 -0.0930
18035THY    HP531650   0.967   4.698   3.531  0.3198  0.0429  0.8767
18035THY    HP631651   0.949   4.770   3.377  0.0214  0.9951  1.5985
18035THY    HP731652   1.100   4.803   3.472 -0.0773  0.3741  0.0368
18035THY    CA331653   1.075   4.657   3.134 -0.3310  0.6924  0.0024
18035THY    HA331654   0.969   4.646   3.151  0.1204  3.0280 -1.4666
18035THY    CA431655   1.132   4.681   3.003 -0.5511 -0.3865  0.5558
18035THY    HA431656   1.070   4.702   2.917  0.2930 -1.9921 -2.7870
18035THY    CA531657   1.266   4.705   2.995 -1.0799  0.4632 -0.5587
18035THY    CM131658   1.327   4.752   2.867  0.3286  0.9185  0.7857
18035THY    HM131659   1.420   4.696   2.851 -0.3135 -0.9743  0.1996
18035THY    HM231660   1.362   4.856   2.878  1.9520  2.5565  0.1392
18035THY    HM331661   1.258   4.729   2.785 -0.4152  1.5757  0.6163
18035THY    CA631662   1.348   4.703   3.107  0.5802 -0.3659  0.1297
18035THY    HA631663   1.453   4.727   3.096  1.1662  1.7765 -1.1662
18036THY      O31664   6.172   3.808   4.168  0.3204 -0.0857 -0.4600
18036THY     HO31665   6.165   3.830   4.262 -2.1152 -0.3588  0.2624
18036THY    CA131666   6.071   3.871   4.103  0.1518  0.1873  0.3090
18036THY    CA231667   6.075   3.880   3.964  0.2183 -0.3783  0.6404
18036THY    CP131668   6.181   3.810   3.878 -0.7572  0.1242  0.5033
18036THY    HP131669   6.281   3.814   3.923  0.2603 -1.9872  0.7587
18036THY    CP231670   6.214   3.874   3.736 -0.2452 -0.1993  0.2794
18036THY    HP231671   6.306   3.831   3.696 -0.3973 -0.1706 -0.0787
18036THY    HP331672   6.242   3.980   3.746  1.3469 -0.9146 -0.0534
18036THY    HP431673   6.130   3.868   3.666 -0.8272  0.5884 -1.3042
18036THY    CP331674   6.129   3.666   3.842  0.0834 -0.0425 -0.1432
18036THY    HP531675   6.212   3.602   3.809  0.6063 -2.0465  1.4658
18036THY    HP631676   6.057   3.663   3.759  0.2696 -0.2282  0.4400
18036THY    HP731677   6.073   3.617   3.923 -1.0659  0.6787  2.2129
18036THY    CA331678   5.970   3.942   3.902  1.6957  0.2930  1.0587
18036THY    HA331679   5.963   3.935   3.794 -0.7273  0.4897 -2.0002
18036THY    CA431680   5.863   4.006   3.979  0.3828  0.5761 -0.1054
18036THY    HA431681   5.779   4.056   3.930 -0.1981  1.6494  0.0120
18036THY    CA531682   5.881   4.016   4.116 -0.1769 -0.1196 -0.1411
18036THY    CM131683   5.785   4.088   4.209  1.0466 -0.6190  0.8335
18036THY    HM131684   5.827   4.115   4.306  0.6422 -0.2647  0.2322
18036THY    HM231685   5.694   4.029   4.229  1.2061  2.0902  1.4035
18036THY    HM331686   5.756   4.181   4.159 -0.6968  0.8136  1.1111
18036THY    CA631687   5.975   3.936   4.180 -0.7544 -0.1913  0.4236
18036THY    HA631688   5.971   3.933   4.289 -1.7065 -0.0459  3.5444
18037THY      O31689   4.253   6.355   6.529 -0.6682  0.4071  0.5734
18037THY     HO31690   4.249   6.341   6.433 -1.2871  0.5435 -0.2016
18037THY    CA131691   4.342   6.270   6.580  0.2071  0.4936  0.7555
18037THY    CA231692   4.405   6.290   6.697  0.9919 -0.3370 -0.3988
18037THY    CP131693   4.380   6.424   6.778 -0.0743 -0.3279 -0.0369
18037THY    HP131694   4.303   6.478   6.722 -1.3799 -0.0224 -1.5392
18037THY    CP231695   4.515   6.508   6.781 -0.0578 -0.3819  0.0783
18037THY    HP231696   4.495   6.615   6.794 -2.6399 -2.7075 -0.0139
18037THY    HP331697   4.585   6.483   6.701  1.8412  2.0502 -3.3350
18037THY    HP431698   4.574   6.469   6.865  1.7309 -2.2838 -1.4977
18037THY    CP331699   4.329   6.398   6.919 -0.4492  0.1301 -0.8088
18037THY    HP531700   4.401   6.358   6.990  1.0314 -0.5549  0.5146
18037THY    HP631701   4.252   6.321   6.909  1.1055  0.0444 -2.3860
18037THY    HP731702   4.288   6.491   6.961 -1.7664  0.3548 -1.4717
18037THY    CA331703   4.494   6.195   6.747  0.2923  0.5197 -0.0438
18037THY    HA331704   4.537   6.196   6.847  1.7518 -0.0875  0.9974
18037THY    CA431705   4.529   6.085   6.665  0.3868  0.2527 -0.0632
18037THY    HA431706   4.599   6.008   6.694 -0.0252  0.2447 -0.4427
18037THY    CA531707   4.476   6.075   6.538 -0.4086  0.2394 -0.1314
18037THY    CM131708   4.515   5.961   6.439 -0.0404 -0.2618 -0.1498
18037THY    HM131709   4.455   5.870   6.446  1.6576  0.7226 -1.2365
18037THY    HM231710   4.617   5.924   6.452  0.8720 -1.6203  1.6695
18037THY    HM331711   4.515   5.994   6.334  0.2324 -0.7576 -1.6659
18037THY    CA631712   4.370   6.159   6.491  0.0216 -0.6106 -0.5202
18037THY    HA631713   4.326   6.153   6.392  1.0778 -1.3975  2.8942
18038THY      O31714   6.143   5.454   7.644 -0.0934  0.1115 -0.0627
18038THY     HO31715   6.111   5.530   7.593 -1.1574  1.1634  0.2298
18038THY    CA131716   6.074   5.437   7.755 -0.0601 -0.0210 -0.4476
18038THY    CA231717   6.079   5.314   7.825  1.2058 -0.2093 -0.9263
18038THY    CP131718   6.169   5.201   7.777  0.2962  0.0101  0.6077
18038THY    HP131719   6.253   5.227   7.712  3.2802  1.9082 -3.3754
18038THY    CP231720   6.093   5.078   7.718 -0.1761 -0.8123 -0.6423
18038THY    HP231721   6.154   4.987   7.727 -1.2869 -3.9832 -1.8583
18038THY    HP331722   6.066   5.093   7.613 -2.1953 -0.1668  0.6759
18038THY    HP431723   6.006   5.068   7.784 -0.0813  0.1840  3.3079
18038THY    CP331724   6.260   5.165   7.902  0.4245 -0.0719  0.2174
18038THY    HP531725   6.295   5.066   7.870 -2.0450 -0.4982 -0.5831
18038THY    HP631726   6.202   5.159   7.994 -0.3569 -0.4678  1.4441
18038THY    HP731727   6.339   5.240   7.919  0.4996 -3.4400  1.0666
18038THY    CA331728   5.999   5.298   7.940 -0.5421 -0.1426 -0.1232
18038THY    HA331729   6.000   5.211   8.005 -2.9843  0.5618  0.2726
18038THY    CA431730   5.915   5.404   7.978 -0.2289 -0.2444  0.0256
18038THY    HA431731   5.847   5.397   8.062  2.8333  2.2895 -1.5148
18038THY    CA531732   5.920   5.529   7.913 -0.4580  0.0023  0.5086
18038THY    CM131733   5.822   5.639   7.960  0.2604 -0.2294  0.4294
18038THY    HM131734   5.843   5.736   7.914 -1.4155 -0.8881  0.5255
18038THY    HM231735   5.823   5.645   8.069  0.1460 -0.2499  0.8465
18038THY    HM331736   5.722   5.611   7.923  0.3051  1.5025 -2.3530
18038THY    CA631737   6.006   5.552   7.799  0.1603 -0.4691  0.2777
18038THY    HA631738   6.019   5.652   7.759  0.4201  0.3895  0.5965
18039THY      O31739   3.135   3.948   3.921  0.7019 -0.1710 -0.5784
18039THY     HO31740   3.204   3.965   3.855  2.0393  1.6142  1.3577
18039THY    CA131741   3.017   3.916   3.867  0.8323  0.2583  0.6030
18039THY    CA231742   2.919   3.852   3.941 -0.7149 -0.2586  0.7331
18039THY    CP131743   2.945   3.828   4.085  0.4016  0.2339  0.7209
18039THY    HP131744   3.017   3.904   4.118 -0.0627  1.8044  0.5249
18039THY    CP231745   2.998   3.687   4.099 -0.0038  0.0467 -0.3093
18039THY    HP231746   3.094   3.668   4.051 -0.1908 -0.5831  0.3067
18039THY    HP331747   2.919   3.615   4.076 -2.0886  0.0201  1.8643
18039THY    HP431748   3.029   3.672   4.203 -0.5845  0.2739  0.0300
18039THY    CP331749   2.821   3.837   4.167 -0.4515  0.2552  0.8456
18039THY    HP531750   2.756   3.921   4.140 -2.1257  2.5306  0.3844
18039THY    HP631751   2.847   3.857   4.272 -0.3459  0.0217  1.9986
18039THY    HP731752   2.762   3.746   4.150  0.0169 -1.6794  0.8568
18039THY    CA331753   2.808   3.810   3.871  0.8088  0.0198  0.1699
18039THY    HA331754   2.734   3.748   3.922  0.1335 -0.4182  0.6088
18039THY    CA431755   2.796   3.828   3.735 -0.1297  0.1141 -0.3116
18039THY    HA431756   2.708   3.798   3.678 -0.6322  0.7248 -0.0303
18039THY    CA531757   2.889   3.906   3.663  0.2063 -0.4750  0.0171
18039THY    CM131758   2.870   3.942   3.518 -0.2559  0.6862 -0.0038
18039THY    HM131759   2.906   4.040   3.486  0.0449 -0.0736 -0.3551
18039THY    HM231760   2.765   3.933   3.486  0.3474 -1.8589  1.1047
18039THY    HM331761   2.922   3.867   3.457 -1.8893  0.6953 -1.2066
18039THY    CA631762   3.002   3.945   3.731  0.3511  0.4030  0.2719
18039THY    HA631763   3.071   4.000   3.668 -0.7752 -0.2894  0.9252
18040THY      O31764   8.174   4.446   7.117  0.5972 -0.4132  0.3151
18040THY     HO31765   8.148   4.368   7.169 -1.3397 -1.2476  0.3613
18040THY    CA131766   8.123   4.553   7.189 -0.0394  0.1472 -0.1592
18040THY    CA231767   8.182   4.686   7.190  0.1259 -0.2281 -0.7282
18040THY    CP131768   8.305   4.720   7.108  0.1345 -0.6261  1.1385
18040THY    HP131769   8.369   4.631   7.108 -2.5819  0.2902 -0.9173
18040THY    CP231770   8.395   4.812   7.183 -0.4593 -0.1622  0.0470
18040THY    HP231771   8.492   4.803   7.132  1.1023  2.4706  0.5674
18040THY    HP331772   8.409   4.772   7.284  0.8499 -0.9529 -1.6082
18040THY    HP431773   8.373   4.919   7.188 -3.3467 -1.4855 -0.3964
18040THY    CP331774   8.270   4.781   6.969  0.3595  0.0794  0.6207
18040THY    HP531775   8.231   4.883   6.980 -0.2071 -0.8303  0.5113
18040THY    HP631776   8.208   4.708   6.917  1.0636  0.6899 -0.4309
18040THY    HP731777   8.357   4.779   6.901  0.8289  0.6832  0.2377
18040THY    CA331778   8.113   4.798   7.255 -0.5091 -0.1499  0.6584
18040THY    HA331779   8.155   4.898   7.256  0.3273 -1.5861  0.3475
18040THY    CA431780   8.014   4.762   7.346 -0.0572  0.2662 -0.2739
18040THY    HA431781   7.981   4.832   7.422 -0.3091 -0.2408  0.1626
18040THY    CA531782   7.967   4.635   7.352  0.7249  0.2085  0.0926
18040THY    CM131783   7.855   4.602   7.456  0.1949 -0.3594 -0.3776
18040THY    HM131784   7.775   4.677   7.461 -0.3402  2.9331 -0.9872
18040THY    HM231785   7.895   4.602   7.558  0.3780 -0.4303  0.1360
18040THY    HM331786   7.795   4.512   7.436 -0.0596 -2.4923  0.2119
18040THY    CA631787   8.010   4.532   7.269 -0.2567  0.6165 -0.5242
18040THY    HA631788   7.954   4.439   7.264  1.3443 -1.0730 -1.4691
18041THY      O31789   8.984   3.559   5.924  0.1328  0.5146  0.5716
18041THY     HO31790   9.066   3.531   5.969 -0.4246  2.3810  1.8091
18041THY    CA131791   9.004   3.662   5.834 -0.1758  0.5681 -0.1935
18041THY    CA231792   8.895   3.716   5.765 -0.6242  0.4383 -0.2097
18041THY    CP131793   8.757   3.654   5.773  0.0763  0.2269  0.1094
18041THY    HP131794   8.739   3.579   5.851 -1.3226 -2.0953 -2.1129
18041THY    CP231795   8.731   3.579   5.635  0.2513 -0.4222 -0.1328
18041THY    HP231796   8.631   3.535   5.633 -0.0577  0.8654  0.4404
18041THY    HP331797   8.797   3.492   5.629 -1.6020  1.3400 -1.7666
18041THY    HP431798   8.747   3.659   5.561  1.0413  0.8987  0.9749
18041THY    CP331799   8.654   3.759   5.796  0.6943 -0.1114  0.2028
18041THY    HP531800   8.554   3.714   5.796  1.0042 -0.8437 -0.5082
18041THY    HP631801   8.648   3.844   5.727 -1.7398  0.5086  0.6290
18041THY    HP731802   8.682   3.811   5.888  0.2623 -0.0052  0.2561
18041THY    CA331803   8.922   3.829   5.683 -0.8585  0.5310 -0.1008
18041THY    HA331804   8.839   3.874   5.630 -1.4120  1.0103 -0.5525
18041THY    CA431805   9.053   3.893   5.682 -0.0864 -0.2049  0.1402
18041THY    HA431806   9.080   3.976   5.617 -0.2987 -0.5730 -0.0728
18041THY    CA531807   9.151   3.839   5.764  0.4348  0.7647 -0.3331
18041THY    CM131808   9.287   3.912   5.766  0.7653 -0.8127  0.1748
18041THY    HM131809   9.338   3.895   5.862 -0.6756 -0.3466 -1.8144
18041THY    HM231810   9.267   4.019   5.753  0.9934 -0.0364  0.3191
18041THY    HM331811   9.353   3.892   5.681  1.4173 -0.2400 -0.1477
18041THY    CA631812   9.131   3.717   5.832  0.5214  0.5656 -0.3062
18041THY    HA631813   9.204   3.685   5.906 -1.1882  1.2479 -2.9775
18042THY      O31814   4.051   4.504   3.750  0.2488  0.0034 -0.0341
18042THY     HO31815   4.097   4.589   3.745  0.5433  3.8132  0.2002
18042THY    CA131816   4.019   4.456   3.622 -1.0078  0.6246 -0.1792
18042THY    CA231817   3.939   4.347   3.596 -0.0415 -0.2297 -0.1201
18042THY    CP131818   3.892   4.251   3.702 -0.2768  0.2527 -0.2165
18042THY    HP131819   3.916   4.287   3.803 -0.4884 -0.4327  2.0022
18042THY    CP231820   3.946   4.103   3.675 -0.1514 -0.0845 -0.7635
18042THY    HP231821   3.871   4.057   3.610 -0.5178 -2.0258  2.2743
18042THY    HP331822   3.963   4.044   3.766 -1.1795 -1.5309 -3.4202
18042THY    HP431823   4.038   4.104   3.615  0.6031  1.0236  0.5584
18042THY    CP331824   3.741   4.253   3.710 -0.0054 -0.7120  0.1257
18042THY    HP531825   3.708   4.357   3.714 -0.0674 -0.1383  0.0897
18042THY    HP631826   3.699   4.194   3.792  1.7044 -0.1532 -0.3588
18042THY    HP731827   3.689   4.210   3.624  0.3591 -0.6137 -0.5154
18042THY    CA331828   3.911   4.317   3.464 -0.5476  0.6656  0.0169
18042THY    HA331829   3.865   4.223   3.437  1.2990  0.6074 -0.9050
18042THY    CA431830   3.973   4.389   3.358 -0.0719 -0.3842  0.7869
18042THY    HA431831   3.965   4.353   3.256 -1.2149  0.1845 -0.6718
18042THY    CA531832   4.043   4.508   3.385  0.0291  0.3207  0.2502
18042THY    CM131833   4.095   4.596   3.277  0.2689 -0.5845  0.5818
18042THY    HM131834   4.014   4.604   3.203  1.0362 -1.4319  0.7150
18042THY    HM231835   4.186   4.551   3.236  0.0158  0.6937 -1.1769
18042THY    HM331836   4.105   4.699   3.313  0.7862  1.8460 -0.2584
18042THY    CA631837   4.067   4.535   3.518 -0.3089  0.1862 -0.3042
18042THY    HA631838   4.130   4.622   3.537  0.2498  0.5739 -0.7809
18043THY      O31839   3.921   7.356   6.381 -0.0153  0.0345  0.0409
18043THY     HO31840   3.958   7.434   6.337 -0.1304 -0.9022 -0.4245
18043THY    CA131841   3.806   7.313   6.324  0.7384  0.0161 -0.6634
18043THY    CA231842   3.730   7.206   6.386 -0.3592  0.1694 -1.0254
18043THY    CP131843   3.785   7.136   6.510 -0.6330  0.2653  0.9273
18043THY    HP131844   3.821   7.214   6.579  1.2597  0.1796  0.1765
18043THY    CP231845   3.893   7.035   6.467  0.2244  0.0346  0.0051
18043THY    HP231846   3.976   7.087   6.417 -0.3757 -0.2204  0.7427
18043THY    HP331847   3.851   6.969   6.391 -2.0041 -0.4266  1.8270
18043THY    HP431848   3.926   6.962   6.542 -0.3427  0.8102  0.5233
18043THY    CP331849   3.678   7.055   6.577 -0.0533 -0.4395  0.0826
18043THY    HP531850   3.604   7.125   6.616  0.9378 -1.2795  1.6556
18043THY    HP631851   3.719   7.000   6.663 -0.5928 -0.9000 -1.0803
18043THY    HP731852   3.622   6.982   6.516 -1.2136  0.5725  0.0985
18043THY    CA331853   3.599   7.196   6.332 -0.0257  0.5400 -0.2825
18043THY    HA331854   3.530   7.124   6.375 -2.0928  0.8464  1.7540
18043THY    CA431855   3.554   7.285   6.228 -0.0096 -0.9604  0.0984
18043THY    HA431856   3.449   7.277   6.202 -0.8321  2.0581 -0.1946
18043THY    CA531857   3.645   7.369   6.161 -0.1918 -0.3263 -0.2219
18043THY    CM131858   3.612   7.450   6.037  0.4651 -0.1686  0.4718
18043THY    HM131859   3.626   7.557   6.056 -1.3100  0.0092  0.6963
18043THY    HM231860   3.513   7.421   6.001  0.9221 -1.9160  0.9344
18043THY    HM331861   3.683   7.424   5.957  1.2325  0.4429  0.6578
18043THY    CA631862   3.772   7.376   6.211  0.4222  0.3308 -0.3054
18043THY    HA631863   3.835   7.444   6.155 -0.9922 -2.7453 -1.3051
18044THY      O31864   1.809   7.908   4.897  0.1425 -0.7730 -0.1603
18044THY     HO31865   1.770   7.978   4.841 -0.8096 -0.3387 -0.3255
18044THY    CA131866   1.870   7.985   4.999  0.5895 -0.3360 -0.1142
18044THY    CA231867   1.975   7.925   5.080 -0.4365 -0.4092  0.3219
18044THY    CP131868   1.999   7.775   5.091 -0.3524 -0.4192  0.8201
18044THY    HP131869   1.938   7.723   5.016 -0.7877  0.9908 -0.8059
18044THY    CP231870   1.942   7.726   5.224  0.7493 -0.3568  0.7577
18044THY    HP231871   1.992   7.751   5.318 -3.0573  2.9720 -2.6556
18044THY    HP331872   1.931   7.618   5.210 -1.9054  0.7416  0.8178
18044THY    HP431873   1.836   7.753   5.218  0.0067 -1.3426 -2.0235
18044THY    CP331874   2.143   7.731   5.081  0.5017  0.1017  0.3819
18044THY    HP531875   2.143   7.623   5.102  3.0053 -0.1925  0.2626
18044THY    HP631876   2.204   7.784   5.156 -0.8428  0.5533  1.3273
18044THY    HP731877   2.186   7.740   4.981  1.8857  0.6582  0.2279
18044THY    CA331878   2.051   8.015   5.160  0.1558  0.1913 -0.2913
18044THY    HA331879   2.124   7.979   5.232  0.6082  0.4740  1.0972
18044THY    CA431880   2.024   8.152   5.144  0.5888 -0.3070  0.5595
18044THY    HA431881   2.084   8.221   5.202  0.5698 -0.8544  1.0393
18044THY    CA531882   1.925   8.204   5.057 -0.2291 -0.9564 -0.2943
18044THY    CM131883   1.919   8.351   5.042 -0.0365 -0.3133 -0.8045
18044THY    HM131884   1.856   8.401   5.116 -0.0176 -0.2118 -0.9290
18044THY    HM231885   1.870   8.382   4.949  2.3773 -1.3618  0.1170
18044THY    HM331886   2.012   8.408   5.053 -0.8991 -0.9920  0.7944
18044THY    CA631887   1.834   8.123   4.990  0.6341  0.1981 -0.2293
18044THY    HA631888   1.762   8.167   4.921  0.1312  0.8347 -0.0289
18045THY      O31889   7.951   6.036   7.488  0.7512  0.5006 -0.7225
18045THY     HO31890   8.007   6.096   7.539 -3.5394  0.6754  3.8472
18045THY    CA131891   7.829   6.033   7.555 -0.3555 -0.1600 -0.0899
18045THY    CA231892   7.714   5.972   7.505 -0.4088 -0.1393  0.2043
18045THY    CP131893   7.721   5.900   7.376 -0.4404 -0.0616  0.0738
18045THY    HP131894   7.824   5.868   7.360  0.0835  1.6548  0.7754
18045THY    CP231895   7.693   5.992   7.257  0.3395 -0.0842  0.5435
18045THY    HP231896   7.584   5.996   7.242  0.4231 -0.6096  0.8566
18045THY    HP331897   7.744   5.944   7.172  1.0311  0.4203  0.3675
18045THY    HP431898   7.739   6.091   7.255  0.8238 -0.9944  0.3157
18045THY    CP331899   7.631   5.777   7.359 -0.2785  0.3699 -0.3471
18045THY    HP531900   7.645   5.731   7.261 -0.4972  0.2237 -0.1006
18045THY    HP631901   7.527   5.809   7.371 -0.0188  1.7671  0.0540
18045THY    HP731902   7.651   5.703   7.438  1.2895  1.4740  1.1807
18045THY    CA331903   7.603   5.970   7.583  0.3527 -0.3993  0.0147
18045THY    HA331904   7.509   5.923   7.556  0.1752 -0.3125  0.3126
18045THY    CA431905   7.604   6.036   7.710  0.3970 -1.0930 -0.7864
18045THY    HA431906   7.514   6.043   7.769  0.8255 -0.6429  3.0821
18045THY    CA531907   7.716   6.096   7.756  0.1257 -0.5599 -0.8191
18045THY    CM131908   7.716   6.167   7.886  0.0415 -0.2118 -0.5420
18045THY    HM131909   7.619   6.175   7.936  0.5240  0.7238 -0.3863
18045THY    HM231910   7.753   6.270   7.887 -0.3241 -0.3988 -0.4102
18045THY    HM331911   7.781   6.114   7.957 -0.0340  1.4796  1.4816
18045THY    CA631912   7.829   6.094   7.675 -0.5280 -0.7914  0.0472
18045THY    HA631913   7.915   6.152   7.708  0.7752 -0.5381 -1.9284
18046THY      O31914   7.368   3.859   4.486 -0.6824 -0.4378 -0.6437
18046THY     HO31915   7.396   3.800   4.414  1.5717  0.7215 -1.0812
18046THY    CA131916   7.457   3.840   4.592  0.4612  0.1295 -0.6159
18046THY    CA231917   7.425   3.877   4.727 -0.4878  0.1545  0.2804
18046THY    CP131918   7.298   3.958   4.759  0.1969 -0.6013 -0.6495
18046THY    HP131919   7.246   3.976   4.665 -2.0688  0.0252 -3.2153
18046THY    CP231920   7.328   4.097   4.825  0.4791  0.1683 -1.0415
18046THY    HP231921   7.420   4.135   4.780 -0.2648  0.7318  1.6262
18046THY    HP331922   7.331   4.105   4.934 -2.9297  0.4150 -1.4398
18046THY    HP431923   7.254   4.170   4.790 -0.6817  0.5951 -1.9876
18046THY    CP331924   7.205   3.885   4.849 -0.0274 -0.1477 -0.2895
18046THY    HP531925   7.249   3.851   4.943 -1.1410  0.3775 -0.3176
18046THY    HP631926   7.166   3.791   4.806 -0.8971  0.6344 -0.2965
18046THY    HP731927   7.128   3.956   4.879  0.9989  1.3693  0.2088
18046THY    CA331928   7.529   3.848   4.822 -0.2523 -0.3404 -0.4735
18046THY    HA331929   7.522   3.883   4.924  1.4072 -0.6634  0.9657
18046THY    CA431930   7.643   3.775   4.783 -0.4601 -0.4628 -0.0649
18046THY    HA431931   7.723   3.757   4.854  2.0858 -3.4564 -1.8659
18046THY    CA531932   7.660   3.736   4.654 -0.1996  0.0506 -0.0245
18046THY    CM131933   7.778   3.659   4.604 -0.1476 -0.7273 -0.6013
18046THY    HM131934   7.755   3.552   4.600  0.4272 -1.3255 -0.7083
18046THY    HM231935   7.855   3.659   4.682 -1.6979  0.8803  0.4753
18046THY    HM331936   7.813   3.695   4.507 -1.1290 -0.9435 -0.1751
18046THY    CA631937   7.571   3.776   4.551 -0.2182 -1.2145 -0.3038
18046THY    HA631938   7.590   3.756   4.446 -2.0504 -1.3750 -1.5031
18047THY      O31939   8.541   2.060   4.582  0.0345 -0.1357  0.6683
18047THY     HO31940   8.625   2.107   4.567  0.3244  1.1414  0.5895
18047THY    CA131941   8.445   2.155   4.588  0.1472  0.4020  0.3684
18047THY    CA231942   8.324   2.128   4.653 -0.1308 -0.2714 -0.5717
18047THY    CP131943   8.316   1.998   4.737  0.1803  0.6369 -0.2084
18047THY    HP131944   8.410   1.943   4.723  1.2954  1.1065  1.4992
18047THY    CP231945   8.210   1.903   4.681  0.7663  0.1374  0.4881
18047THY    HP231946   8.119   1.959   4.658  1.1311 -2.0468  0.2869
18047THY    HP331947   8.188   1.816   4.743  1.1930 -0.5481 -0.1179
18047THY    HP431948   8.246   1.857   4.588 -0.7219 -0.5580  0.6802
18047THY    CP331949   8.293   2.033   4.890 -0.2247 -0.8990  0.2812
18047THY    HP531950   8.263   1.943   4.944 -0.4817 -1.2332  0.1651
18047THY    HP631951   8.209   2.099   4.915  0.5844  1.4018  0.5403
18047THY    HP731952   8.388   2.071   4.930 -1.0789  0.4373  1.1301
18047THY    CA331953   8.220   2.230   4.653  0.4610 -0.4180 -0.6680
18047THY    HA331954   8.124   2.214   4.701 -0.5061 -1.4359  1.5989
18047THY    CA431955   8.241   2.341   4.573  0.6684  0.2213 -0.3022
18047THY    HA431956   8.162   2.415   4.565  0.8722  2.4431  0.2415
18047THY    CA531957   8.361   2.369   4.507 -0.6502  0.1283 -0.6184
18047THY    CM131958   8.384   2.502   4.432  0.4135 -0.0146  0.8449
18047THY    HM131959   8.491   2.526   4.421  1.1246  2.1701 -0.9494
18047THY    HM231960   8.341   2.588   4.485 -0.9327  2.1495 -1.0375
18047THY    HM331961   8.335   2.492   4.334  2.2881 -0.8060 -1.5511
18047THY    CA631962   8.461   2.274   4.514  0.2192 -0.2883 -0.0426
18047THY    HA631963   8.550   2.288   4.453  1.5250  1.4224 -0.4990
18048THY      O31964   4.204   3.583   3.451 -0.1983 -0.9608 -0.4869
18048THY     HO31965   4.231   3.677   3.445 -0.1096 -1.5252 -0.5422
18048THY    CA131966   4.250   3.529   3.338  0.1828 -0.1641 -0.2755
18048THY    CA231967   4.237   3.388   3.312  0.9322  0.7673 -0.1607
18048THY    CP131968   4.161   3.300   3.413  0.3914  0.2320 -0.0133
18048THY    HP131969   4.080   3.365   3.449 -0.5635 -1.3406 -0.2851
18048THY    CP231970   4.260   3.256   3.522 -0.0496 -0.6044  0.5113
18048THY    HP231971   4.323   3.341   3.550  0.1633  0.2661  0.0792
18048THY    HP331972   4.335   3.185   3.486  0.5368  0.6221  0.4822
18048THY    HP431973   4.207   3.233   3.615 -1.3956 -1.2047  1.1299
18048THY    CP331974   4.097   3.174   3.348  0.0826  0.1265 -0.8385
18048THY    HP531975   4.039   3.201   3.259 -2.2017  1.6092 -0.6873
18048THY    HP631976   4.022   3.128   3.412 -0.4774 -0.4686 -0.7746
18048THY    HP731977   4.173   3.099   3.321  0.3003 -0.3206 -0.4664
18048THY    CA331978   4.276   3.339   3.182 -0.2070 -0.0654  0.2198
18048THY    HA331979   4.276   3.231   3.172  1.2321 -2.0087  0.3594
18048THY    CA431980   4.332   3.431   3.092 -0.2874 -0.3217 -0.0567
18048THY    HA431981   4.365   3.398   2.994 -0.3277 -0.6751  0.9147
18048THY    CA531982   4.343   3.566   3.119  0.4222  0.2146 -0.8932
18048THY    CM131983   4.411   3.658   3.024  0.0527 -0.3974 -0.1328
18048THY    HM131984   4.405   3.761   3.060 -4.1864  1.2800 -0.7552
18048THY    HM231985   4.367   3.663   2.924 -0.3374 -0.3024 -1.3380
18048THY    HM331986   4.516   3.629   3.015  0.3467 -0.5323  0.9400
18048THY    CA631987   4.306   3.616   3.247 -0.7989 -0.3698 -0.5432
18048THY    HA631988   4.323   3.721   3.266 -2.0097 -1.2676 -0.1621
18049THY      O31989   8.270   6.583   7.503 -0.1495 -0.2371 -0.4806
18049THY     HO31990   8.305   6.570   7.413  3.6929  0.7047  1.6867
18049THY    CA131991   8.383   6.553   7.575  0.0227  0.4821 -0.3991
18049THY    CA231992   8.406   6.598   7.707  0.0544 -0.0107  0.1816
18049THY    CP131993   8.294   6.687   7.770 -0.8849  0.3249  0.2182
18049THY    HP131994   8.195   6.646   7.749  0.3065  2.2127 -4.2858
18049THY    CP231995   8.299   6.826   7.706  0.5820 -0.7061  0.4199
18049THY    HP231996   8.226   6.891   7.755  0.6484 -0.5976  0.4133
18049THY    HP331997   8.271   6.823   7.600 -2.5996 -0.0404  2.1763
18049THY    HP431998   8.403   6.861   7.702  1.3390 -1.7278 -1.7822
18049THY    CP331999   8.307   6.704   7.916 -0.2848 -0.1260 -0.2270
18049THY    HP532000   8.219   6.739   7.971  0.0224  0.6173 -0.5944
18049THY    HP632001   8.391   6.771   7.936 -0.1747 -0.5959 -0.2212
18049THY    HP732002   8.322   6.604   7.960  0.5248 -0.0572 -0.0770
18049THY    CA332003   8.530   6.584   7.771 -0.8594 -0.2307 -0.3427
18049THY    HA332004   8.556   6.619   7.870  1.3170 -0.7346 -0.3615
18049THY    CA432005   8.635   6.529   7.699 -0.8526 -0.6980 -0.2291
18049THY    HA432006   8.730   6.510   7.747 -0.9828 -0.1967  0.3697
18049THY    CA532007   8.615   6.471   7.571  0.8471  0.0738 -0.6378
18049THY    CM132008   8.728   6.417   7.483 -0.5694  0.0260  0.3123
18049THY    HM132009   8.687   6.357   7.401  1.9396  0.7900 -2.6973
18049THY    HM232010   8.780   6.346   7.548 -1.3143 -0.8613 -1.0896
18049THY    HM332011   8.798   6.490   7.441 -1.3464 -1.1489  0.4268
18049THY    CA632012   8.486   6.486   7.509  0.1445 -0.0198 -0.2688
18049THY    HA632013   8.476   6.459   7.405 -2.3382  0.3462 -1.0121
18050THY      O32014   5.944   3.093   8.116  0.0991 -0.0271  0.7674
18050THY     HO32015   5.910   3.010   8.153  0.8400 -0.0246  0.4529
18050THY    CA132016   5.993   3.052   7.999  0.3977 -0.0422 -0.2442
18050THY    CA232017   6.024   3.150   7.896  0.1136 -0.5437  0.6652
18050THY    CP132018   5.994   3.299   7.925  0.0124 -0.2816 -0.0341
18050THY    HP132019   5.907   3.320   7.988  0.3008  0.2216 -0.3325
18050THY    CP232020   5.976   3.388   7.814  0.1270  0.9257  0.4884
18050THY    HP232021   6.063   3.384   7.749  0.1902  1.0681 -0.5158
18050THY    HP332022   5.968   3.494   7.844 -0.7639  0.6185  0.5203
18050THY    HP432023   5.892   3.355   7.752  1.1622 -0.4450  0.3708
18050THY    CP332024   6.105   3.364   8.012 -0.3447  0.2205  1.0126
18050THY    HP532025   6.203   3.366   7.963 -0.7748 -0.7494 -0.0080
18050THY    HP632026   6.117   3.304   8.103 -1.3757 -1.0853 -1.3579
18050THY    HP732027   6.087   3.470   8.032 -0.8958  1.6224  0.6799
18050THY    CA332028   6.094   3.098   7.786 -0.3904 -0.0549 -0.4452
18050THY    HA332029   6.136   3.154   7.703  2.2346  1.8110  0.5673
18050THY    CA432030   6.095   2.960   7.759 -0.6838 -0.2494 -0.0374
18050THY    HA432031   6.127   2.921   7.663  1.1923  0.2852  0.0835
18050THY    CA532032   6.059   2.869   7.858  1.4509  0.3118  0.2464
18050THY    CM132033   6.058   2.723   7.828 -0.1873 -0.4689  0.0186
18050THY    HM132034   6.145   2.686   7.772  1.0923  2.0546 -1.0141
18050THY    HM232035   5.968   2.700   7.769 -0.2055 -0.9456  1.2206
18050THY    HM332036   6.055   2.659   7.916  0.8484 -1.0189 -0.8042
18050THY    CA632037   6.017   2.918   7.979  0.7829  0.3342  0.3030
18050THY    HA632038   5.997   2.845   8.057  1.1208  0.8041  0.7050
18051THY      O32039   7.299   1.498   2.366 -0.3851 -0.3414 -0.0314
18051THY     HO32040   7.239   1.445   2.421  1.2194 -0.0926 -1.7325
18051THY    CA132041   7.389   1.550   2.447  1.0458  0.0190 -0.0254
18051THY    CA232042   7.475   1.654   2.401  0.4168  0.1774  0.1573
18051THY    CP132043   7.454   1.717   2.264  0.8203 -0.4435 -0.6302
18051THY    HP132044   7.381   1.667   2.199  0.3617 -0.4385  0.0237
18051THY    CP232045   7.582   1.702   2.191 -0.2091  0.4996  0.1646
18051THY    HP232046   7.637   1.607   2.197  2.5811 -2.1407  1.4759
18051THY    HP332047   7.664   1.773   2.208 -0.7925  0.2389  0.9153
18051THY    HP432048   7.587   1.717   2.083  0.8298  0.4907 -0.1740
18051THY    CP332049   7.417   1.868   2.271 -0.2377 -0.3006  0.0102
18051THY    HP532050   7.418   1.904   2.167 -0.0879 -1.7833 -3.8264
18051THY    HP632051   7.485   1.937   2.323 -1.8989 -0.3113  1.7320
18051THY    HP732052   7.318   1.878   2.317 -0.4010 -0.2237 -1.6159
18051THY    CA332053   7.558   1.712   2.498 -0.2455  0.1908  0.2334
18051THY    HA332054   7.612   1.801   2.466  0.6918 -1.1019 -0.7704
18051THY    CA432055   7.561   1.653   2.624  0.1452 -0.1840 -0.7833
18051THY    HA432056   7.631   1.701   2.691 -0.2125  0.5460 -1.2616
18051THY    CA532057   7.487   1.538   2.662  0.4097 -0.2839 -0.4035
18051THY    CM132058   7.494   1.490   2.803 -0.5822  0.1853  0.3937
18051THY    HM132059   7.523   1.385   2.806 -0.9453  0.3134  0.2943
18051THY    HM232060   7.401   1.508   2.859 -0.0912  0.7296  1.3582
18051THY    HM332061   7.562   1.542   2.872 -0.3124 -0.6732  1.2218
18051THY    CA632062   7.388   1.497   2.573  0.0210 -0.9873  0.6584
18051THY    HA632063   7.317   1.423   2.609 -0.4417 -0.1188  1.4944
18052THY      O32064   9.147   5.660   7.694 -0.0355  0.0863 -0.0908
18052THY     HO32065   9.097   5.661   7.778 -0.6811 -0.2740 -0.7556
18052THY    CA132066   9.059   5.675   7.587  0.1073  0.2280  0.4853
18052THY    CA232067   9.094   5.681   7.453 -0.8765 -0.2034  0.2349
18052THY    CP132068   9.240   5.688   7.411 -0.1864  0.4322  0.2280
18052THY    HP132069   9.308   5.659   7.493  0.6040 -0.3200 -0.1015
18052THY    CP232070   9.280   5.836   7.409  0.1588  0.2573 -0.8680
18052THY    HP232071   9.389   5.847   7.402  0.1224  1.1674  0.3096
18052THY    HP332072   9.249   5.887   7.501  0.1461  0.0047 -0.4131
18052THY    HP432073   9.239   5.892   7.323  1.0156  0.2402 -0.2373
18052THY    CP332074   9.285   5.625   7.277 -0.4247 -0.1974 -0.3958
18052THY    HP532075   9.276   5.515   7.275 -0.7498  0.3856 -0.3861
18052THY    HP632076   9.385   5.659   7.247 -0.3381  1.3314  0.7982
18052THY    HP732077   9.219   5.652   7.194  0.6430 -0.7263  0.6599
18052THY    CA332078   8.992   5.690   7.358  0.2212  0.7310  0.3984
18052THY    HA332079   9.021   5.701   7.254 -3.5147 -0.4240  0.5244
18052THY    CA432080   8.864   5.703   7.396 -0.4870  0.8184 -0.4616
18052THY    HA432081   8.792   5.723   7.317 -1.7306  2.1299  0.4163
18052THY    CA532082   8.821   5.689   7.530  0.2477  0.2063 -0.1527
18052THY    CM132083   8.674   5.688   7.553  0.2957  0.0528 -0.4323
18052THY    HM132084   8.644   5.601   7.613 -1.9423  1.1164  0.9850
18052THY    HM232085   8.620   5.694   7.458 -0.5534  0.3139 -2.8955
18052THY    HM332086   8.647   5.772   7.618 -0.4925  0.0734 -0.6874
18052THY    CA632087   8.921   5.678   7.623  0.2982 -0.0223  0.3136
18052THY    HA632088   8.892   5.663   7.726  1.5858  0.2065 -0.7911
18053THY      O32089   9.208   6.606   6.047  0.3219  0.4990  0.4437
18053THY     HO32090   9.304   6.606   6.031  0.6043  1.9786 -1.5677
18053THY    CA132091   9.180   6.740   6.052  0.2043  0.1254  0.3049
18053THY    CA232092   9.043   6.779   6.047 -0.9708 -0.3037  0.6921
18053THY    CP132093   8.926   6.674   6.062 -0.2523  0.4789 -0.4947
18053THY    HP132094   8.957   6.581   6.112 -3.7818  1.3412 -1.3335
18053THY    CP232095   8.851   6.647   5.928  0.6358 -0.3026  0.2888
18053THY    HP232096   8.757   6.590   5.932  0.8003 -0.9981 -0.0319
18053THY    HP332097   8.917   6.605   5.851 -0.0226 -0.3705 -0.6422
18053THY    HP432098   8.817   6.746   5.896 -1.1676  1.2632  0.2428
18053THY    CP332099   8.821   6.723   6.155  1.0628 -0.2274  0.2047
18053THY    HP532100   8.765   6.803   6.104  2.3557 -0.7950  0.7694
18053THY    HP632101   8.859   6.760   6.250 -1.4700  0.4966  1.1515
18053THY    HP732102   8.757   6.636   6.174  1.4360 -1.2361 -0.3129
18053THY    CA332103   9.010   6.907   6.036 -0.7007  0.8792 -0.1943
18053THY    HA332104   8.909   6.948   6.031 -0.8692  0.0753 -0.6871
18053THY    CA432105   9.115   6.996   6.049 -0.5340  0.1004 -0.2381
18053THY    HA432106   9.091   7.101   6.033  1.2498  1.8872  0.5023
18053THY    CA532107   9.251   6.966   6.053 -0.0840  0.1491  0.0817
18053THY    CM132108   9.354   7.074   6.047  0.8085 -0.3530 -0.0444
18053THY    HM132109   9.335   7.150   6.124 -1.4711  0.3626 -1.2193
18053THY    HM232110   9.373   7.100   5.943  1.1219 -0.4471 -0.6365
18053THY    HM332111   9.455   7.035   6.063  0.5940 -0.8198 -0.8075
18053THY    CA632112   9.283   6.832   6.065  0.5697  0.0222 -0.1003
18053THY    HA632113   9.388   6.808   6.078  1.1181 -1.1592  1.4388
18054THY      O32114   1.226   3.272   1.818  0.1512 -0.1050 -0.6066
18054THY     HO32115   1.210   3.176   1.817 -1.7197  0.4431 -0.3237
18054THY    CA132116   1.323   3.304   1.902 -0.3798 -0.3682 -0.3696
18054THY    CA232117   1.352   3.440   1.926  0.4609 -0.3052  0.4560
18054THY    CP132118   1.263   3.542   1.855 -0.0121 -0.3339 -0.3022
18054THY    HP132119   1.180   3.488   1.809  0.9525 -2.4935 -0.0414
18054THY    CP232120   1.334   3.629   1.744 -0.9932  0.0068  0.6959
18054THY    HP232121   1.381   3.561   1.672  0.2316  2.1593 -0.8754
18054THY    HP332122   1.399   3.708   1.784 -0.7773  0.8037  0.1282
18054THY    HP432123   1.256   3.685   1.691 -1.0451  0.7071  1.3032
18054THY    CP332124   1.205   3.649   1.944 -0.7622  0.1822  0.2437
18054THY    HP532125   1.296   3.693   1.987  0.0092  0.7985 -1.8427
18054THY    HP632126   1.147   3.596   2.020 -2.8210 -0.6313  1.2003
18054THY    HP732127   1.155   3.723   1.880  0.5454  0.1797  1.1668
18054THY    CA332128   1.470   3.472   1.996  0.0577 -0.3753 -0.7222
18054THY    HA332129   1.499   3.577   1.999 -0.3952 -2.6582 -0.4823
18054THY    CA432130   1.535   3.371   2.066 -0.0016  0.3962  0.3917
18054THY    HA432131   1.609   3.404   2.139  0.6635 -0.4150  0.7190
18054THY    CA532132   1.498   3.237   2.053  0.5267 -0.5522  0.2889
18054THY    CM132133   1.557   3.128   2.141  0.8355  0.1132 -0.0443
18054THY    HM132134   1.493   3.046   2.175  2.2058 -2.1244 -2.1506
18054THY    HM232135   1.613   3.169   2.225  1.3948  1.0651 -2.5724
18054THY    HM332136   1.637   3.081   2.084 -0.2474 -0.7582 -0.8795
18054THY    CA632137   1.396   3.200   1.964 -0.6112  0.1155  0.5447
18054THY    HA632138   1.373   3.096   1.943  3.1578  0.3932 -0.4966
18055THY      O32139   5.134   3.999   4.273  0.3206 -0.2308 -0.3853
18055THY     HO32140   5.093   4.066   4.216  2.5209 -0.9191  0.4539
18055THY    CA132141   5.144   4.043   4.398  0.5361 -0.4055  0.3921
18055THY    CA232142   5.169   3.959   4.512  0.2358  0.7247  0.5322
18055THY    CP132143   5.173   3.805   4.499  0.3723 -0.1297 -0.2301
18055THY    HP132144   5.153   3.786   4.393 -1.6464  0.1714 -0.0315
18055THY    CP232145   5.068   3.733   4.571  0.2814 -0.2904  0.2241
18055THY    HP232146   4.971   3.760   4.528  0.3707 -1.1256 -0.7248
18055THY    HP332147   5.062   3.756   4.678  1.1717  0.1759 -1.4948
18055THY    HP432148   5.069   3.624   4.559 -0.8213  0.5632  0.0995
18055THY    CP332149   5.320   3.763   4.533  0.0653  0.3774  0.1948
18055THY    HP532150   5.337   3.771   4.641 -0.1975  0.5269 -1.0672
18055THY    HP632151   5.392   3.825   4.478  1.2783  1.0042 -0.6140
18055THY    HP732152   5.339   3.658   4.507  0.1051 -2.3530  0.7846
18055THY    CA332153   5.198   4.020   4.639  0.3785  1.2796 -0.0620
18055THY    HA332154   5.234   3.955   4.718 -2.8950  3.2277  0.2935
18055THY    CA432155   5.180   4.160   4.653  0.7754  0.0157  0.2689
18055THY    HA432156   5.196   4.198   4.754  1.1215  0.7215 -1.5979
18055THY    CA532157   5.152   4.235   4.540 -0.2120 -0.2452 -0.1213
18055THY    CM132158   5.131   4.381   4.566 -0.0482 -0.0034  0.5927
18055THY    HM132159   5.205   4.420   4.635  0.2815  1.0430 -1.7216
18055THY    HM232160   5.029   4.398   4.604 -0.5441 -0.4039 -1.2824
18055THY    HM332161   5.152   4.448   4.482  1.7772  0.2057  0.3134
18055THY    CA632162   5.133   4.182   4.412 -0.4150  0.2015  0.5419
18055THY    HA632163   5.104   4.246   4.330 -0.3095 -0.5207 -0.3067
18056THY      O32164   1.119   7.122   1.908  1.0091 -0.2402 -0.0048
18056THY     HO32165   1.119   7.172   1.825 -0.7922 -0.5316 -0.4122
18056THY    CA132166   1.158   7.006   1.862 -0.0459  0.1781  0.1811
18056THY    CA232167   1.211   6.912   1.954  0.8027  0.2760 -0.0903
18056THY    CP132168   1.181   6.925   2.107 -0.0690 -0.2633  0.3742
18056THY    HP132169   1.112   7.006   2.132 -0.1734  1.7574 -0.2818
18056THY    CP232170   1.305   6.927   2.190 -0.2031 -0.4104  0.4292
18056THY    HP232171   1.293   6.974   2.288  0.5167 -0.6774  1.2028
18056THY    HP332172   1.374   6.988   2.129  0.1990 -0.0068  0.3860
18056THY    HP432173   1.358   6.831   2.196  1.3964  2.4221  1.3663
18056THY    CP332174   1.108   6.799   2.147 -0.1839 -0.5773 -0.7008
18056THY    HP532175   1.178   6.723   2.183  2.0229  1.2599  1.9893
18056THY    HP632176   1.035   6.753   2.079  0.2094 -1.2433 -0.3563
18056THY    HP732177   1.061   6.827   2.242 -2.0228 -0.4626 -3.6460
18056THY    CA332178   1.248   6.786   1.898 -0.4351 -0.5569  0.2637
18056THY    HA332179   1.280   6.702   1.959 -1.5646  0.7270  0.7160
18056THY    CA432180   1.248   6.766   1.762 -0.3688  0.7174  0.2386
18056THY    HA432181   1.273   6.668   1.720 -2.3550 -0.9883  0.3664
18056THY    CA532182   1.208   6.869   1.674  0.9429 -1.4512  0.1426
18056THY    CM132183   1.191   6.844   1.524  0.6098  0.3643 -0.1921
18056THY    HM132184   1.270   6.899   1.471 -1.5188 -1.2849  1.4544
18056THY    HM232185   1.106   6.890   1.474 -0.4570  1.0765 -1.3246
18056THY    HM332186   1.200   6.738   1.498 -2.6007 -0.6024 -0.3342
18056THY    CA632187   1.149   6.981   1.723 -0.1886 -0.0017 -0.3299
18056THY    HA632188   1.101   7.049   1.653 -0.4405  2.6347  2.4091
18057THY      O32189   8.278   1.520   7.253 -0.1762  0.1785  0.3037
18057THY     HO32190   8.203   1.464   7.228  0.3269  2.0524 -1.3234
18057THY    CA132191   8.355   1.452   7.341 -0.0702  0.8362  0.0096
18057THY    CA232192   8.426   1.505   7.451  0.0907  0.1057  0.6991
18057THY    CP132193   8.425   1.660   7.467 -0.1933  0.7954 -0.1296
18057THY    HP132194   8.381   1.707   7.378  2.1960 -0.0191  0.6847
18057THY    CP232195   8.566   1.711   7.477 -0.3278 -0.5545  0.1461
18057THY    HP232196   8.623   1.680   7.389  2.1040  0.7915  0.5525
18057THY    HP332197   8.629   1.669   7.555  0.4706 -1.8013 -1.0582
18057THY    HP432198   8.561   1.820   7.481 -2.1004  0.7678  0.0595
18057THY    CP332199   8.356   1.697   7.596 -0.3992  0.0402 -0.8385
18057THY    HP532200   8.257   1.651   7.597  0.8062 -0.4775 -3.6165
18057THY    HP632201   8.343   1.805   7.613  2.6981  0.9172 -0.4929
18057THY    HP732202   8.408   1.652   7.682  1.4522 -0.3362  0.4402
18057THY    CA332203   8.500   1.421   7.535 -0.2204 -0.7210  0.7506
18057THY    HA332204   8.563   1.464   7.612  0.1585  0.2915 -1.4498
18057THY    CA432205   8.484   1.284   7.519  0.0874  0.9268  0.4020
18057THY    HA432206   8.543   1.216   7.581 -1.0490  0.3939 -1.1337
18057THY    CA532207   8.402   1.232   7.419 -0.4547  0.1520  0.1040
18057THY    CM132208   8.398   1.082   7.398  0.1835  0.2274 -0.2244
18057THY    HM132209   8.298   1.041   7.382 -0.8791  0.9723  1.9010
18057THY    HM232210   8.435   1.025   7.484 -0.6804 -0.6239 -2.1504
18057THY    HM332211   8.450   1.061   7.304  1.4969  0.8940 -0.0700
18057THY    CA632212   8.338   1.315   7.335  0.2990  0.3558  0.0683
18057THY    HA632213   8.272   1.281   7.255  0.7141  0.3588 -0.7937
18058THY      O32214   3.760   8.948   6.113  0.1274 -0.0010 -0.0451
18058THY     HO32215   3.756   8.969   6.018  0.1239 -0.0339 -0.1957
18058THY    CA132216   3.858   9.034   6.156  0.3528 -0.0365 -0.9436
18058THY    CA232217   3.871   9.066   6.285 -0.0421  0.5618  0.2250
18058THY    CP132218   3.778   9.012   6.388  1.2142  0.2792  0.7180
18058THY    HP132219   3.710   8.936   6.349  3.0779 -1.2346 -0.2401
18058THY    CP232220   3.699   9.125   6.463 -0.4219  0.6364  0.7503
18058THY    HP232221   3.621   9.087   6.530  0.2572  2.0073  1.6770
18058THY    HP332222   3.668   9.214   6.407  0.2334  1.6271  1.6315
18058THY    HP432223   3.768   9.168   6.537 -0.7268  2.0003 -0.9772
18058THY    CP332224   3.857   8.923   6.487  0.2336  0.0620 -0.0516
18058THY    HP532225   3.908   8.840   6.437  1.0192 -0.1224  0.5291
18058THY    HP632226   3.787   8.872   6.553  1.5256  1.0129 -0.6565
18058THY    HP732227   3.923   8.989   6.545 -2.1333  0.7440  1.8318
18058THY    CA332228   3.980   9.144   6.322 -0.2503 -0.3387 -0.5750
18058THY    HA332229   3.992   9.173   6.426  3.1070 -0.9823  0.8459
18058THY    CA432230   4.082   9.183   6.227 -0.3117 -0.3452  0.1606
18058THY    HA432231   4.166   9.247   6.254 -1.7317 -0.3373  2.1111
18058THY    CA532232   4.061   9.147   6.095 -0.4741  0.2681  0.2617
18058THY    CM132233   4.168   9.184   5.993 -0.0962 -0.9182 -0.4400
18058THY    HM132234   4.270   9.150   6.014 -0.2850 -2.5279 -2.1628
18058THY    HM232235   4.169   9.293   5.981 -1.7857 -1.0865 -0.4161
18058THY    HM332236   4.145   9.144   5.894 -1.2768 -0.3910 -1.1265
18058THY    CA632237   3.952   9.071   6.060 -0.0976  0.2673 -0.7848
18058THY    HA632238   3.947   9.044   5.955 -0.5320 -0.3026  1.3105
18059THY      O32239   6.996   5.263   2.356 -1.1134 -0.2832 -0.2905
18059THY     HO32240   7.005   5.229   2.266 -2.3001 -0.3698 -0.4095
18059THY    CA132241   7.051   5.391   2.368 -0.4581  0.6958 -0.5833
18059THY    CA232242   7.031   5.471   2.485  0.0210 -0.4968  0.2947
18059THY    CP132243   6.964   5.422   2.605 -0.1231 -0.9806  0.4867
18059THY    HP132244   6.977   5.313   2.608  2.7635  1.2735  0.7906
18059THY    CP232245   6.816   5.459   2.599  0.2473 -0.1820 -0.1151
18059THY    HP232246   6.812   5.569   2.599  1.5216 -2.0741 -0.0169
18059THY    HP332247   6.765   5.407   2.681  2.9206  3.1663  2.0874
18059THY    HP432248   6.779   5.428   2.501  0.0342 -0.0209 -0.3724
18059THY    CP332249   7.017   5.460   2.742 -0.3725  0.4882  0.5390
18059THY    HP532250   7.115   5.412   2.751 -1.1674  0.9446 -1.0827
18059THY    HP632251   6.947   5.432   2.822 -0.4523 -0.3834 -2.0419
18059THY    HP732252   7.033   5.568   2.755 -1.0777 -1.1205  0.8754
18059THY    CA332253   7.071   5.607   2.485  0.1907  0.7315  0.0496
18059THY    HA332254   7.050   5.665   2.575 -0.0914 -0.2101  1.4550
18059THY    CA432255   7.155   5.646   2.374  0.4917  0.3417 -0.4716
18059THY    HA432256   7.184   5.750   2.370 -2.3396  1.3580  0.4580
18059THY    CA532257   7.162   5.574   2.250  1.2910 -0.1812  0.0565
18059THY    CM132258   7.218   5.644   2.137  0.3375 -0.0481 -0.2361
18059THY    HM132259   7.312   5.693   2.164 -0.9918  1.2824  1.7329
18059THY    HM232260   7.144   5.724   2.122  0.8242  0.7151  0.3747
18059THY    HM332261   7.207   5.578   2.050 -1.0869  0.5979 -0.8862
18059THY    CA632262   7.107   5.443   2.249  0.1981 -0.1259 -0.0000
18059THY    HA632263   7.104   5.387   2.156 -1.7598 -1.4035  2.0609
18060THY      O32264   7.017   9.528   7.269  0.1984 -0.4564 -0.6363
18060THY     HO32265   7.064   9.547   7.186  0.7308  0.2477  1.3766
18060THY    CA132266   6.972   9.404   7.273 -0.0052  0.1820  0.5077
18060THY    CA232267   6.920   9.340   7.390 -0.0244 -0.5063  0.2886
18060THY    CP132268   6.915   9.407   7.529 -0.2944 -0.3979  0.1364
18060THY    HP132269   6.970   9.501   7.518 -1.6624 -1.0763  0.8942
18060THY    CP232270   6.989   9.322   7.632 -0.3421 -0.0561  0.1927
18060THY    HP232271   6.936   9.234   7.672 -0.1987  0.3894  0.3061
18060THY    HP332272   7.033   9.370   7.720  0.1237  0.7302 -1.6018
18060THY    HP432273   7.078   9.282   7.583 -0.4317  0.0578 -0.1555
18060THY    CP332274   6.768   9.446   7.579  0.0945  0.0912  0.8221
18060THY    HP532275   6.709   9.479   7.493 -0.1479 -0.1695 -0.2386
18060THY    HP632276   6.772   9.520   7.659  1.2521  1.1494 -0.3216
18060THY    HP732277   6.726   9.352   7.617 -0.3161 -0.1148  0.9194
18060THY    CA332278   6.868   9.212   7.375  0.3370 -0.6980  0.0238
18060THY    HA332279   6.828   9.160   7.461  0.3499  0.9552  2.5598
18060THY    CA432280   6.859   9.151   7.252 -0.1742 -0.2683  0.1560
18060THY    HA432281   6.805   9.058   7.257 -2.3921 -3.3905  1.0927
18060THY    CA532282   6.902   9.211   7.140  0.2641 -0.1674  0.6191
18060THY    CM132283   6.889   9.128   7.015 -0.5179 -0.0677  0.0600
18060THY    HM132284   6.962   9.178   6.950  1.0017  0.6598 -1.1215
18060THY    HM232285   6.790   9.123   6.968 -0.5595  0.1504 -1.7047
18060THY    HM332286   6.926   9.025   7.024 -0.5013 -0.4973  0.0250
18060THY    CA632287   6.957   9.338   7.145 -0.4187 -0.2480 -0.2279
18060THY    HA632288   6.994   9.391   7.058  1.4018  1.8293  2.1076
18061THY      O32289   1.924   2.055   4.183  0.0367 -0.6738  0.5112
18061THY     HO32290   1.836   2.096   4.175  0.7063 -2.0530  1.7490
18061THY    CA132291   1.932   1.976   4.295  0.3276 -0.7556 -0.6964
18061THY    CA232292   2.024   1.865   4.308  0.0602  0.3730  0.3578
18061THY    CP132293   2.123   1.831   4.198 -0.0938 -0.4189  0.7250
18061THY    HP132294   2.100   1.898   4.114 -1.6265  0.2033  1.0334
18061THY    CP232295   2.084   1.685   4.152 -0.3061 -0.1607 -0.1448
18061THY    HP232296   1.979   1.672   4.123 -0.1100 -0.3314 -1.4335
18061THY    HP332297   2.106   1.611   4.229 -2.2219 -0.7535 -1.4226
18061THY    HP432298   2.142   1.659   4.063  1.2030  0.4554  0.9931
18061THY    CP332299   2.273   1.842   4.241 -0.5774 -0.3735 -0.2533
18061THY    HP532300   2.304   1.946   4.254 -0.5386 -2.1498 -0.0133
18061THY    HP632301   2.336   1.807   4.159  1.0611  0.0778  1.4838
18061THY    HP732302   2.282   1.777   4.329  1.0064  1.7550  2.6300
18061THY    CA332303   2.018   1.794   4.431  0.0158 -0.1582  0.4886
18061THY    HA332304   2.081   1.707   4.444  1.3737  1.1315  1.6080
18061THY    CA432305   1.914   1.818   4.522 -0.5066  0.6745 -0.9546
18061THY    HA432306   1.906   1.757   4.611  0.3891  1.4420  0.0109
18061THY    CA532307   1.827   1.929   4.507 -0.3504  0.2221  0.0112
18061THY    CM132308   1.729   1.971   4.613 -0.5565 -0.0788  0.1999
18061THY    HM132309   1.626   1.962   4.575 -0.2255 -1.3056  1.2922
18061THY    HM232310   1.738   2.078   4.635 -3.1303  1.3972  0.2138
18061THY    HM332311   1.739   1.906   4.700  1.3666 -1.1154 -0.9828
18061THY    CA632312   1.840   2.008   4.393 -0.2197 -0.3114 -0.2388
18061THY    HA632313   1.776   2.096   4.386 -0.4459  0.7007 -0.3176
18062THY      O32314   6.298   0.368   3.094 -0.4196 -0.0622  0.2085
18062THY     HO32315   6.207   0.379   3.060 -0.1125 -0.5213  1.4152
18062THY    CA132316   6.329   0.478   3.164  0.4413  0.8424 -0.0610
18062THY    CA232317   6.448   0.494   3.228 -0.6519 -0.5491  0.1967
18062THY    CP132318   6.541   0.376   3.250 -0.5860 -0.0791 -0.3587
18062THY    HP132319   6.501   0.292   3.192  0.3673  0.3847 -1.1508
18062THY    CP232320   6.549   0.335   3.396  0.6271  0.5546  0.4394
18062THY    HP232321   6.446   0.312   3.426  1.3398  1.8896 -1.2177
18062THY    HP332322   6.569   0.418   3.466 -0.2051  0.9881  0.2942
18062THY    HP432323   6.614   0.247   3.401  0.9663 -1.9135  0.4911
18062THY    CP332324   6.688   0.401   3.198  0.1889  0.4728  0.3306
18062THY    HP532325   6.688   0.384   3.090 -2.2186 -0.4906  4.7058
18062THY    HP632326   6.765   0.345   3.252 -0.3483  1.4570  0.5056
18062THY    HP732327   6.727   0.503   3.213 -0.2331 -0.4672  0.6443
18062THY    CA332328   6.480   0.627   3.278 -0.0872  0.3495 -0.8573
18062THY    HA332329   6.576   0.653   3.323 -0.6638  0.7346  0.7344
18062THY    CA432330   6.379   0.732   3.270  0.2276  0.4996 -0.2236
18062THY    HA432331   6.399   0.832   3.307  0.8232  1.1863 -0.5862
18062THY    CA532332   6.255   0.711   3.209 -0.6279  0.0561  0.3260
18062THY    CM132333   6.159   0.816   3.200  0.4136  0.2888  0.8831
18062THY    HM132334   6.121   0.838   3.300 -3.7249 -0.8152 -0.1565
18062THY    HM232335   6.073   0.783   3.140  0.5991  0.2130  0.5315
18062THY    HM332336   6.197   0.912   3.163 -1.1856 -1.1146  1.0341
18062THY    CA632337   6.233   0.582   3.159  0.1250  0.2747 -0.2168
18062THY    HA632338   6.140   0.557   3.107  1.1159 -1.4959 -0.4014
18063THY      O32339   5.848   7.861   1.681 -0.1637 -0.3576  0.3274
18063THY     HO32340   5.924   7.921   1.676  0.9265 -3.1388 -1.0860
18063THY    CA132341   5.914   7.739   1.685  0.6796 -0.2779 -1.0106
18063THY    CA232342   5.844   7.623   1.721  0.1414 -0.1567  0.7761
18063THY    CP132343   5.694   7.632   1.769 -0.0779 -0.9383  0.9680
18063THY    HP132344   5.654   7.734   1.765  0.2354 -1.0876  1.0860
18063THY    CP232345   5.667   7.585   1.917  1.0371  0.1237 -0.6334
18063THY    HP232346   5.706   7.484   1.934  1.4319 -0.1241 -0.5241
18063THY    HP332347   5.558   7.584   1.931  1.0401  0.2019 -1.7507
18063THY    HP432348   5.721   7.645   1.990  1.4720 -0.8437  0.1870
18063THY    CP332349   5.614   7.542   1.675 -0.7695  0.5321 -0.0383
18063THY    HP532350   5.661   7.444   1.664  0.9703  2.7075  0.4653
18063THY    HP632351   5.634   7.595   1.580 -1.7157  0.2719 -0.1329
18063THY    HP732352   5.505   7.543   1.682 -0.7237  1.5156 -0.6920
18063THY    CA332353   5.914   7.499   1.723 -0.6563 -0.0135 -0.0102
18063THY    HA332354   5.870   7.404   1.750 -0.8375 -0.0271  0.0699
18063THY    CA432355   6.047   7.495   1.693 -0.4084  0.3334  1.5299
18063THY    HA432356   6.104   7.403   1.703  1.3220 -2.5852  2.1278
18063THY    CA532357   6.116   7.608   1.659  0.2165  0.4672 -0.0237
18063THY    CM132358   6.258   7.604   1.617 -1.0432  0.0042  0.6275
18063THY    HM132359   6.334   7.658   1.675  0.1290 -0.0529 -0.9094
18063THY    HM232360   6.265   7.644   1.515 -0.1961 -0.2493 -0.1514
18063THY    HM332361   6.299   7.503   1.620  2.5332 -0.5568  1.9112
18063THY    CA632362   6.042   7.731   1.651  0.1536  0.0143 -0.2618
18063THY    HA632363   6.097   7.823   1.634  0.9926  2.7689 -0.1570
18064THY      O32364   0.993   6.966   6.734 -0.1724  0.2376 -0.3137
18064THY     HO32365   0.976   6.973   6.829  0.1538  0.2577  0.3067
18064THY    CA132366   0.923   7.063   6.679 -0.0914 -0.2032 -0.6058
18064THY    CA232367   0.918   7.087   6.541  0.5735 -0.4619 -0.5213
18064THY    CP132368   1.005   6.998   6.448  0.6289  0.3299  0.0754
18064THY    HP132369   1.069   6.934   6.510  2.0842 -2.0606 -0.8947
18064THY    CP232370   1.102   7.079   6.362  0.8929  0.0367  0.0544
18064THY    HP232371   1.172   7.007   6.318 -1.4285 -1.0272 -1.6973
18064THY    HP332372   1.164   7.140   6.428  0.8813 -1.3319  1.6418
18064THY    HP432373   1.057   7.135   6.279  1.4498  0.8364  1.7308
18064THY    CP332374   0.922   6.906   6.362  0.2342  0.0049  0.0097
18064THY    HP532375   0.847   6.856   6.425  1.4002  0.7529 -0.8333
18064THY    HP632376   0.981   6.820   6.329  1.1784  0.9407  0.2765
18064THY    HP732377   0.864   6.953   6.282 -1.4747  0.8707 -0.5253
18064THY    CA332378   0.821   7.174   6.493  0.3822 -0.7002  0.0088
18064THY    HA332379   0.813   7.188   6.385 -0.6393 -0.7160 -0.5642
18064THY    CA432380   0.752   7.262   6.577  0.0657 -0.0859  0.8066
18064THY    HA432381   0.694   7.342   6.532  3.0267 -2.6875  1.7018
18064THY    CA532382   0.777   7.252   6.710 -0.1117  0.0705 -0.4825
18064THY    CM132383   0.716   7.345   6.810  0.1366  0.9851 -0.5616
18064THY    HM132384   0.722   7.447   6.770  1.7529  0.6028 -0.7656
18064THY    HM232385   0.760   7.341   6.910  3.4567 -0.3169 -0.4290
18064THY    HM332386   0.609   7.322   6.814 -0.1151 -0.2184  0.3440
18064THY    CA632387   0.868   7.154   6.766  0.9720 -0.4277  0.1971
18064THY    HA632388   0.873   7.148   6.875  0.6266 -0.2519  2.3679
18065THY      O32389   4.616   0.419   4.492 -0.8160 -0.3415  0.0230
18065THY     HO32390   4.568   0.504   4.492 -0.9483 -0.4424 -0.0496
18065THY    CA132391   4.597   0.347   4.605 -0.2033  0.2395  0.1953
18065THY    CA232392   4.671   0.234   4.640 -0.5642  0.3813  0.3296
18065THY    CP132393   4.779   0.181   4.544 -0.1900 -0.2001  0.1110
18065THY    HP132394   4.826   0.268   4.498 -1.7346 -1.9041  0.1053
18065THY    CP232395   4.721   0.086   4.441  0.1335 -0.2283  0.2332
18065THY    HP232396   4.793   0.024   4.387  1.5376  1.1698  0.5930
18065THY    HP332397   4.667   0.152   4.372  0.7118 -0.9308 -0.0025
18065THY    HP432398   4.649   0.018   4.488  0.7420  0.0146 -0.2555
18065THY    CP332399   4.892   0.108   4.611  0.1710 -0.5105 -0.4202
18065THY    HP532400   4.933   0.153   4.702  2.1199 -1.5290 -0.0440
18065THY    HP632401   4.981   0.102   4.547  1.7651  1.6495 -1.4112
18065THY    HP732402   4.862   0.005   4.634 -1.3777 -2.1902 -0.3899
18065THY    CA332403   4.649   0.185   4.773 -0.7156 -0.1830 -0.5920
18065THY    HA332404   4.718   0.110   4.813 -1.6254  0.0481 -1.3205
18065THY    CA432405   4.546   0.242   4.855 -0.1811  0.5064 -0.7946
18065THY    HA432406   4.532   0.208   4.957 -0.1985  0.2269 -1.6718
18065THY    CA532407   4.460   0.336   4.800 -0.9553  0.5611  0.3527
18065THY    CM132408   4.335   0.380   4.874 -0.0003  0.7091  0.7047
18065THY    HM132409   4.363   0.445   4.957 -1.7003  0.1488  2.2555
18065THY    HM232410   4.278   0.295   4.914 -0.0870 -1.4998 -0.3495
18065THY    HM332411   4.271   0.445   4.813  0.1936 -1.7649 -1.2457
18065THY    CA632412   4.492   0.399   4.681  0.2816  0.6822  0.4126
18065THY    HA632413   4.444   0.494   4.658  0.2235 -0.1729  0.1779
18066THY      O32414   7.781   6.222   2.223  0.6079 -0.5075 -0.0715
18066THY     HO32415   7.768   6.311   2.260  1.9108  1.6586 -0.7062
18066THY    CA132416   7.708   6.150   2.309  0.5749 -0.4144 -0.3582
18066THY    CA232417   7.717   6.009   2.318 -0.0004  0.3251  0.4710
18066THY    CP132418   7.808   5.930   2.222 -0.8927 -0.0114  0.1990
18066THY    HP132419   7.886   5.995   2.181 -0.4393  2.1989  1.1215
18066THY    CP232420   7.718   5.884   2.103  0.2461  0.4503 -0.6690
18066THY    HP232421   7.690   5.972   2.044 -0.0966  0.3131 -0.8705
18066THY    HP332422   7.626   5.847   2.150  0.3935  2.2360  1.0552
18066THY    HP432423   7.772   5.822   2.030 -0.7032 -1.7660  1.0075
18066THY    CP332424   7.876   5.812   2.290  0.3054 -0.1256 -0.3261
18066THY    HP532425   7.933   5.750   2.220 -1.1438  0.3606 -2.2959
18066THY    HP632426   7.812   5.731   2.326 -1.4493  0.1791  1.1278
18066THY    HP732427   7.954   5.845   2.360 -1.0510  3.3164 -3.6808
18066THY    CA332428   7.641   5.941   2.419 -0.2683  0.1819  0.3688
18066THY    HA332429   7.660   5.835   2.430 -1.2001 -0.4018  0.1333
18066THY    CA432430   7.567   6.010   2.508 -0.1769 -0.5252  0.3841
18066THY    HA432431   7.514   5.958   2.587  1.6578  2.0555  2.2140
18066THY    CA532432   7.554   6.144   2.487  0.0976 -0.5917  0.4429
18066THY    CM132433   7.463   6.214   2.582 -0.8507  0.4043 -0.1861
18066THY    HM132434   7.426   6.306   2.535  1.3722  0.2858  0.7163
18066THY    HM232435   7.516   6.226   2.677  0.5358 -0.3647 -0.0249
18066THY    HM332436   7.375   6.158   2.614 -2.1687  0.4432  1.8070
18066THY    CA632437   7.623   6.216   2.398 -0.4095  0.2500  0.3235
18066THY    HA632438   7.621   6.324   2.405  0.5938  0.4636  0.3412
18067THY      O32439   0.649   5.801   4.675 -0.2276 -0.1461 -0.6666
18067THY     HO32440   0.717   5.834   4.736 -1.8491 -0.4159  3.7850
18067THY    CA132441   0.538   5.787   4.748 -0.2063 -0.4382 -0.2166
18067THY    CA232442   0.427   5.692   4.720 -0.0261  0.2151  0.2597
18067THY    CP132443   0.436   5.608   4.587  0.1048 -0.2014 -0.3423
18067THY    HP132444   0.523   5.636   4.528 -1.3234 -1.6721  1.2464
18067THY    CP232445   0.314   5.622   4.500  0.4753 -0.3967  0.1190
18067THY    HP232446   0.298   5.728   4.478  1.2873 -0.1827  0.2906
18067THY    HP332447   0.217   5.589   4.539  1.1403  2.1772  1.0112
18067THY    HP432448   0.321   5.578   4.399  1.2081 -0.4203  0.2718
18067THY    CP332449   0.460   5.460   4.613 -0.2167 -0.6261 -0.0159
18067THY    HP532450   0.550   5.442   4.672  0.0453 -1.1264 -0.3748
18067THY    HP632451   0.477   5.407   4.518  1.5006 -0.1046 -0.4747
18067THY    HP732452   0.372   5.420   4.663 -0.2135 -0.2928  0.3919
18067THY    CA332453   0.324   5.672   4.814 -0.8178  0.1073  0.1050
18067THY    HA332454   0.251   5.594   4.796  0.1841 -1.3169 -0.5693
18067THY    CA432455   0.336   5.732   4.934 -0.1886  0.1842  1.1093
18067THY    HA432456   0.257   5.710   5.005  0.5205  1.3587  2.1597
18067THY    CA532457   0.423   5.829   4.967 -0.4555  0.5628  0.1965
18067THY    CM132458   0.438   5.879   5.106  0.6574 -0.9680 -0.4341
18067THY    HM132459   0.343   5.868   5.160  0.4173 -0.7848  1.9947
18067THY    HM232460   0.451   5.986   5.091 -0.3435  0.9948  0.0225
18067THY    HM332461   0.517   5.830   5.165 -0.6831  0.7555 -0.6392
18067THY    CA632462   0.534   5.852   4.877  0.0625  0.0774  0.2795
18067THY    HA632463   0.616   5.918   4.904  1.0354 -1.4839 -0.2245
18068THY      O32464   7.741   6.314   1.971 -0.6754 -0.0951  0.3600
18068THY     HO32465   7.767   6.252   2.042 -1.9763  0.5949  0.5545
18068THY    CA132466   7.781   6.245   1.861 -0.5790 -0.2630  0.5412
18068THY    CA232467   7.724   6.272   1.733  0.5501  0.2911  0.1880
18068THY    CP132468   7.613   6.382   1.730  0.6904  0.0142 -0.4855
18068THY    HP132469   7.561   6.365   1.825 -1.3128 -1.1077 -0.9293
18068THY    CP232470   7.503   6.371   1.625 -0.1107 -0.4083  0.9706
18068THY    HP232471   7.466   6.267   1.624 -0.3296  1.2760  1.0025
18068THY    HP332472   7.535   6.388   1.522 -1.6390 -1.5177 -2.1000
18068THY    HP432473   7.417   6.435   1.648 -0.8741 -0.6990  0.0809
18068THY    CP332474   7.666   6.525   1.730  0.3268 -0.3251 -0.2077
18068THY    HP532475   7.748   6.545   1.799 -0.3851  0.9598 -1.5205
18068THY    HP632476   7.580   6.583   1.766 -0.9856 -1.5800 -1.2957
18068THY    HP732477   7.684   6.566   1.630  0.5782 -0.1009  0.2348
18068THY    CA332478   7.771   6.190   1.624  0.2173  0.6910  0.5002
18068THY    HA332479   7.725   6.201   1.526  2.4003 -0.4132  0.2460
18068THY    CA432480   7.882   6.110   1.643 -0.4804 -0.2825 -0.2125
18068THY    HA432481   7.924   6.061   1.555 -0.6198 -0.6066  0.2482
18068THY    CA532482   7.939   6.094   1.772 -0.6253  0.1386  0.4633
18068THY    CM132483   8.072   6.012   1.774 -0.5200  0.2208  0.4326
18068THY    HM132484   8.139   6.046   1.855 -1.4380  1.5772 -0.8361
18068THY    HM232485   8.129   6.013   1.681  1.3607  1.3140  1.1426
18068THY    HM332486   8.037   5.910   1.794  1.7671 -3.2908 -1.2314
18068THY    CA632487   7.889   6.160   1.883 -0.5405 -0.0751 -0.5420
18068THY    HA632488   7.935   6.158   1.981  1.3678 -0.8764  0.8315
18069THY      O32489   4.518   8.977   5.906 -0.1317  0.1416 -0.0693
18069THY     HO32490   4.491   9.052   5.850 -1.3635  0.0247 -0.5867
18069THY    CA132491   4.645   8.937   5.885 -0.5765  0.4700 -0.3493
18069THY    CA232492   4.707   8.824   5.928  0.3839  0.4866  0.0804
18069THY    CP132493   4.616   8.710   5.972 -0.8647 -0.1574 -0.4805
18069THY    HP132494   4.513   8.743   5.954 -1.2191  1.1500 -0.8137
18069THY    CP232495   4.620   8.678   6.122 -0.1603  0.2302  0.2319
18069THY    HP232496   4.680   8.590   6.149 -2.8425 -0.4134 -1.9439
18069THY    HP332497   4.518   8.665   6.159 -0.0290  0.7762  0.7259
18069THY    HP432498   4.650   8.768   6.177 -1.4905  0.1886  0.7164
18069THY    CP332499   4.638   8.579   5.901  0.8199  0.1984  0.2652
18069THY    HP532500   4.553   8.513   5.919  0.2336 -2.0781  0.3330
18069THY    HP632501   4.731   8.526   5.926  2.0697 -0.7394  1.9353
18069THY    HP732502   4.644   8.601   5.794  2.2586  0.1761 -0.1199
18069THY    CA332503   4.849   8.810   5.908  0.2590  0.4425  0.3079
18069THY    HA332504   4.892   8.714   5.936  0.3104  1.3860  0.5926
18069THY    CA432505   4.934   8.903   5.839  0.5000  0.6830 -0.0952
18069THY    HA432506   5.041   8.892   5.831  0.4041  0.4774 -0.9270
18069THY    CA532507   4.861   9.020   5.796 -0.3094  0.0825  0.3056
18069THY    CM132508   4.937   9.134   5.731  0.2214  0.5290 -0.0881
18069THY    HM132509   4.880   9.142   5.638  2.5872 -1.0463 -0.7233
18069THY    HM232510   5.040   9.105   5.706  0.3177  0.2260  0.5131
18069THY    HM332511   4.935   9.233   5.778  1.0211 -1.2905  0.8373
18069THY    CA632512   4.731   9.038   5.825  0.4298 -0.2556 -0.0701
18069THY    HA632513   4.685   9.135   5.811  0.9560 -1.1043  0.0560
18070THY      O32514   4.817   5.010   6.233 -0.1240 -0.0054  0.3991
18070THY     HO32515   4.763   4.940   6.192  2.4722 -0.4012 -1.5504
18070THY    CA132516   4.899   4.925   6.298  0.4011  0.9948 -0.1411
18070THY    CA232517   4.990   4.968   6.396 -0.0968  0.0751 -0.1063
18070THY    CP132518   5.006   5.120   6.422  0.3461 -0.4026  0.2137
18070THY    HP132519   4.984   5.174   6.329 -0.1407 -3.0190 -4.0089
18070THY    CP232520   5.143   5.167   6.459  0.3683 -0.2025 -0.6098
18070THY    HP232521   5.147   5.276   6.469 -1.1602  0.2829 -0.5788
18070THY    HP332522   5.220   5.139   6.386  1.6519  0.7648  0.2927
18070THY    HP432523   5.187   5.130   6.553  1.0379  0.7948  2.4157
18070THY    CP332524   4.902   5.162   6.524  0.0373 -0.1500  0.5472
18070THY    HP532525   4.801   5.132   6.496  0.8011 -0.7089 -1.7678
18070THY    HP632526   4.902   5.270   6.537 -0.3976  0.9945  0.4307
18070THY    HP732527   4.917   5.115   6.622  2.3077 -0.6015  0.1900
18070THY    CA332528   5.073   4.869   6.451 -0.2276 -0.1063 -0.8845
18070THY    HA332529   5.155   4.898   6.517  0.1102  0.5002 -3.0051
18070THY    CA432530   5.060   4.736   6.402  0.3283  0.1159 -0.3712
18070THY    HA432531   5.131   4.664   6.442  0.5178  0.5934  0.0712
18070THY    CA532532   4.966   4.698   6.303 -0.6122 -0.1864 -0.5111
18070THY    CM132533   4.969   4.550   6.254 -1.0010  0.0943  0.3873
18070THY    HM132534   4.878   4.497   6.284 -0.7171 -0.2239 -0.2857
18070THY    HM232535   5.058   4.492   6.279 -0.5615 -1.5649  0.2901
18070THY    HM332536   4.973   4.547   6.144  3.2991  0.1087  0.5950
18070THY    CA632537   4.884   4.795   6.247 -0.3368 -0.2278  0.7158
18070THY    HA632538   4.816   4.775   6.165  0.6465 -1.3156  1.7349
18071THY      O32539   7.751   7.720   3.461 -0.0717 -0.2204  0.0524
18071THY     HO32540   7.817   7.656   3.432  0.7838 -0.2335  0.9149
18071THY    CA132541   7.631   7.666   3.443  0.8887 -0.0161  0.5334
18071THY    CA232542   7.503   7.735   3.472  0.2050  0.4562 -0.4372
18071THY    CP132543   7.503   7.879   3.504  0.0533  0.9032 -0.2173
18071THY    HP132544   7.604   7.908   3.535  1.0546 -1.5451 -0.8426
18071THY    CP232545   7.416   7.918   3.621  0.5016 -0.1781  0.2093
18071THY    HP232546   7.445   8.022   3.639  0.6978 -0.1368  0.1483
18071THY    HP332547   7.434   7.849   3.704 -0.5517 -0.4558 -0.4269
18071THY    HP432548   7.311   7.914   3.589  0.8790 -1.4659 -0.1143
18071THY    CP332549   7.463   7.966   3.383 -0.3130  0.3786  0.1992
18071THY    HP532550   7.459   8.073   3.407  0.8236 -0.7802  0.5318
18071THY    HP632551   7.369   7.930   3.341 -0.3141 -0.2410  0.9007
18071THY    HP732552   7.542   7.959   3.307 -0.8761 -0.1587 -0.3072
18071THY    CA332553   7.383   7.661   3.464 -0.4934 -0.1129  0.1395
18071THY    HA332554   7.289   7.712   3.483 -1.0411 -0.2271 -0.8202
18071THY    CA432555   7.393   7.534   3.414  0.7863 -0.1297 -0.1805
18071THY    HA432556   7.300   7.479   3.414 -1.3379 -2.7157  3.0513
18071THY    CA532557   7.511   7.472   3.372  0.7531  0.2669  0.5673
18071THY    CM132558   7.508   7.320   3.350  0.4566  0.0243  0.0411
18071THY    HM132559   7.598   7.268   3.385  0.4305 -0.5218 -0.3817
18071THY    HM232560   7.497   7.299   3.243  1.0420  0.2920 -1.7926
18071THY    HM332561   7.416   7.269   3.381  1.4044  0.2232 -1.6211
18071THY    CA632562   7.637   7.534   3.404 -0.6923  0.3773  0.1054
18071THY    HA632563   7.730   7.481   3.385 -1.4471 -1.1543 -0.7694
18072THY      O32564   3.835   4.125   7.115  0.4008 -0.0177  0.1906
18072THY     HO32565   3.803   4.154   7.203 -0.7158 -0.6111  0.8527
18072THY    CA132566   3.788   4.223   7.034 -1.6670  0.4408  0.2767
18072THY    CA232567   3.730   4.193   6.906 -0.0700  0.0422  0.0850
18072THY    CP132568   3.714   4.049   6.862 -0.2823 -0.3759  0.5971
18072THY    HP132569   3.718   3.981   6.948 -1.4067 -1.8164 -1.4031
18072THY    CP232570   3.827   4.000   6.771 -0.2178 -0.5786  0.1187
18072THY    HP232571   3.804   4.029   6.668 -1.4841 -0.2384  0.4246
18072THY    HP332572   3.843   3.893   6.783  2.3903 -0.1784  0.4743
18072THY    HP432573   3.924   4.038   6.806 -1.0824  1.8255  0.2683
18072THY    CP332574   3.575   4.014   6.795 -0.1619  0.5009  0.1288
18072THY    HP532575   3.567   4.075   6.704 -1.2383 -0.3787 -1.2661
18072THY    HP632576   3.484   4.019   6.856 -0.0487  0.7538 -0.8032
18072THY    HP732577   3.572   3.910   6.761 -5.8826  1.4774 -0.3536
18072THY    CA332578   3.682   4.299   6.819  0.7525  0.1557  0.2335
18072THY    HA332579   3.634   4.277   6.724  0.2369 -0.0179  1.9742
18072THY    CA432580   3.698   4.430   6.875 -0.6809  0.4032  0.0938
18072THY    HA432581   3.660   4.520   6.827 -0.2050  0.3502  0.2721
18072THY    CA532582   3.740   4.456   7.004 -0.5719 -0.2857 -0.3828
18072THY    CM132583   3.745   4.594   7.057  0.7008  0.4353 -0.6798
18072THY    HM132584   3.702   4.674   6.995 -0.7813  1.9705 -0.2181
18072THY    HM232585   3.848   4.615   7.088  0.1750  1.5938  0.2922
18072THY    HM332586   3.693   4.589   7.153  0.8746  0.8040  2.8134
18072THY    CA632587   3.796   4.352   7.080  0.3121 -0.1185  0.1452
18072THY    HA632588   3.834   4.363   7.182  0.7732 -0.0695 -1.5208
18073THY      O32589   0.888   6.887   7.218  0.3220 -0.1312 -0.1062
18073THY     HO32590   0.818   6.821   7.231 -0.3820  0.9581  0.8283
18073THY    CA132591   0.895   6.961   7.333  0.5931 -0.1027  0.9402
18073THY    CA232592   0.919   7.098   7.343 -0.3705 -0.0455  0.1091
18073THY    CP132593   0.933   7.182   7.213  0.0323  0.4137 -0.2819
18073THY    HP132594   0.895   7.118   7.132  0.2061  1.0366 -1.1882
18073THY    CP232595   1.089   7.205   7.189  0.1529  0.2814  0.3456
18073THY    HP232596   1.141   7.272   7.258  1.5726  0.4230 -0.8535
18073THY    HP332597   1.110   7.230   7.085 -0.7160 -0.6391 -2.4008
18073THY    HP432598   1.139   7.108   7.186 -0.7501 -1.1606 -0.1061
18073THY    CP332599   0.862   7.315   7.202  0.1585  0.3113  0.6424
18073THY    HP532600   0.896   7.380   7.121 -3.9184 -3.1023 -1.0463
18073THY    HP632601   0.872   7.374   7.294  2.1411  0.6660 -0.1431
18073THY    HP732602   0.755   7.302   7.183  0.4381 -1.0649  0.2476
18073THY    CA332603   0.919   7.157   7.472  0.4982 -0.6969 -0.1465
18073THY    HA332604   0.935   7.264   7.482 -2.5424 -0.1374  0.3526
18073THY    CA432605   0.909   7.082   7.588  0.2437 -0.6327 -0.2272
18073THY    HA432606   0.883   7.119   7.686 -2.1958 -0.6456 -1.6521
18073THY    CA532607   0.905   6.942   7.569 -0.0058 -0.9978 -0.0578
18073THY    CM132608   0.918   6.840   7.680  0.6750  0.3785  0.7616
18073THY    HM132609   0.820   6.819   7.723  0.0943 -1.7332 -1.3090
18073THY    HM232610   0.979   6.883   7.760 -0.8440  1.4667  0.9520
18073THY    HM332611   0.969   6.746   7.655  0.4354 -0.1155  0.7567
18073THY    CA632612   0.891   6.881   7.448 -0.5552  0.5679  0.7928
18073THY    HA632613   0.873   6.775   7.433 -1.8364  0.1877  1.0492
18074THY      O32614   8.692   6.160   6.914  0.0149  0.5377 -0.1526
18074THY     HO32615   8.734   6.166   6.826  0.0358  0.5882  0.5401
18074THY    CA132616   8.562   6.131   6.886 -0.2836 -0.2497 -0.1796
18074THY    CA232617   8.473   6.115   6.996 -0.2429 -0.3741  0.0660
18074THY    CP132618   8.531   6.116   7.144  0.3322  0.1363  0.4326
18074THY    HP132619   8.626   6.170   7.155  2.1556  1.4373 -2.7422
18074THY    CP232620   8.554   5.975   7.190  0.5011  0.4631  0.3851
18074THY    HP232621   8.607   5.964   7.285  0.2632  0.7436  1.5153
18074THY    HP332622   8.606   5.934   7.103  0.6699  1.2875 -1.2165
18074THY    HP432623   8.458   5.926   7.207  0.4362 -2.0164 -0.4748
18074THY    CP332624   8.432   6.190   7.237 -0.4646 -0.6535  0.3859
18074THY    HP532625   8.475   6.201   7.337 -0.8782 -0.4317  0.0245
18074THY    HP632626   8.340   6.135   7.258  0.0207  2.0079  0.4511
18074THY    HP732627   8.409   6.289   7.197 -1.6424  1.2649  0.9442
18074THY    CA332628   8.339   6.097   6.970 -0.0239  0.4534 -0.3921
18074THY    HA332629   8.278   6.074   7.057 -1.3151 -0.6949 -1.5131
18074THY    CA432630   8.289   6.112   6.838 -0.7354  0.1191  0.2103
18074THY    HA432631   8.187   6.086   6.813 -0.9832 -0.4412  1.6509
18074THY    CA532632   8.374   6.125   6.732 -0.2881  0.7265 -0.1019
18074THY    CM132633   8.327   6.123   6.590  0.4551  0.1116 -0.6109
18074THY    HM132634   8.379   6.199   6.530  2.0923  2.5723  0.3498
18074THY    HM232635   8.220   6.149   6.588  0.1902  1.6057 -1.4892
18074THY    HM332636   8.342   6.029   6.537  0.6829  1.0241 -1.0985
18074THY    CA632637   8.517   6.137   6.757  0.8559 -0.8680  0.3172
18074THY    HA632638   8.584   6.160   6.675  0.5181 -0.4282  3.2538
18075THY      O32639   8.173   8.577   4.895 -0.3050  0.6643 -0.1578
18075THY     HO32640   8.090   8.544   4.856 -0.0142 -0.8032  0.7203
18075THY    CA132641   8.143   8.692   4.957 -0.1102  0.4379  0.5284
18075THY    CA232642   8.240   8.783   5.012  0.3895  0.0539  0.5599
18075THY    CP132643   8.394   8.754   4.990 -0.4495 -0.1330  0.0672
18075THY    HP132644   8.414   8.676   4.915  3.0819  2.1056 -1.4125
18075THY    CP232645   8.472   8.704   5.109 -0.5666  0.3356  0.2905
18075THY    HP232646   8.571   8.662   5.087 -0.6294 -0.2061  0.4311
18075THY    HP332647   8.422   8.620   5.160 -0.4912 -1.9594 -1.2277
18075THY    HP432648   8.495   8.775   5.189 -0.4947 -0.4646  1.1675
18075THY    CP332649   8.462   8.881   4.942  0.7227  0.3047  0.4169
18075THY    HP532650   8.463   8.957   5.020 -1.4434  0.6705  0.1508
18075THY    HP632651   8.412   8.918   4.852  0.8030  0.6846  1.4592
18075THY    HP732652   8.562   8.858   4.905 -0.3524 -1.6257 -1.6225
18075THY    CA332653   8.190   8.897   5.085 -0.1380 -0.2412  0.1470
18075THY    HA332654   8.262   8.967   5.125  1.7433 -0.6933 -1.4239
18075THY    CA432655   8.052   8.918   5.099  0.7368 -0.8533  0.0637
18075THY    HA432656   8.020   9.010   5.147  0.7639 -0.3774 -0.1734
18075THY    CA532657   7.958   8.831   5.046 -0.2561  0.4255  0.3374
18075THY    CM132658   7.815   8.872   5.043  0.6824 -0.7173 -0.0167
18075THY    HM132659   7.789   8.947   5.119  1.1429 -1.1129  0.5488
18075THY    HM232660   7.747   8.787   5.053 -0.3200 -2.0882  0.5948
18075THY    HM332661   7.797   8.916   4.945  1.7803 -1.4439 -1.1119
18075THY    CA632662   8.007   8.720   4.974 -0.1200  0.0289  0.0685
18075THY    HA632663   7.936   8.651   4.932  0.6714 -1.1246 -0.0706
18076THY      O32664   8.057   5.522   6.405 -0.0132 -0.1115 -0.1598
18076THY     HO32665   8.069   5.598   6.464 -1.0565 -1.3230  1.0029
18076THY    CA132666   7.954   5.451   6.452  0.2911  0.2263 -0.8690
18076THY    CA232667   7.882   5.366   6.374 -0.5023 -0.5698 -0.0483
18076THY    CP132668   7.920   5.346   6.225 -0.1358 -0.0968 -0.2738
18076THY    HP132669   7.995   5.421   6.197  1.0547  2.2843 -0.4572
18076THY    CP232670   7.808   5.371   6.131  0.1097 -0.4978 -0.0511
18076THY    HP232671   7.722   5.312   6.164 -1.3640 -2.0883  1.1278
18076THY    HP332672   7.829   5.349   6.026 -1.3730 -0.9585  0.6106
18076THY    HP432673   7.783   5.476   6.147 -1.5445 -0.5698 -0.4042
18076THY    CP332674   7.976   5.208   6.205  0.5804 -0.6419 -0.6139
18076THY    HP532675   8.071   5.205   6.261  0.2670  0.2013  2.3055
18076THY    HP632676   7.973   5.180   6.099 -3.5452 -0.5536 -1.0395
18076THY    HP732677   7.910   5.139   6.259  0.2191 -1.5834 -1.0251
18076THY    CA332678   7.774   5.295   6.441  0.1009  0.3468 -1.1483
18076THY    HA332679   7.711   5.220   6.393 -2.2788  2.1591 -0.4246
18076THY    CA432680   7.745   5.327   6.582 -0.4275  0.4981 -0.0249
18076THY    HA432681   7.676   5.265   6.639 -0.0307 -0.0190 -0.9657
18076THY    CA532682   7.813   5.426   6.650 -0.3185 -0.3287  0.0691
18076THY    CM132683   7.790   5.440   6.794  0.0130 -0.0070  0.3938
18076THY    HM132684   7.694   5.477   6.833  0.2476 -0.1532  1.1866
18076THY    HM232685   7.865   5.510   6.833 -1.6697 -1.1239  2.9764
18076THY    HM332686   7.808   5.343   6.841 -2.0175 -1.9389 -1.0171
18076THY    CA632687   7.924   5.481   6.584  0.3591 -0.8420  0.9741
18076THY    HA632688   7.998   5.532   6.644  0.6140  0.8922 -1.2625
18077THY      O32689   3.900   6.086   5.396 -0.1909 -0.1122 -0.0937
18077THY     HO32690   3.995   6.069   5.382  0.3430 -1.1507  3.0461
18077THY    CA132691   3.884   6.196   5.315  0.0637 -0.2380  0.3999
18077THY    CA232692   3.759   6.229   5.262 -0.4272 -0.0898  0.0391
18077THY    CP132693   3.646   6.133   5.289 -0.1403  0.2594 -0.0757
18077THY    HP132694   3.669   6.040   5.342 -2.3191  0.1321 -0.7489
18077THY    CP232695   3.580   6.085   5.162 -0.4937 -0.6148 -0.3863
18077THY    HP232696   3.651   6.070   5.080  1.0771  0.8838 -1.4265
18077THY    HP332697   3.497   6.143   5.120 -0.1506 -1.2024 -0.3072
18077THY    HP432698   3.543   5.984   5.179  0.6890  1.4911 -0.5102
18077THY    CP332699   3.540   6.204   5.374  0.0612 -0.0526 -0.4710
18077THY    HP532700   3.587   6.241   5.466 -0.5160 -0.2407  0.7828
18077THY    HP632701   3.470   6.136   5.422 -0.6481 -0.5691 -0.1145
18077THY    HP732702   3.487   6.290   5.331  1.0571  0.5318  0.4590
18077THY    CA332703   3.740   6.339   5.166 -0.4107 -1.0943  0.5824
18077THY    HA332704   3.642   6.355   5.124 -0.6561 -0.3865  0.9856
18077THY    CA432705   3.854   6.410   5.138 -0.2675 -0.2425  0.6208
18077THY    HA432706   3.855   6.488   5.063 -0.5458 -0.9822 -0.0718
18077THY    CA532707   3.980   6.378   5.202  0.2495  0.1859  0.3168
18077THY    CM132708   4.105   6.449   5.163  0.2531 -0.2266  0.8072
18077THY    HM132709   4.090   6.523   5.084  1.4310  0.4049  1.7644
18077THY    HM232710   4.177   6.380   5.119  0.7516 -0.5706  1.5287
18077THY    HM332711   4.155   6.502   5.246  1.4985 -0.2806 -0.2456
18077THY    CA632712   3.997   6.262   5.282 -0.0115 -0.0706 -0.4850
18077THY    HA632713   4.095   6.245   5.325  0.6229 -0.2654  2.1731
18078THY      O32714   5.776   2.034   3.926  0.0658  0.0226 -0.0203
18078THY     HO32715   5.775   2.124   3.890 -5.0407 -0.0661  0.1716
18078THY    CA132716   5.695   2.044   4.039  0.4339  0.1155 -0.4084
18078THY    CA232717   5.600   1.947   4.073 -0.1171  0.1055  0.2839
18078THY    CP132718   5.579   1.825   3.989  0.0934 -0.9057  0.3038
18078THY    HP132719   5.645   1.830   3.902  1.2900 -0.0404  0.1838
18078THY    CP232720   5.434   1.821   3.945 -0.0481 -0.2541  0.4779
18078THY    HP232721   5.414   1.740   3.874 -1.2731  0.0505  0.4970
18078THY    HP332722   5.417   1.912   3.885 -3.6137  1.9009  1.4510
18078THY    HP432723   5.365   1.843   4.027 -0.2978 -0.5265  0.7183
18078THY    CP332724   5.621   1.703   4.076  0.2115 -0.3946 -0.0214
18078THY    HP532725   5.626   1.617   4.009 -1.3357 -2.9281  1.7188
18078THY    HP632726   5.560   1.687   4.166 -0.3061 -0.4372  1.5252
18078THY    HP732727   5.725   1.722   4.103  0.5425 -2.3943  1.2969
18078THY    CA332728   5.528   1.967   4.192  0.1320 -0.0232 -0.3618
18078THY    HA332729   5.461   1.887   4.222  1.5222 -0.8590 -1.8816
18078THY    CA432730   5.547   2.086   4.274  0.1375  0.0215 -0.2900
18078THY    HA432731   5.498   2.097   4.370  3.8260  2.1424 -0.6639
18078THY    CA532732   5.645   2.183   4.242  0.2463 -0.3118  0.4693
18078THY    CM132733   5.669   2.303   4.330  0.5191 -0.4692  0.5293
18078THY    HM132734   5.740   2.360   4.269  0.7198 -0.7659 -0.0317
18078THY    HM232735   5.704   2.281   4.431  2.6276 -1.3706 -0.5861
18078THY    HM332736   5.579   2.365   4.332  0.8582 -0.4434  1.0253
18078THY    CA632737   5.718   2.164   4.119  0.4395 -0.0169 -0.1941
18078THY    HA632738   5.786   2.242   4.088 -1.9310 -2.3231  1.1291
18079THY      O32739   2.627   7.610   4.606  0.0062 -0.5426 -0.5022
18079THY     HO32740   2.625   7.582   4.700  1.8026  0.5371  2.4666
18079THY    CA132741   2.586   7.735   4.621  0.9096  0.2164  0.4170
18079THY    CA232742   2.536   7.804   4.510  0.1252  0.2231  0.4272
18079THY    CP132743   2.529   7.741   4.372  0.2881 -0.6793  0.0182
18079THY    HP132744   2.507   7.634   4.383 -0.8353 -1.1395  0.1958
18079THY    CP232745   2.669   7.745   4.297 -0.0329  1.0365 -0.6631
18079THY    HP232746   2.759   7.717   4.353  3.0152 -2.2682  1.6488
18079THY    HP332747   2.703   7.838   4.250  1.4018  1.0297 -1.1640
18079THY    HP432748   2.674   7.663   4.225  1.3933  1.9621 -1.4279
18079THY    CP332749   2.421   7.813   4.290 -0.4141  0.5073  0.9472
18079THY    HP532750   2.390   7.751   4.205 -0.6710  0.3755  1.2477
18079THY    HP632751   2.454   7.911   4.254  0.5451  1.1172  0.8603
18079THY    HP732752   2.328   7.819   4.348  0.9030  2.5501  2.7905
18079THY    CA332753   2.479   7.926   4.541  0.3783  0.1133 -0.1950
18079THY    HA332754   2.426   7.983   4.466 -1.0223 -0.4398 -2.1207
18079THY    CA432755   2.488   7.979   4.672  0.2341  0.7153  0.5763
18079THY    HA432756   2.457   8.082   4.685 -0.2975  0.1733  0.4933
18079THY    CA532757   2.546   7.909   4.774  0.1040  0.1253  0.0724
18079THY    CM132758   2.552   7.968   4.914 -0.3202 -0.3071  0.1699
18079THY    HM132759   2.490   7.908   4.981  1.3192 -0.4707 -1.7926
18079THY    HM232760   2.512   8.070   4.916  1.9115 -0.1752  1.1037
18079THY    HM332761   2.650   7.960   4.964 -0.8769  0.9645  0.8917
18079THY    CA632762   2.581   7.783   4.753  0.0468 -0.1112 -0.2132
18079THY    HA632763   2.635   7.733   4.833  1.2691  0.9824  2.6527
18080THY      O32764   2.774   0.731   5.866  0.1381 -0.0885  0.4069
18080THY     HO32765   2.845   0.714   5.930  0.3889 -0.4412  0.0783
18080THY    CA132766   2.684   0.626   5.869 -0.2099 -0.6842 -0.3114
18080THY    CA232767   2.662   0.549   5.748  0.3601  0.0013  0.3728
18080THY    CP132768   2.733   0.585   5.617 -0.4916  0.8715 -1.3181
18080THY    HP132769   2.813   0.655   5.646 -1.3603  2.8798 -1.1001
18080THY    CP232770   2.637   0.678   5.525  0.1105  0.1986 -0.0258
18080THY    HP232771   2.608   0.762   5.589  2.2142 -0.3088  1.1549
18080THY    HP332772   2.554   0.613   5.494  0.6960  1.2452 -1.3255
18080THY    HP432773   2.681   0.721   5.434 -0.3171 -0.2131 -0.4422
18080THY    CP332774   2.788   0.464   5.549 -0.3080 -0.3583  0.0740
18080THY    HP532775   2.827   0.476   5.448 -2.6230 -1.6373 -2.1901
18080THY    HP632776   2.710   0.395   5.515  1.5083 -0.5985 -1.9820
18080THY    HP732777   2.859   0.413   5.615 -0.2987  0.6909  1.3824
18080THY    CA332778   2.569   0.442   5.752  0.1432  0.3851  0.0640
18080THY    HA332779   2.537   0.383   5.667 -0.0409  0.7997 -0.4514
18080THY    CA432780   2.513   0.405   5.876 -0.6044 -0.5095  0.0414
18080THY    HA432781   2.443   0.323   5.886 -1.1477  1.0504  0.6504
18080THY    CA532782   2.563   0.467   5.994 -1.2864 -0.1147  0.5498
18080THY    CM132783   2.518   0.417   6.131 -0.3785 -0.6765 -0.0940
18080THY    HM132784   2.461   0.497   6.179  0.1298  2.6737 -1.5955
18080THY    HM232785   2.593   0.394   6.207  0.7642 -1.0120  2.2351
18080THY    HM332786   2.457   0.327   6.119 -2.6640  1.0799  1.1418
18080THY    CA632787   2.640   0.584   5.987 -0.5381 -0.5222 -0.7827
18080THY    HA632788   2.662   0.636   6.079 -2.4947 -1.6343  2.2300
18081THY      O32789   5.650   6.377   4.722  0.2214 -0.7226 -0.4118
18081THY     HO32790   5.662   6.393   4.817  2.1715 -1.4799  4.0727
18081THY    CA132791   5.519   6.332   4.711 -0.4147  0.5842  0.1073
18081THY    CA232792   5.473   6.254   4.603 -0.0133 -0.6052  0.0497
18081THY    CP132793   5.562   6.217   4.492 -0.1010  0.0540 -0.0951
18081THY    HP132794   5.639   6.295   4.487 -0.5215 -1.1673  0.2746
18081THY    CP232795   5.494   6.184   4.352  0.4264 -0.2452  0.7111
18081THY    HP232796   5.577   6.155   4.286  0.2690 -0.1081 -0.0521
18081THY    HP332797   5.441   6.273   4.314 -0.8743 -1.5261 -0.5654
18081THY    HP432798   5.418   6.107   4.362  0.1757  0.3108  1.0279
18081THY    CP332799   5.638   6.087   4.532 -0.4800 -0.1267 -0.1921
18081THY    HP532800   5.670   6.099   4.636  1.8526 -0.6708 -1.1331
18081THY    HP632801   5.724   6.067   4.467 -1.3149 -1.3551  0.1045
18081THY    HP732802   5.571   6.002   4.521  0.7708 -2.2808 -0.9759
18081THY    CA332803   5.337   6.206   4.614 -0.1135  0.2651 -0.2372
18081THY    HA332804   5.294   6.130   4.550  1.7931  2.3627 -3.2747
18081THY    CA432805   5.258   6.225   4.731 -0.7247  0.2633 -0.0392
18081THY    HA432806   5.165   6.172   4.748 -0.7838 -1.4775 -0.5324
18081THY    CA532807   5.304   6.317   4.829  0.1622  0.6322 -0.2973
18081THY    CM132808   5.214   6.373   4.935  0.1538  0.4116 -0.0505
18081THY    HM132809   5.108   6.349   4.921  0.0944 -0.4607  0.6904
18081THY    HM232810   5.220   6.482   4.941  0.2723 -1.2977  0.0588
18081THY    HM332811   5.250   6.341   5.034  2.4886 -0.9717 -2.0547
18081THY    CA632812   5.434   6.369   4.812 -0.1873 -0.6482 -0.3993
18081THY    HA632813   5.480   6.437   4.883 -1.1111 -1.2240  0.8567
18082THY      O32814   7.019   2.029   1.613  0.2844 -0.5626 -0.0332
18082THY     HO32815   6.947   2.014   1.549  1.0856 -0.8788 -3.3688
18082THY    CA132816   7.008   1.951   1.724  0.0813 -0.4594 -0.0001
18082THY    CA232817   7.058   1.989   1.855 -0.2969 -0.5876 -0.8724
18082THY    CP132818   7.127   2.128   1.871 -0.5391  0.9159  0.4785
18082THY    HP132819   7.136   2.175   1.772 -1.8821  0.4002 -0.3187
18082THY    CP232820   7.272   2.111   1.913 -0.4022 -0.4532  0.3915
18082THY    HP232821   7.289   2.045   1.999  1.6416 -1.9769 -1.2281
18082THY    HP332822   7.328   2.204   1.920 -0.4247  1.4035  0.3039
18082THY    HP432823   7.333   2.053   1.843  3.0197  1.1125  1.8525
18082THY    CP332824   7.041   2.217   1.955  0.0992  0.1723 -0.8616
18082THY    HP532825   7.007   2.166   2.046  0.7646  0.1483 -1.3672
18082THY    HP632826   6.949   2.237   1.900 -0.3722  1.4982  0.9631
18082THY    HP732827   7.077   2.316   1.986 -2.2306 -2.1181  0.8248
18082THY    CA332828   7.050   1.892   1.962  0.1493 -0.4140  0.3371
18082THY    HA332829   7.106   1.904   2.054  0.6039  0.0858 -3.8903
18082THY    CA432830   6.990   1.765   1.940 -0.3124 -0.1637  0.8735
18082THY    HA432831   6.976   1.689   2.016 -0.9303 -0.9674  0.1601
18082THY    CA532832   6.941   1.732   1.809  0.3255  0.2543  0.3834
18082THY    CM132833   6.877   1.593   1.793  0.1539  0.1520 -0.8038
18082THY    HM132834   6.928   1.506   1.834  1.1810 -1.7028 -1.1380
18082THY    HM232835   6.856   1.571   1.687  0.3666 -0.4597  1.5794
18082THY    HM332836   6.783   1.605   1.848  0.6848  0.5744  2.1446
18082THY    CA632837   6.945   1.828   1.709  0.3391 -0.4090 -0.9200
18082THY    HA632838   6.886   1.800   1.623 -0.7421 -0.2334  0.6473
18083THY      O32839   1.123   1.026   6.440  0.2295 -0.5033 -0.3524
18083THY     HO32840   1.188   1.096   6.458 -0.0109 -2.2880  0.3704
18083THY    CA132841   1.186   0.906   6.453 -0.0431 -0.4608 -0.3168
18083THY    CA232842   1.119   0.782   6.470 -0.1328  0.4708  1.0389
18083THY    CP132843   0.971   0.774   6.482  0.0641  0.1891  0.1022
18083THY    HP132844   0.909   0.862   6.458 -0.8132  2.1946  0.0957
18083THY    CP232845   0.918   0.718   6.619 -0.2366 -0.0210 -0.2560
18083THY    HP232846   0.946   0.612   6.622  0.4667  0.3642 -0.0630
18083THY    HP332847   0.812   0.741   6.634 -0.4433  3.1722 -2.6385
18083THY    HP432848   0.970   0.768   6.701  0.9898 -1.8579  1.6340
18083THY    CP332849   0.918   0.665   6.388 -0.4061 -0.5610 -0.1537
18083THY    HP532850   0.813   0.677   6.360 -0.7289  0.4849 -0.4343
18083THY    HP632851   0.936   0.560   6.414 -0.3431 -1.5890 -0.4059
18083THY    HP732852   0.958   0.691   6.289  1.1105 -0.4432 -1.8528
18083THY    CA332853   1.200   0.664   6.466 -0.0001  0.3947 -0.1561
18083THY    HA332854   1.157   0.565   6.482 -0.3553  1.0590  0.0987
18083THY    CA432855   1.334   0.675   6.442  0.0437  0.8602  0.4841
18083THY    HA432856   1.390   0.582   6.449  1.8465 -0.3419  1.4267
18083THY    CA532857   1.396   0.799   6.428 -0.0959 -0.2169  0.2259
18083THY    CM132858   1.543   0.816   6.409 -0.2436 -0.5228  0.0624
18083THY    HM132859   1.594   0.834   6.504 -1.1182 -0.1459  0.6087
18083THY    HM232860   1.567   0.888   6.330  1.4767  1.1886  1.4747
18083THY    HM332861   1.586   0.727   6.361  3.1001  0.9417  0.7387
18083THY    CA632862   1.321   0.915   6.434  0.5523  0.2307 -0.3341
18083THY    HA632863   1.363   1.015   6.430 -0.1783  0.0012 -0.0330
18084THY      O32864   8.060   3.146   2.457 -0.4943  0.2355  0.2897
18084THY     HO32865   8.028   3.165   2.367  0.4008 -0.4385 -1.2230
18084THY    CA132866   7.959   3.072   2.509  0.1440  0.4411 -0.2923
18084THY    CA232867   7.978   2.957   2.584 -0.6535  0.4823 -0.2351
18084THY    CP132868   8.116   2.903   2.607 -0.8015  0.5298 -0.4542
18084THY    HP132869   8.189   2.937   2.532 -0.3308  1.2237  0.0947
18084THY    CP232870   8.123   2.751   2.587 -0.1639  0.3741  0.0530
18084THY    HP232871   8.067   2.689   2.659 -1.8638 -0.3104  0.7382
18084THY    HP332872   8.226   2.713   2.582 -0.2521  2.3525 -0.5539
18084THY    HP432873   8.064   2.731   2.497  0.1026  0.1781  0.1327
18084THY    CP332874   8.160   2.929   2.751  0.7087 -0.1364 -0.2638
18084THY    HP532875   8.148   3.036   2.772  2.0967 -3.1419  0.5867
18084THY    HP632876   8.262   2.898   2.777 -0.0002  1.3233 -1.5338
18084THY    HP732877   8.100   2.874   2.824  1.2170  1.2386  0.9332
18084THY    CA332878   7.863   2.898   2.634  0.0405 -0.1009  0.4789
18084THY    HA332879   7.870   2.818   2.708  0.7702  1.8125  2.2342
18084THY    CA432880   7.737   2.939   2.602  0.1827  0.2491 -0.3751
18084THY    HA432881   7.653   2.890   2.650  0.7263  0.0129 -1.6054
18084THY    CA532882   7.722   3.048   2.513 -0.4742  0.1389  0.3097
18084THY    CM132883   7.581   3.095   2.472 -0.2109 -0.0145  0.3586
18084THY    HM132884   7.512   3.017   2.507  0.4846  0.3280 -0.1139
18084THY    HM232885   7.561   3.097   2.364  0.2307 -0.0962  1.8171
18084THY    HM332886   7.555   3.195   2.508 -1.3088 -3.4234  1.4415
18084THY    CA632887   7.833   3.116   2.468  0.1113  0.3703 -0.4703
18084THY    HA632888   7.822   3.199   2.398  0.0436  0.1042 -0.7026
18085THY      O32889   4.623   8.910   2.967  0.1304 -0.4109 -0.2661
18085THY     HO32890   4.617   8.955   3.053 -0.5124 -0.3011 -0.5381
18085THY    CA132891   4.742   8.947   2.916  0.0530  0.2275 -0.3769
18085THY    CA232892   4.753   8.983   2.779  0.3098 -0.4519  0.4675
18085THY    CP132893   4.634   8.967   2.685 -0.1032 -0.1616  0.0374
18085THY    HP132894   4.537   8.960   2.736 -0.1183  0.0710  1.5581
18085THY    CP232895   4.657   8.857   2.582 -0.2345 -0.4646  0.5095
18085THY    HP232896   4.610   8.764   2.617  0.3657  2.6486  1.2478
18085THY    HP332897   4.764   8.841   2.566 -0.1169 -0.5050  1.3174
18085THY    HP432898   4.602   8.881   2.490 -0.8144 -0.1544  0.4099
18085THY    CP332899   4.621   9.101   2.617  0.0515 -0.1307 -0.7102
18085THY    HP532900   4.520   9.103   2.574  0.4504 -1.0510  0.0212
18085THY    HP632901   4.697   9.123   2.542 -0.5743  0.2027  3.5374
18085THY    HP732902   4.622   9.181   2.692 -0.7807 -1.3049  0.4517
18085THY    CA332903   4.880   9.020   2.729  0.3498 -0.1728 -0.3542
18085THY    HA332904   4.892   9.041   2.623  0.1849 -0.4952 -1.7589
18085THY    CA432905   4.990   9.022   2.816  0.1436 -0.0173 -0.6836
18085THY    HA432906   5.081   9.063   2.774 -0.5248  0.2195  1.1351
18085THY    CA532907   4.975   8.976   2.948  0.2499 -0.5659  0.6862
18085THY    CM132908   5.099   8.968   3.036 -0.3612 -0.3329  0.6736
18085THY    HM132909   5.103   9.064   3.087  1.2493 -0.2319  0.5753
18085THY    HM232910   5.186   8.963   2.970 -0.1820 -0.2300  2.1213
18085THY    HM332911   5.088   8.888   3.111 -1.1982 -0.5211  0.5952
18085THY    CA632912   4.852   8.938   3.002 -0.0289  0.7278 -0.6698
18085THY    HA632913   4.845   8.902   3.105 -0.6173  0.2077 -2.1391
18086THY      O32914   2.886   2.299   2.360  0.0098 -0.3225 -0.8166
18086THY     HO32915   2.952   2.365   2.390 -0.7953  0.8467 -0.5173
18086THY    CA132916   2.807   2.372   2.284  0.6876  0.2143 -0.5092
18086THY    CA232917   2.788   2.349   2.145  0.0038  0.4675  0.0373
18086THY    CP132918   2.850   2.227   2.079 -0.2012 -0.6201  0.4182
18086THY    HP132919   2.893   2.158   2.153 -1.7546  0.3900  0.4822
18086THY    CP232920   2.929   2.262   1.958 -0.0674 -0.4229  0.0588
18086THY    HP232921   2.866   2.318   1.888 -0.3648 -0.5057 -0.3762
18086THY    HP332922   2.963   2.165   1.920  0.7868  1.9289 -0.6286
18086THY    HP432923   3.018   2.320   1.982 -0.6197  2.7747 -0.2132
18086THY    CP332924   2.736   2.135   2.031 -0.8653  0.2793 -0.2475
18086THY    HP532925   2.658   2.103   2.102 -2.4623 -0.6581  1.4009
18086THY    HP632926   2.773   2.038   1.994 -0.5412  0.3613 -0.1551
18086THY    HP732927   2.670   2.179   1.955 -0.7084 -1.3809 -2.6649
18086THY    CA332928   2.705   2.438   2.080  0.7034  0.3574  0.0767
18086THY    HA332929   2.693   2.418   1.974  1.2236  0.1539  0.7687
18086THY    CA432930   2.647   2.546   2.147 -0.6411  0.0799  0.3464
18086THY    HA432931   2.575   2.606   2.092 -1.0882  0.8633  0.5553
18086THY    CA532932   2.661   2.556   2.279 -0.2921 -0.5600 -0.2493
18086THY    CM132933   2.601   2.675   2.347 -0.1407  0.2344 -0.0212
18086THY    HM132934   2.492   2.688   2.343  0.1469 -1.9709  2.4396
18086THY    HM232935   2.642   2.768   2.306 -0.6677  1.8446  0.9452
18086THY    HM332936   2.610   2.676   2.456 -0.7054  0.2816  0.5665
18086THY    CA632937   2.744   2.468   2.352 -0.0947  0.7496 -0.1423
18086THY    HA632938   2.766   2.485   2.457 -0.0447  1.2212 -2.7534
18087THY      O32939   3.153   1.914   6.585 -0.4725  0.2362 -0.0122
18087THY     HO32940   3.087   1.955   6.526 -0.9229 -0.0622 -1.1479
18087THY    CA132941   3.104   1.932   6.710 -0.4023  0.0031  0.1026
18087THY    CA232942   3.172   1.876   6.822  0.1197 -0.3170 -0.1797
18087THY    CP132943   3.297   1.786   6.805  0.0340  0.9399 -0.4122
18087THY    HP132944   3.342   1.797   6.706 -2.6300 -0.4110 -0.9472
18087THY    CP232945   3.266   1.637   6.812 -0.3192 -0.2755  0.2535
18087THY    HP232946   3.199   1.597   6.736  0.1340 -0.8116  0.5041
18087THY    HP332947   3.223   1.598   6.905 -1.0073 -0.6761  0.0403
18087THY    HP432948   3.363   1.589   6.796  1.6239  2.0920  2.9970
18087THY    CP332949   3.410   1.816   6.910  0.2371 -0.4572  0.6121
18087THY    HP532950   3.389   1.766   7.005  1.5953  0.1079  1.0618
18087THY    HP632951   3.411   1.924   6.928 -0.7058 -3.7527  1.2843
18087THY    HP732952   3.503   1.775   6.870  0.5521 -0.2744  1.1386
18087THY    CA332953   3.124   1.907   6.948  0.6768  0.0459  0.1581
18087THY    HA332954   3.162   1.856   7.036  0.3599  0.5766  0.8222
18087THY    CA432955   3.015   2.000   6.963 -0.8237 -0.3601  0.5803
18087THY    HA432956   2.994   2.024   7.067  3.8775  0.9254  0.0811
18087THY    CA532957   2.955   2.052   6.849  0.0327  0.2632  0.4377
18087THY    CM132958   2.841   2.139   6.872  1.0295  0.0760 -0.0810
18087THY    HM132959   2.829   2.182   6.972  0.9655  0.6254 -1.3369
18087THY    HM232960   2.750   2.085   6.845  0.9937 -0.6459  0.3192
18087THY    HM332961   2.844   2.226   6.805  2.0481  1.0037  0.6355
18087THY    CA632962   2.993   2.017   6.718  0.5325  0.1168  0.2943
18087THY    HA632963   2.949   2.066   6.632  1.5425 -0.2275  0.6196
18088THY      O32964   3.205   4.227   2.489 -0.0564  0.1665 -0.4751
18088THY     HO32965   3.162   4.227   2.576  1.2271  0.8300  0.0702
18088THY    CA132966   3.199   4.359   2.446 -0.3120 -0.5319 -0.2637
18088THY    CA232967   3.258   4.408   2.325  0.4399 -0.0620  0.4672
18088THY    CP132968   3.319   4.305   2.228 -0.0913  0.1799  0.4226
18088THY    HP132969   3.337   4.208   2.275  1.5874 -1.0179  0.1144
18088THY    CP232970   3.460   4.361   2.183 -0.3730 -0.1729 -0.1308
18088THY    HP232971   3.521   4.382   2.272 -0.3268 -0.7684  2.5622
18088THY    HP332972   3.451   4.456   2.130  0.8251 -1.1243 -0.5195
18088THY    HP432973   3.511   4.284   2.123  0.3117  1.9910 -1.4795
18088THY    CP332974   3.228   4.291   2.094 -0.5817 -0.3590 -0.0081
18088THY    HP532975   3.245   4.389   2.048  0.0679 -0.4489 -0.1604
18088THY    HP632976   3.122   4.274   2.116 -0.8605 -1.9732 -0.4958
18088THY    HP732977   3.270   4.213   2.030  1.4192  1.9857 -0.9951
18088THY    CA332978   3.232   4.540   2.283 -0.1108 -0.2934 -0.0701
18088THY    HA332979   3.265   4.566   2.183 -1.5888 -0.5319  1.0210
18088THY    CA432980   3.140   4.617   2.353  0.5799  0.7664 -0.1435
18088THY    HA432981   3.110   4.715   2.317  1.3401  0.0058 -0.1719
18088THY    CA532982   3.083   4.567   2.469  0.2813  0.0685  0.6056
18088THY    CM132983   2.987   4.655   2.539 -0.4480 -0.4271  0.1060
18088THY    HM132984   2.938   4.617   2.630 -2.0046 -1.2077  0.1227
18088THY    HM232985   2.897   4.671   2.477 -0.7446  0.2124  1.0104
18088THY    HM332986   3.034   4.751   2.559 -1.0149 -0.6398  0.4348
18088THY    CA632987   3.112   4.439   2.519 -0.1454  0.1007  0.1416
18088THY    HA632988   3.065   4.402   2.610  0.1027 -0.5330 -1.8464
18089THY      O32989   0.959   8.343   4.594 -0.3439 -0.2055  0.0575
18089THY     HO32990   0.975   8.309   4.504  2.0537 -0.2244  1.0740
18089THY    CA132991   0.914   8.470   4.577  0.1295  0.2811 -0.0440
18089THY    CA232992   0.794   8.514   4.639  0.0506 -0.2891  0.2338
18089THY    CP132993   0.721   8.410   4.728 -0.2244 -0.0064 -0.7526
18089THY    HP132994   0.764   8.309   4.734 -1.4989  0.0052 -1.3227
18089THY    CP232995   0.572   8.383   4.676  0.6334 -0.0969 -0.6331
18089THY    HP232996   0.511   8.336   4.754 -1.3854 -2.2113 -1.7746
18089THY    HP332997   0.591   8.316   4.590 -1.3029  0.5935 -2.1511
18089THY    HP432998   0.523   8.471   4.632 -0.2828  1.7937 -0.1670
18089THY    CP332999   0.711   8.472   4.863  1.0575  0.6481 -0.7277
18089THY    HP533000   0.665   8.572   4.860  1.2864  2.1669 -0.5578
18089THY    HP633001   0.808   8.473   4.915  2.5613 -1.9136 -1.7943
18089THY    HP733002   0.649   8.402   4.920 -1.0665 -0.5876  0.0585
18089THY    CA333003   0.750   8.645   4.623  0.0763 -0.7252  0.1368
18089THY    HA333004   0.656   8.680   4.664 -0.2800 -2.7074  1.7534
18089THY    CA433005   0.828   8.723   4.531 -0.4584 -0.4527 -0.2115
18089THY    HA433006   0.805   8.825   4.501  1.8255 -1.6267  0.0366
18089THY    CA533007   0.940   8.685   4.460 -0.1084 -0.0697  0.6786
18089THY    CM133008   1.010   8.762   4.348 -0.2671 -0.2292  0.2451
18089THY    HM133009   0.971   8.865   4.345 -1.4461 -0.0735 -0.1737
18089THY    HM233010   0.991   8.723   4.248  1.4569  0.0141 -1.3271
18089THY    HM333011   1.118   8.747   4.357 -0.5215 -0.2139 -1.9096
18089THY    CA633012   0.987   8.554   4.484 -0.1114 -0.3168  0.1438
18089THY    HA633013   1.068   8.516   4.423  0.0784  0.7551 -1.2781
18090THY      O33014   7.793   7.098   1.753  0.0826 -0.0596 -0.4130
18090THY     HO33015   7.755   7.122   1.668  0.7576 -0.2605 -0.0387
18090THY    CA133016   7.699   7.110   1.845 -0.0213  0.9403  0.0578
18090THY    CA233017   7.724   7.086   1.981 -0.3672  0.2037  0.1914
18090THY    CP133018   7.866   7.080   2.044  0.1330 -0.9804 -0.5255
18090THY    HP133019   7.940   7.056   1.968  1.8387  0.7252 -0.8628
18090THY    CP233020   7.880   6.967   2.145  0.1660  0.2565  0.1530
18090THY    HP233021   7.841   6.875   2.101 -0.6007 -0.2452  0.7018
18090THY    HP333022   7.831   6.982   2.242  2.2239  1.3768 -0.0743
18090THY    HP433023   7.986   6.946   2.162 -0.0091  0.3418 -0.6593
18090THY    CP333024   7.910   7.211   2.109  0.3400  0.5496  0.0887
18090THY    HP533025   7.844   7.235   2.194  1.7085  2.2013 -1.6748
18090THY    HP633026   7.905   7.292   2.035 -2.8631  0.3657 -0.1229
18090THY    HP733027   8.013   7.209   2.146  0.0217  1.5441  0.9761
18090THY    CA333028   7.616   7.105   2.070 -0.2544  0.1476  0.3868
18090THY    HA333029   7.633   7.112   2.177 -1.9478  0.5237 -0.7561
18090THY    CA433030   7.485   7.124   2.018 -0.0440 -0.1503 -0.0128
18090THY    HA433031   7.401   7.134   2.087  0.8358  0.9153  0.2854
18090THY    CA533032   7.467   7.127   1.883  0.4351 -0.7922 -0.0647
18090THY    CM133033   7.323   7.125   1.830  0.1531  0.0490 -0.6847
18090THY    HM133034   7.265   7.040   1.866 -0.0321 -0.6581 -0.8586
18090THY    HM233035   7.324   7.141   1.722 -2.3354  0.0970  0.2257
18090THY    HM333036   7.277   7.216   1.870 -1.8855  0.3681 -1.7951
18090THY    CA633037   7.569   7.116   1.796  0.6999  0.1510 -0.4743
18090THY    HA633038   7.553   7.107   1.689 -0.9959  0.4877 -2.0532
18091THY      O33039   0.526   5.907   2.270 -0.6088  0.6999 -1.0090
18091THY     HO33040   0.599   5.959   2.232 -3.1181 -1.6872  1.0871
18091THY    CA133041   0.430   5.991   2.230  0.4157 -0.5140  0.5084
18091THY    CA233042   0.296   5.949   2.198  0.1134 -0.1998 -0.7831
18091THY    CP133043   0.260   5.806   2.220  0.1859  0.0218  0.1939
18091THY    HP133044   0.338   5.740   2.179 -0.0360  0.1342 -0.1428
18091THY    CP233045   0.136   5.762   2.143 -0.1519  0.0074  0.9008
18091THY    HP233046   0.052   5.820   2.184 -1.3805 -2.2386  0.8438
18091THY    HP333047   0.112   5.656   2.145  2.4038 -1.3090  0.2213
18091THY    HP433048   0.149   5.796   2.040 -1.4403 -0.3431  0.4134
18091THY    CP333049   0.235   5.783   2.373 -0.3839 -0.3069  0.0639
18091THY    HP533050   0.201   5.682   2.398  1.5243  0.8266 -0.3605
18091THY    HP633051   0.177   5.867   2.414  0.8633  1.4385  0.1255
18091THY    HP733052   0.326   5.802   2.431  0.8783 -1.3232 -2.4736
18091THY    CA333053   0.211   6.038   2.136 -0.8109 -0.3562  0.9240
18091THY    HA333054   0.110   6.004   2.114 -0.3941 -0.0005 -0.5994
18091THY    CA433055   0.249   6.172   2.107 -0.8570 -0.3658 -0.1601
18091THY    HA433056   0.180   6.242   2.062 -0.0850 -0.9905  0.2157
18091THY    CA533057   0.378   6.211   2.151  0.2125  0.5475 -0.0189
18091THY    CM133058   0.418   6.352   2.141  0.6762 -0.0172 -0.4035
18091THY    HM133059   0.469   6.382   2.050 -0.1323  0.1442  1.6019
18091THY    HM233060   0.482   6.374   2.227  0.6921 -0.3090  0.7499
18091THY    HM333061   0.327   6.413   2.155  1.6736 -0.7917  1.3111
18091THY    CA633062   0.472   6.123   2.213  0.2359 -0.3301 -0.1036
18091THY    HA633063   0.565   6.157   2.258 -0.6147  2.7761 -1.5010
18092THY      O33064   7.329   8.784   5.993  0.1964 -0.2249 -0.0041
18092THY     HO33065   7.392   8.843   5.946 -0.4775 -0.1244  0.8087
18092THY    CA133066   7.215   8.782   5.918  0.6340  0.4141 -0.4450
18092THY    CA233067   7.088   8.847   5.947 -0.1299  0.3672  0.3653
18092THY    CP133068   7.073   8.923   6.077 -0.1831  0.2865  0.0861
18092THY    HP133069   7.164   8.933   6.136  0.9069 -1.2807 -0.3286
18092THY    CP233070   6.967   8.851   6.167 -0.4121  0.0284 -0.2538
18092THY    HP233071   7.005   8.753   6.195  0.4407  1.4893  0.4607
18092THY    HP333072   6.874   8.839   6.111 -0.5351  0.5310 -1.8564
18092THY    HP433073   6.942   8.908   6.257 -0.0326 -0.1817  0.2521
18092THY    CP333074   7.025   9.075   6.059 -0.2090  0.0018 -0.2827
18092THY    HP533075   6.917   9.071   6.039 -0.1495 -0.2224 -3.6120
18092THY    HP633076   7.081   9.128   5.982 -2.2342  0.0111  2.0419
18092THY    HP733077   7.036   9.130   6.153 -1.2772  0.8943 -1.4863
18092THY    CA333078   6.982   8.833   5.867  0.4284 -0.5647  0.5204
18092THY    HA333079   6.886   8.877   5.895 -1.3147  1.6804 -4.0357
18092THY    CA433080   6.994   8.757   5.752 -0.7672  0.1914  0.6342
18092THY    HA433081   6.909   8.751   5.685 -1.4691  1.2107 -2.5633
18092THY    CA533082   7.113   8.689   5.721 -0.2949  0.2455  0.4325
18092THY    CM133083   7.116   8.613   5.590  0.3552  0.1935  0.0496
18092THY    HM133084   7.014   8.600   5.554  1.5667 -2.9164 -2.2680
18092THY    HM233085   7.166   8.516   5.597 -0.4562  0.8800 -0.3249
18092THY    HM333086   7.167   8.683   5.522  1.4513  1.1696  0.2290
18092THY    CA633087   7.225   8.695   5.811 -0.8678  0.4701  0.3983
18092THY    HA633088   7.315   8.641   5.783 -1.2591 -1.4559  0.6658
18093THY      O33089   3.708   6.607   4.537  0.1057 -0.1311 -0.4116
18093THY     HO33090   3.689   6.642   4.448 -1.5251  0.8588  1.4800
18093THY    CA133091   3.590   6.556   4.577  0.1340  0.2029  1.1737
18093THY    CA233092   3.581   6.434   4.648 -0.2885 -0.5692 -0.4961
18093THY    CP133093   3.709   6.351   4.683  0.2089 -0.0275  0.1088
18093THY    HP133094   3.791   6.424   4.681 -0.6401 -2.0238  1.0721
18093THY    CP233095   3.747   6.251   4.573 -0.3259  0.1691  0.5011
18093THY    HP233096   3.838   6.196   4.601  0.3851 -0.0434  1.5373
18093THY    HP333097   3.758   6.303   4.477 -1.7055  0.5445  1.5275
18093THY    HP433098   3.664   6.183   4.551 -1.0286 -0.6110  1.5927
18093THY    CP333099   3.692   6.287   4.824 -0.5201 -0.3089 -0.2610
18093THY    HP533100   3.624   6.351   4.881 -0.7653 -0.4042 -0.4369
18093THY    HP633101   3.786   6.295   4.879 -1.5247  1.3464  0.7475
18093THY    HP733102   3.647   6.187   4.827 -0.0880  4.6394 -0.5836
18093THY    CA333103   3.447   6.385   4.674  0.4645  0.4611 -0.3982
18093THY    HA333104   3.437   6.302   4.744 -0.2570  1.7191  0.7037
18093THY    CA433105   3.335   6.459   4.629  0.4073  0.2696 -1.1124
18093THY    HA433106   3.231   6.428   4.637 -0.2203 -2.4917  0.0051
18093THY    CA533107   3.345   6.592   4.577  0.0688  0.2164 -0.1205
18093THY    CM133108   3.224   6.671   4.537 -0.2311 -0.1304  0.2043
18093THY    HM133109   3.245   6.778   4.526  1.7505 -1.2635 -0.2486
18093THY    HM233110   3.151   6.653   4.617 -1.1464 -1.3947 -2.0874
18093THY    HM333111   3.171   6.631   4.450 -0.1022  0.6617 -1.8145
18093THY    CA633112   3.475   6.633   4.554  0.5765  0.9023  0.0807
18093THY    HA633113   3.490   6.726   4.499 -0.4829 -0.6095 -0.6003
18094THY      O33114   6.071   8.871   5.036 -0.0862 -0.0391  0.6197
18094THY     HO33115   6.011   8.796   5.049 -0.5134 -0.6616  0.8421
18094THY    CA133116   6.157   8.839   4.939 -0.8630  0.4061  0.0548
18094THY    CA233117   6.267   8.923   4.893 -0.6580  0.3283  0.5361
18094THY    CP133118   6.266   9.067   4.949  0.1084  0.1236  0.4157
18094THY    HP133119   6.179   9.084   5.014  1.3410  1.7102  0.9094
18094THY    CP233120   6.274   9.177   4.845  0.0234 -1.1716  0.5146
18094THY    HP233121   6.176   9.196   4.799 -0.9377  1.4149  2.4940
18094THY    HP333122   6.357   9.158   4.775  0.1059 -1.0249  0.3400
18094THY    HP433123   6.298   9.268   4.901 -1.9751 -0.2303  0.5085
18094THY    CP333124   6.380   9.075   5.045  0.4966 -0.4257 -0.5459
18094THY    HP533125   6.373   9.002   5.127 -3.2458 -0.0609  0.0090
18094THY    HP633126   6.378   9.172   5.096  0.1377 -1.4971  0.0221
18094THY    HP733127   6.480   9.071   5.001  1.8040  2.3009 -0.4498
18094THY    CA333128   6.352   8.882   4.791 -0.1808  0.3758  1.0805
18094THY    HA333129   6.430   8.946   4.753  0.0049  0.0665  0.6696
18094THY    CA433130   6.343   8.749   4.747 -0.0629 -0.2254  0.7544
18094THY    HA433131   6.421   8.713   4.680 -0.9869 -0.6968 -0.4233
18094THY    CA533132   6.243   8.663   4.785 -0.4549 -0.1462 -0.2239
18094THY    CM133133   6.233   8.526   4.717  0.5416 -0.0189 -0.5246
18094THY    HM133134   6.132   8.495   4.689  0.0801  0.4472  0.5312
18094THY    HM233135   6.284   8.449   4.776  0.4553 -0.8380 -1.2239
18094THY    HM333136   6.289   8.525   4.622  0.6677  0.0555 -0.5436
18094THY    CA633137   6.154   8.709   4.880 -0.2906  0.1747  0.6561
18094THY    HA633138   6.062   8.654   4.897 -1.6948 -1.8702  2.2341
18095THY      O33139   2.487   1.470   6.934  0.2219 -0.7236 -0.0525
18095THY     HO33140   2.522   1.380   6.933 -0.9037 -1.6010 -0.5152
18095THY    CA133141   2.389   1.450   6.844  0.2091  0.6303 -0.1137
18095THY    CA233142   2.277   1.533   6.842  0.1383 -0.7178 -1.6967
18095THY    CP133143   2.263   1.659   6.934 -0.3562  0.2933  0.2795
18095THY    HP133144   2.357   1.678   6.987  1.2173 -1.6421 -1.6607
18095THY    CP233145   2.140   1.638   7.033 -0.0311 -0.0009  0.6322
18095THY    HP233146   2.160   1.556   7.103 -0.2766 -1.3748 -0.6445
18095THY    HP333147   2.043   1.618   6.987  0.6279 -0.9336 -0.5337
18095THY    HP433148   2.119   1.732   7.087  1.1166 -0.8177  1.3935
18095THY    CP333149   2.244   1.788   6.849 -0.1742 -0.3876 -0.5015
18095THY    HP533150   2.164   1.790   6.775 -3.0302  2.5128  0.2589
18095THY    HP633151   2.342   1.812   6.806 -0.8740 -1.5755  0.2688
18095THY    HP733152   2.212   1.869   6.915 -0.2109 -0.6567 -0.2985
18095THY    CA333153   2.176   1.508   6.749 -0.0904  0.0801  0.4227
18095THY    HA333154   2.087   1.571   6.747 -0.1576 -1.3027  0.3191
18095THY    CA433155   2.195   1.409   6.648  0.5877  0.1476  0.8493
18095THY    HA433156   2.114   1.384   6.581 -0.1209  1.2869  0.0203
18095THY    CA533157   2.301   1.319   6.659 -0.3219  0.4580  0.3620
18095THY    CM133158   2.307   1.192   6.568  0.2106 -0.2010 -0.0789
18095THY    HM133159   2.403   1.138   6.572 -0.3569 -0.4156 -1.1220
18095THY    HM233160   2.295   1.220   6.463 -1.5272 -0.5303 -1.8268
18095THY    HM333161   2.225   1.121   6.585 -0.4346 -0.4687  0.5918
18095THY    CA633162   2.400   1.342   6.757  0.1849  0.1448  0.2182
18095THY    HA633163   2.490   1.281   6.753  0.6855  0.8181  0.8856
18096THY      O33164   6.359   3.193   7.052 -0.3216 -0.1942 -0.5778
18096THY     HO33165   6.333   3.262   6.988  1.4861 -0.0171  0.3132
18096THY    CA133166   6.445   3.252   7.128  0.3231 -0.7100 -0.6682
18096THY    CA233167   6.525   3.180   7.211 -0.0798  0.0678  0.1772
18096THY    CP133168   6.490   3.023   7.235  0.2503 -0.5516  0.4916
18096THY    HP133169   6.430   2.976   7.157  3.0827 -2.2647 -0.5290
18096THY    CP233170   6.398   3.009   7.359 -0.1101  0.7773 -0.1092
18096THY    HP233171   6.456   3.027   7.450  1.5025 -0.1567 -0.4123
18096THY    HP333172   6.358   2.907   7.355 -1.1602 -0.7714  0.3245
18096THY    HP433173   6.315   3.081   7.361 -1.3904 -1.6906 -1.3943
18096THY    CP333174   6.615   2.941   7.253 -0.1367  0.1884  0.7989
18096THY    HP533175   6.637   2.947   7.360 -0.8426  0.2798  2.1147
18096THY    HP633176   6.699   2.976   7.191 -0.8198 -1.2631 -0.0444
18096THY    HP733177   6.592   2.838   7.225 -0.8116 -0.7133  1.1805
18096THY    CA333178   6.626   3.245   7.286  0.7323 -0.4680 -0.5418
18096THY    HA333179   6.686   3.191   7.359 -0.1236  1.1993  0.6889
18096THY    CA433180   6.642   3.382   7.278  0.1320  0.2339 -0.1504
18096THY    HA433181   6.725   3.429   7.330  1.8987 -2.2006 -0.3849
18096THY    CA533182   6.569   3.456   7.181 -0.6417  0.2808  0.0993
18096THY    CM133183   6.613   3.592   7.161 -0.1774 -0.5604 -0.1809
18096THY    HM133184   6.630   3.601   7.053  0.8836 -0.7733 -3.4437
18096THY    HM233185   6.706   3.624   7.208  0.1421 -1.1215 -0.2849
18096THY    HM333186   6.528   3.655   7.190  0.4887 -1.4828  1.1847
18096THY    CA633187   6.471   3.390   7.107  0.4121 -0.2387 -0.9577
18096THY    HA633188   6.420   3.431   7.020 -0.1375 -0.8140 -2.7622
18097THY      O33189   1.374   4.387   6.293 -0.0776 -0.5408  0.1636
18097THY     HO33190   1.398   4.315   6.232 -1.6827 -1.8661  0.6663
18097THY    CA133191   1.477   4.416   6.374  1.0744  0.4008 -0.1525
18097THY    CA233192   1.479   4.526   6.461 -0.3177  0.2818  0.1875
18097THY    CP133193   1.368   4.628   6.469  0.7990 -0.2806  0.2813
18097THY    HP133194   1.295   4.611   6.388 -1.3700  1.7011 -0.3345
18097THY    CP233195   1.406   4.777   6.457 -0.9386 -0.0073  0.0335
18097THY    HP233196   1.478   4.793   6.376  0.9956  1.7495  0.6321
18097THY    HP333197   1.454   4.814   6.548 -0.5616 -0.2146  0.0627
18097THY    HP433198   1.315   4.837   6.445 -0.4455 -0.1105  0.7682
18097THY    CP333199   1.283   4.606   6.595 -0.2448  0.4721 -0.3658
18097THY    HP533200   1.264   4.501   6.618 -1.4496  0.2089 -0.2216
18097THY    HP633201   1.187   4.658   6.603 -0.0380 -0.4222  0.1723
18097THY    HP733202   1.343   4.648   6.676 -0.3514  0.5608 -0.3843
18097THY    CA333203   1.592   4.535   6.553 -0.2786  0.2875 -0.3572
18097THY    HA333204   1.611   4.617   6.622  2.5202 -1.7287  0.8952
18097THY    CA433205   1.687   4.434   6.553 -0.4034 -0.1865 -0.0449
18097THY    HA433206   1.770   4.446   6.623  0.4899 -0.8204 -2.1671
18097THY    CA533207   1.683   4.330   6.467  0.8062  0.2870 -0.5698
18097THY    CM133208   1.790   4.220   6.470  0.0577  0.3579  0.1368
18097THY    HM133209   1.746   4.120   6.469  1.8005  0.5271 -0.6569
18097THY    HM233210   1.844   4.221   6.565 -0.0808  0.4670 -1.1330
18097THY    HM333211   1.865   4.222   6.390 -0.1227  0.1873  1.7865
18097THY    CA633212   1.579   4.321   6.379 -0.6108 -0.3100  0.2458
18097THY    HA633213   1.585   4.233   6.316  0.5674  0.2885 -0.1169
18098THY      O33214   8.663   8.476   6.985  0.4815 -0.0434 -0.1771
18098THY     HO33215   8.755   8.502   6.970  0.0911 -0.1319  1.2157
18098THY    CA133216   8.579   8.579   6.962  0.0441 -0.2297  1.1358
18098THY    CA233217   8.447   8.552   6.921  0.1413  0.3052 -0.4497
18098THY    CP133218   8.392   8.403   6.912 -0.7219 -0.1869  1.1945
18098THY    HP133219   8.424   8.340   6.996 -2.8164 -1.1348 -1.3204
18098THY    CP233220   8.435   8.327   6.787 -0.0075  0.3010 -0.2765
18098THY    HP233221   8.379   8.235   6.768 -0.0262 -1.2794  0.0274
18098THY    HP333222   8.543   8.314   6.794 -0.3125  1.0219 -3.0175
18098THY    HP433223   8.420   8.385   6.695 -0.8419  1.2582  1.0798
18098THY    CP333224   8.237   8.396   6.914  0.0413  0.0800 -0.1747
18098THY    HP533225   8.211   8.290   6.918  0.5410  0.3668 -0.2919
18098THY    HP633226   8.191   8.441   6.826 -1.0433  1.7972  2.3607
18098THY    HP733227   8.203   8.448   7.005 -1.6301 -0.2286 -0.6895
18098THY    CA333228   8.361   8.669   6.900 -0.1119 -0.3583 -0.6287
18098THY    HA333229   8.254   8.660   6.882 -0.7399  2.2871  0.6220
18098THY    CA433230   8.412   8.794   6.913 -0.3942  0.0740  0.4170
18098THY    HA433231   8.337   8.871   6.898 -0.2105 -0.6728  0.4601
18098THY    CA533232   8.544   8.817   6.950  0.9828  0.2615 -0.1882
18098THY    CM133233   8.592   8.964   6.959 -0.1203 -0.4612  0.2855
18098THY    HM133234   8.584   9.012   6.861  0.8013 -1.6550 -1.8260
18098THY    HM233235   8.700   8.962   6.980 -0.3275  0.5787 -0.4115
18098THY    HM333236   8.548   9.032   7.032  2.7515  0.1842  1.5981
18098THY    CA633237   8.626   8.705   6.973 -0.1005 -0.0800  0.6616
18098THY    HA633238   8.731   8.715   6.999 -0.0477 -0.3974  0.9262
18099THY      O33239   9.230   3.987   6.632  0.0158 -0.4488 -0.2976
18099THY     HO33240   9.213   3.902   6.674 -0.0866 -0.1586 -0.1341
18099THY    CA133241   9.173   4.070   6.716  0.9260  0.0526 -0.5321
18099THY    CA233242   9.084   4.169   6.671  0.4478  0.0873 -0.1952
18099THY    CP133243   9.040   4.175   6.526  0.2863 -0.1134  1.3902
18099THY    HP133244   9.046   4.072   6.490  1.1115  0.7081  1.1377
18099THY    CP233245   9.143   4.258   6.454 -0.0973  0.1106 -0.8732
18099THY    HP233246   9.127   4.256   6.345  0.5049 -0.0585  1.0508
18099THY    HP333247   9.244   4.221   6.475  0.6816 -0.8459  0.5944
18099THY    HP433248   9.141   4.357   6.502 -2.3766 -2.3555  0.4235
18099THY    CP333249   8.903   4.232   6.496  0.0202  0.4069  0.2720
18099THY    HP533250   8.913   4.338   6.522 -1.0941  1.5263  0.1366
18099THY    HP633251   8.833   4.196   6.573  1.4630  0.5760 -2.3911
18099THY    HP733252   8.873   4.204   6.394 -0.0703 -0.2307  2.5245
18099THY    CA333253   9.035   4.263   6.765  0.1279  0.5049  0.4582
18099THY    HA333254   8.963   4.339   6.736  0.9221  0.2677  1.1383
18099THY    CA433255   9.066   4.241   6.903 -0.2574  0.3182 -0.1837
18099THY    HA433256   9.017   4.304   6.977 -2.0079 -0.8926 -0.0585
18099THY    CA533257   9.162   4.141   6.943  0.7757  0.1033 -0.6236
18099THY    CM133258   9.211   4.141   7.084  0.0330  0.9120 -0.3891
18099THY    HM133259   9.134   4.175   7.154  1.8727  1.5470  2.8681
18099THY    HM233260   9.289   4.217   7.090 -0.2391 -0.3106  0.0151
18099THY    HM333261   9.245   4.038   7.101 -0.4288 -0.0875 -0.7193
18099THY    CA633262   9.202   4.045   6.852  0.5070 -0.5738 -0.0362
18099THY    HA633263   9.265   3.962   6.882 -0.3873  2.3511  0.2138
18100THY      O33264   8.646   9.268   5.027 -0.4134  0.9617  0.2962
18100THY     HO33265   8.690   9.252   5.112  0.1886  0.8123  1.0986
18100THY    CA133266   8.737   9.268   4.933  0.4509 -0.3983  0.3306
18100THY    CA233267   8.717   9.221   4.804 -0.1809  0.0492 -0.0348
18100THY    CP133268   8.576   9.168   4.767  0.2922  0.0062 -0.3899
18100THY    HP133269   8.526   9.130   4.856  1.0586  0.6482  0.0809
18100THY    CP233270   8.579   9.048   4.671  0.2249 -0.0040 -0.0564
18100THY    HP233271   8.655   8.974   4.697 -1.5557 -1.5030 -2.5263
18100THY    HP333272   8.589   9.073   4.565  4.9577  0.3871  0.5360
18100THY    HP433273   8.485   8.992   4.677  0.7140  0.5266 -0.8339
18100THY    CP333274   8.477   9.275   4.716 -0.5379  0.3613  0.1825
18100THY    HP533275   8.462   9.332   4.809  0.1154  0.3711  0.3517
18100THY    HP633276   8.379   9.236   4.688 -1.1591  1.4071  0.9307
18100THY    HP733277   8.529   9.335   4.640  0.9537  1.4553  0.3480
18100THY    CA333278   8.827   9.240   4.712 -0.3743  0.4247 -0.0657
18100THY    HA333279   8.825   9.216   4.606 -1.2313 -0.1213  2.2463
18100THY    CA433280   8.946   9.300   4.752  0.3551 -0.3533 -0.0054
18100THY    HA433281   9.030   9.316   4.686  2.0290  1.4730 -0.8715
18100THY    CA533282   8.964   9.336   4.885  0.2451 -0.2637  0.0643
18100THY    CM133283   9.097   9.378   4.936  0.8271 -0.0346  0.0283
18100THY    HM133284   9.145   9.452   4.871  0.4093 -1.6105 -1.0053
18100THY    HM233285   9.158   9.288   4.953 -1.4180  0.9649 -1.3869
18100THY    HM333286   9.082   9.417   5.036 -1.1755  0.7424 -2.4305
18100THY    CA633287   8.853   9.322   4.974 -0.3258  0.6418 -1.6215
18100THY    HA633288   8.867   9.334   5.081  0.4643  0.4128 -0.3783
18101THY      O33289   8.356   1.017   3.288  0.3192 -0.1085  0.0652
18101THY     HO33290   8.300   0.940   3.307  1.0979  0.5417 -0.3591
18101THY    CA133291   8.369   1.086   3.408 -0.6626  0.3136 -0.0952
18101THY    CA233292   8.473   1.175   3.428  0.5065  0.8036 -0.3565
18101THY    CP133293   8.596   1.164   3.340 -0.6595  0.1088  0.2114
18101THY    HP133294   8.585   1.084   3.265 -0.4160 -0.6187  0.8408
18101THY    CP233295   8.701   1.097   3.426  0.2002  0.2857 -0.3567
18101THY    HP233296   8.719   1.165   3.510 -1.7947  0.1977  0.3531
18101THY    HP333297   8.783   1.103   3.354 -0.8385 -0.8119  1.4879
18101THY    HP433298   8.675   0.995   3.458 -2.0389 -0.6864 -0.1479
18101THY    CP333299   8.636   1.291   3.260 -0.5858 -0.7459  0.0811
18101THY    HP533300   8.725   1.274   3.199  1.5133  1.6599  1.7129
18101THY    HP633301   8.653   1.376   3.328  0.9448 -0.4797 -0.4084
18101THY    HP733302   8.550   1.318   3.197 -1.3076  0.5270  0.8685
18101THY    CA333303   8.456   1.278   3.531  0.0699  1.0462  0.5055
18101THY    HA333304   8.539   1.341   3.561  1.6374  0.8887 -1.3763
18101THY    CA433305   8.333   1.284   3.593 -0.5827 -0.5870 -0.2030
18101THY    HA433306   8.322   1.359   3.671  2.9367  0.1690 -0.2865
18101THY    CA533307   8.238   1.188   3.577 -0.2429 -0.6047  0.3239
18101THY    CM133308   8.118   1.197   3.675 -0.6328  0.0960  0.3321
18101THY    HM133309   8.073   1.101   3.700 -0.2158  2.1331  0.6185
18101THY    HM233310   8.049   1.263   3.620 -0.6319 -0.0551  0.2085
18101THY    HM333311   8.143   1.235   3.774 -0.9882  0.1520  0.4275
18101THY    CA633312   8.252   1.091   3.483  0.6808 -0.3351 -0.7409
18101THY    HA633313   8.172   1.024   3.454 -0.5907  2.4259 -0.5362
18102THY      O33314   7.684   7.908   7.543  0.0966  0.0787  0.3679
18102THY     HO33315   7.751   7.889   7.475 -0.3790 -0.4608  0.5854
18102THY    CA133316   7.636   8.030   7.520  0.1318  0.2158  0.1834
18102THY    CA233317   7.544   8.090   7.611 -0.8231  0.4520 -0.2895
18102THY    CP133318   7.489   8.015   7.733  0.0181  0.4738 -0.2541
18102THY    HP133319   7.570   7.952   7.772 -0.0052  0.7677 -0.1049
18102THY    CP233320   7.372   7.925   7.688 -0.2213 -0.3139 -0.1038
18102THY    HP233321   7.333   7.868   7.773 -0.1042  0.9523  1.6259
18102THY    HP333322   7.401   7.857   7.607  0.0115  0.2190 -0.6516
18102THY    HP433323   7.287   7.989   7.662  1.7323 -1.8451  2.0615
18102THY    CP333324   7.452   8.101   7.843 -0.4982  0.3050  0.5300
18102THY    HP533325   7.515   8.191   7.853  0.8168 -2.0158 -0.0311
18102THY    HP633326   7.456   8.045   7.936  1.4721  1.8207  2.9712
18102THY    HP733327   7.351   8.141   7.831 -0.4072 -0.3609  0.5751
18102THY    CA333328   7.486   8.211   7.576  0.0396  0.8424 -0.5259
18102THY    HA333329   7.409   8.254   7.639 -0.5412  0.1783 -0.5830
18102THY    CA433330   7.534   8.287   7.458 -0.0202 -0.6386  0.3719
18102THY    HA433331   7.496   8.387   7.443  0.9335  1.6829  1.1662
18102THY    CA533332   7.618   8.215   7.368  0.1158  0.3500  0.6363
18102THY    CM133333   7.640   8.277   7.238  0.6724 -0.1013 -0.1716
18102THY    HM133334   7.637   8.386   7.241  0.3948  5.0215 -0.0555
18102THY    HM233335   7.573   8.237   7.161  1.5290  0.0669 -2.0783
18102THY    HM333336   7.735   8.241   7.198 -0.1626 -0.4861 -2.1114
18102THY    CA633337   7.664   8.088   7.401 -0.5351 -0.5623 -1.1760
18102THY    HA633338   7.713   8.034   7.322 -1.3794 -1.9543  0.0132
18103THY      O33339   6.467   5.774   5.051  0.8334  0.0369  0.3270
18103THY     HO33340   6.401   5.813   4.990 -0.5764  0.4356 -1.3259
18103THY    CA133341   6.401   5.668   5.104 -0.3285 -0.3434  0.3473
18103THY    CA233342   6.465   5.585   5.203  0.8751 -0.2290  0.0239
18103THY    CP133343   6.593   5.638   5.271 -0.5527 -0.1122 -0.3236
18103THY    HP133344   6.605   5.745   5.253 -2.1626  1.4317  0.1569
18103THY    CP233345   6.714   5.560   5.216  0.5240  0.3338 -0.8305
18103THY    HP233346   6.714   5.563   5.106  1.7726  0.3247 -0.3077
18103THY    HP333347   6.713   5.452   5.233  0.0955 -3.2476 -1.5193
18103THY    HP433348   6.805   5.615   5.242 -0.3902 -1.0733  1.4998
18103THY    CP333349   6.599   5.622   5.420  0.0351  0.0191  0.6709
18103THY    HP533350   6.524   5.688   5.464  0.8844  0.0851  1.6229
18103THY    HP633351   6.695   5.648   5.467 -0.5680  2.6135 -1.3512
18103THY    HP733352   6.593   5.521   5.463  0.7283  1.7063  1.3113
18103THY    CA333353   6.399   5.461   5.239 -0.5802  0.3469 -0.6939
18103THY    HA333354   6.440   5.388   5.309 -2.7414 -0.9084 -3.2996
18103THY    CA433355   6.299   5.418   5.152  0.1187 -0.0024  0.0589
18103THY    HA433356   6.259   5.317   5.159 -1.7586 -2.7222  0.5174
18103THY    CA533357   6.237   5.498   5.054  0.2634 -0.6042  0.0457
18103THY    CM133358   6.128   5.442   4.968 -0.3288 -0.4702 -0.0791
18103THY    HM133359   6.127   5.332   4.976 -1.2314 -0.5188 -0.0830
18103THY    HM233360   6.148   5.461   4.862  1.4618 -0.4192 -1.4687
18103THY    HM333361   6.027   5.480   4.989  0.1337 -1.7938  2.0203
18103THY    CA633362   6.285   5.627   5.033 -0.9786  0.3182  0.8292
18103THY    HA633363   6.238   5.682   4.952 -3.6442 -0.9188 -2.9152
18104THY      O33364   8.125   7.751   2.545 -0.0124  0.1182  0.0198
18104THY     HO33365   8.084   7.812   2.481 -0.3620  1.6941  1.4866
18104THY    CA133366   8.165   7.634   2.495 -0.1039  0.2538 -0.1903
18104THY    CA233367   8.189   7.524   2.588  0.0442 -0.1908 -0.3322
18104THY    CP133368   8.173   7.553   2.742 -0.2629 -0.1362 -0.6721
18104THY    HP133369   8.190   7.660   2.757  0.6281 -2.0713 -0.4893
18104THY    CP233370   8.280   7.485   2.825  0.0435  0.2654  0.7235
18104THY    HP233371   8.383   7.510   2.795 -0.5741 -2.4862  0.2471
18104THY    HP333372   8.260   7.379   2.809 -1.9185 -0.9647  1.2289
18104THY    HP433373   8.264   7.506   2.932 -1.4159 -0.4039  3.5279
18104THY    CP333374   8.032   7.529   2.786 -0.0034  0.8146  0.1442
18104THY    HP533375   7.952   7.575   2.727 -0.5033  0.3415 -1.2541
18104THY    HP633376   8.014   7.583   2.880 -2.5570  0.5000 -0.0272
18104THY    HP733377   7.996   7.425   2.792  0.0219 -3.1543 -0.2563
18104THY    CA333378   8.217   7.394   2.542 -0.6800 -0.1470  0.1245
18104THY    HA333379   8.225   7.313   2.614  0.6714 -0.7477 -0.3029
18104THY    CA433380   8.242   7.376   2.407  0.4519 -0.3734 -0.5059
18104THY    HA433381   8.272   7.279   2.367  1.4315  0.0269 -0.3816
18104THY    CA533382   8.225   7.483   2.318 -0.7239 -0.4549  0.0864
18104THY    CM133383   8.238   7.448   2.176  0.6852  0.5237 -0.5978
18104THY    HM133384   8.335   7.403   2.153  0.9247 -1.3821  0.7721
18104THY    HM233385   8.228   7.543   2.122  0.3946 -0.2110 -1.0322
18104THY    HM333386   8.162   7.376   2.142 -0.9096  1.3708  0.6208
18104THY    CA633387   8.188   7.614   2.359 -0.6052 -0.0808 -0.1112
18104THY    HA633388   8.175   7.688   2.281 -0.3904 -1.0303 -1.0392
18105THY      O33389   2.543   2.884   5.874 -0.1113 -0.2626  0.5415
18105THY     HO33390   2.623   2.839   5.841  0.1142  0.3879  0.4499
18105THY    CA133391   2.487   2.947   5.771 -0.5278  0.2015 -0.2945
18105THY    CA233392   2.352   2.981   5.774 -0.2919  0.4564 -0.2598
18105THY    CP133393   2.264   2.961   5.906 -0.2450 -0.1325 -0.1174
18105THY    HP133394   2.314   2.882   5.962 -0.4823 -0.3925 -0.4539
18105THY    CP233395   2.116   2.921   5.889  0.0803 -0.0805 -0.3121
18105THY    HP233396   2.099   2.884   5.788 -0.2397 -0.8804  1.9191
18105THY    HP333397   2.046   3.000   5.917  0.4318 -1.1649  0.3934
18105THY    HP433398   2.095   2.843   5.964  0.5488 -0.4889 -0.8381
18105THY    CP333399   2.266   3.086   5.986  0.3159 -0.3248 -0.3161
18105THY    HP533400   2.225   3.067   6.086 -0.1399 -0.1362  1.4740
18105THY    HP633401   2.224   3.177   5.942  1.0174  0.5891  0.4698
18105THY    HP733402   2.371   3.114   6.003  0.4309 -1.6190  0.1056
18105THY    CA333403   2.295   3.064   5.674 -0.4735  0.1062 -0.9690
18105THY    HA333404   2.193   3.100   5.681 -0.7712 -3.0586 -0.9791
18105THY    CA433405   2.381   3.119   5.570 -0.6079 -0.1581  0.4862
18105THY    HA433406   2.339   3.186   5.496 -2.2447  1.0307  0.8570
18105THY    CA533407   2.512   3.075   5.560  0.1208  0.7762 -0.1827
18105THY    CM133408   2.585   3.123   5.440 -0.0084  0.2338  0.2491
18105THY    HM133409   2.546   3.085   5.344  0.3834 -0.6958  2.0411
18105THY    HM233410   2.685   3.079   5.447  0.1982  3.5769  0.9752
18105THY    HM333411   2.593   3.232   5.429 -1.0412 -0.4843  0.2719
18105THY    CA633412   2.566   2.998   5.662  0.0448 -0.6738  0.4764
18105THY    HA633413   2.670   2.968   5.649 -0.4092  0.8572 -2.0768
18106THY      O33414   8.677   7.129   4.122 -0.3940  0.1209 -0.5372
18106THY     HO33415   8.673   7.033   4.139 -0.9486  0.3914 -0.4692
18106THY    CA133416   8.559   7.157   4.054 -0.1694 -0.0101 -0.6886
18106THY    CA233417   8.534   7.295   4.027 -0.8726  0.7834 -0.6902
18106THY    CP133418   8.621   7.418   4.082  1.1084 -0.4187 -0.0801
18106THY    HP133419   8.708   7.376   4.135 -1.0090  1.9311 -1.7512
18106THY    CP233420   8.534   7.490   4.197 -0.6304 -0.2770  0.0134
18106THY    HP233421   8.491   7.416   4.265  2.6949  0.7543 -1.1580
18106THY    HP333422   8.448   7.545   4.157 -0.8937  0.9644  0.5406
18106THY    HP433423   8.594   7.567   4.249  0.9870 -1.6469 -0.2480
18106THY    CP333424   8.651   7.522   3.967 -0.1981  0.3774  0.1967
18106THY    HP533425   8.673   7.623   4.003  0.3024  3.3161 -0.8639
18106THY    HP633426   8.559   7.547   3.912 -1.0352  1.1236 -1.1463
18106THY    HP733427   8.739   7.489   3.909 -0.4663  1.1659 -2.0588
18106THY    CA333428   8.409   7.325   3.963  0.5533 -0.0962 -0.0687
18106THY    HA333429   8.377   7.427   3.949 -2.2327  2.6295 -0.4218
18106THY    CA433430   8.327   7.215   3.936 -0.1030  0.0623  0.6160
18106THY    HA433431   8.225   7.233   3.902  0.1246  0.4879  3.0802
18106THY    CA533432   8.359   7.085   3.958  0.5619 -0.4546  0.8172
18106THY    CM133433   8.263   6.969   3.931  0.3011  0.1327 -0.7465
18106THY    HM133434   8.297   6.919   3.839  4.5889  1.8129 -1.4455
18106THY    HM233435   8.162   7.007   3.915  0.3043  1.5979 -0.0781
18106THY    HM333436   8.275   6.895   4.011  1.6376  0.3994 -0.2718
18106THY    CA633437   8.477   7.050   4.023 -0.0509  0.2990  0.2454
18106THY    HA633438   8.511   6.947   4.033 -1.4689  0.0390 -0.2625
18107THY      O33439   2.140   1.092   2.930  0.0937 -0.6150 -0.0236
18107THY     HO33440   2.129   1.182   2.895  1.1755 -1.0290 -0.0270
18107THY    CA133441   2.268   1.068   2.961 -0.4923 -0.2623  0.8637
18107THY    CA233442   2.312   0.946   2.996  0.5247 -0.1167 -0.1368
18107THY    CP133443   2.205   0.840   3.005  0.1047 -0.1155  0.1369
18107THY    HP133444   2.135   0.853   2.923 -0.5937  0.3650 -0.5593
18107THY    CP233445   2.131   0.857   3.135  0.5807  0.5439  0.2204
18107THY    HP233446   2.053   0.782   3.151 -0.6510 -2.4117  0.7174
18107THY    HP333447   2.080   0.954   3.127  4.9420 -1.8670  2.6445
18107THY    HP433448   2.208   0.863   3.213  1.5873 -0.3062 -1.2263
18107THY    CP333449   2.249   0.698   2.992 -0.5237 -0.3114  0.1474
18107THY    HP533450   2.328   0.682   2.918  0.3713  0.8851 -1.1508
18107THY    HP633451   2.169   0.625   2.970  0.5229  0.3003 -1.2248
18107THY    HP733452   2.293   0.675   3.089  1.7875 -0.9766  1.4841
18107THY    CA333453   2.448   0.927   3.030 -0.0555  0.5094 -0.0493
18107THY    HA333454   2.478   0.828   3.062 -1.9357 -0.1357 -0.8659
18107THY    CA433455   2.544   1.027   3.009 -1.0449 -0.1331 -0.1546
18107THY    HA433456   2.650   1.020   3.032 -0.1331 -2.5935  3.0654
18107THY    CA533457   2.496   1.152   2.964  0.4085 -0.3914 -0.3729
18107THY    CM133458   2.593   1.258   2.936  0.4991  0.1526  0.5409
18107THY    HM133459   2.545   1.350   2.969 -0.5192  1.0363 -0.2815
18107THY    HM233460   2.620   1.264   2.830 -2.4064 -0.6372  0.7056
18107THY    HM333461   2.685   1.248   2.996  0.9578 -0.5413  0.5208
18107THY    CA633462   2.361   1.174   2.942 -0.1353 -0.0999  0.2784
18107THY    HA633463   2.329   1.272   2.906 -1.4038  1.6336  0.5448
18108THY      O33464   1.917   0.687   5.025 -1.0718 -0.6520  0.1357
18108THY     HO33465   1.962   0.609   5.062  0.4292  1.0228  1.6942
18108THY    CA133466   1.937   0.771   5.120  0.5269  0.1686  0.3865
18108THY    CA233467   2.016   0.890   5.114  0.0299  0.3716 -0.7211
18108THY    CP133468   2.046   0.957   4.980  0.4721 -0.4136 -0.1612
18108THY    HP133469   2.008   0.898   4.896 -0.4085  0.5969 -1.0700
18108THY    CP233470   2.188   0.970   4.950  0.0555 -0.3369  0.2066
18108THY    HP233471   2.198   1.012   4.849  0.3898  0.4576  2.1911
18108THY    HP333472   2.239   0.874   4.937 -0.4675 -0.1487 -0.0973
18108THY    HP433473   2.237   1.036   5.023  1.1722  0.6035 -1.5837
18108THY    CP333474   1.973   1.092   4.972  0.2620  0.0119  0.1099
18108THY    HP533475   1.980   1.132   4.870 -2.4656 -0.2131  0.2204
18108THY    HP633476   2.013   1.163   5.045  0.3309 -0.2865  0.3794
18108THY    HP733477   1.866   1.076   4.990 -0.0797 -1.7446  0.2373
18108THY    CA333478   2.036   0.951   5.236 -0.1702 -0.4625 -0.8060
18108THY    HA333479   2.095   1.042   5.239 -0.4567 -0.0940 -0.6257
18108THY    CA433480   1.996   0.900   5.356 -0.2962 -0.1259 -0.2530
18108THY    HA433481   2.020   0.950   5.449  0.7691 -0.4873 -0.0834
18108THY    CA533482   1.912   0.787   5.352 -0.7882  0.5901  0.5781
18108THY    CM133483   1.860   0.734   5.480 -0.5841  0.0838  0.4097
18108THY    HM133484   1.771   0.784   5.521 -0.2849  0.1230  0.9249
18108THY    HM233485   1.937   0.746   5.557 -0.7096  0.3587 -0.4926
18108THY    HM333486   1.818   0.633   5.477 -0.9992  0.9258  0.5463
18108THY    CA633487   1.890   0.721   5.237  0.2307 -0.0521 -0.0192
18108THY    HA633488   1.820   0.638   5.234  0.7018 -2.3547 -0.3978
18109THY      O33489   7.546   3.383   3.134  0.4111  0.4967 -0.7509
18109THY     HO33490   7.548   3.377   3.037 -1.7374  0.2823  0.7338
18109THY    CA133491   7.558   3.251   3.167 -0.1274 -0.4360  0.3002
18109THY    CA233492   7.633   3.208   3.282 -0.1794 -0.2428 -0.0424
18109THY    CP133493   7.686   3.308   3.390  0.0170  0.5120 -0.0304
18109THY    HP133494   7.713   3.400   3.338  1.8921  1.6019  0.0764
18109THY    CP233495   7.816   3.258   3.452  0.1996 -0.4249 -0.2755
18109THY    HP233496   7.858   3.320   3.532  0.0981 -0.5482 -0.0484
18109THY    HP333497   7.901   3.247   3.383  0.9717  0.5799 -0.7935
18109THY    HP433498   7.782   3.170   3.508 -0.1924 -1.2794 -0.6778
18109THY    CP333499   7.575   3.332   3.493 -0.2093 -0.0717 -0.3944
18109THY    HP533500   7.518   3.246   3.530  0.2627  2.0245  0.1395
18109THY    HP633501   7.493   3.390   3.448  1.2958 -0.4351  1.5848
18109THY    HP733502   7.624   3.394   3.569 -1.0456  0.0802  0.1029
18109THY    CA333503   7.646   3.071   3.305 -0.5473 -0.3512  0.7085
18109THY    HA333504   7.704   3.029   3.386  1.4527 -1.1939  1.7158
18109THY    CA433505   7.584   2.979   3.223  0.6009  0.2342  0.1240
18109THY    HA433506   7.599   2.872   3.232 -1.6352  0.1575 -0.2391
18109THY    CA533507   7.511   3.023   3.116  0.8567 -0.0119 -0.0672
18109THY    CM133508   7.452   2.919   3.028 -0.1318  0.2262 -0.1850
18109THY    HM133509   7.356   2.879   3.062 -2.1869 -2.3553  2.1782
18109THY    HM233510   7.518   2.833   3.008 -2.0309  0.1431 -1.6775
18109THY    HM333511   7.419   2.967   2.935 -0.5172  0.9514  1.0039
18109THY    CA633512   7.499   3.157   3.085 -0.1183 -0.8581  0.2593
18109THY    HA633513   7.437   3.174   2.998 -0.1604 -1.1086 -1.0839
18110THY      O33514   1.695   5.641   2.603 -0.1370 -0.2816  0.3629
18110THY     HO33515   1.614   5.672   2.559 -0.4407 -1.0150 -1.3285
18110THY    CA133516   1.695   5.694   2.730  0.7686 -0.1483  0.2555
18110THY    CA233517   1.808   5.707   2.811  0.2099 -0.0061  0.1246
18110THY    CP133518   1.940   5.636   2.767 -0.4799  0.0247 -0.1396
18110THY    HP133519   1.899   5.548   2.716 -1.1082 -2.1065  1.3128
18110THY    CP233520   2.034   5.592   2.878  0.4467 -0.3598 -0.2185
18110THY    HP233521   2.123   5.542   2.838  1.7933 -0.7988  2.3663
18110THY    HP333522   1.978   5.531   2.950  2.2202  1.8401  0.6034
18110THY    HP433523   2.069   5.674   2.941 -0.3400 -2.2349  1.6542
18110THY    CP333524   2.024   5.718   2.672  0.5968 -0.0998 -0.4719
18110THY    HP533525   2.108   5.654   2.642 -1.1257 -4.3127 -1.1201
18110THY    HP633526   2.053   5.807   2.728  2.1865  0.5781 -1.3646
18110THY    HP733527   1.973   5.748   2.580 -1.2625  1.3695  1.0904
18110THY    CA333528   1.807   5.765   2.937  0.4809 -0.0330 -1.0945
18110THY    HA333529   1.893   5.784   3.001  0.2191 -0.7895  4.5385
18110THY    CA433530   1.689   5.828   2.983 -0.1130  0.5828 -0.8243
18110THY    HA433531   1.680   5.879   3.078 -1.3975  0.8596 -1.5231
18110THY    CA533532   1.576   5.823   2.894  0.6574  0.7672 -0.2043
18110THY    CM133533   1.447   5.883   2.943 -0.5892  0.4330  0.0209
18110THY    HM133534   1.444   5.888   3.053  1.8301  0.5064  1.8191
18110THY    HM233535   1.358   5.831   2.905 -0.6397 -0.5845  0.8276
18110THY    HM333536   1.449   5.988   2.911 -3.5765 -0.8615 -0.2198
18110THY    CA633537   1.579   5.754   2.773  0.3240 -0.1855  0.5822
18110THY    HA633538   1.488   5.733   2.717  0.8722 -0.6022 -0.7855
18111THY      O33539   1.412   1.645   6.555  0.2098 -0.5464  0.0552
18111THY     HO33540   1.497   1.643   6.602 -0.1219  0.0590  0.0308
18111THY    CA133541   1.372   1.769   6.587 -0.1847  0.5552 -0.4893
18111THY    CA233542   1.272   1.840   6.533  0.2307  0.3829  0.1948
18111THY    CP133543   1.203   1.785   6.402 -0.0775  0.5061 -0.4689
18111THY    HP133544   1.221   1.677   6.410 -1.0797  0.8478 -0.6244
18111THY    CP233545   1.260   1.860   6.276 -0.1277  0.1129  0.0972
18111THY    HP233546   1.369   1.855   6.272 -0.1611  0.5613 -1.2237
18111THY    HP333547   1.231   1.963   6.250  1.3883 -2.1882 -0.0069
18111THY    HP433548   1.222   1.798   6.194 -0.3980  0.7732 -0.6280
18111THY    CP333549   1.048   1.801   6.398 -0.8672 -0.3039 -0.2539
18111THY    HP533550   1.006   1.777   6.299 -2.0651 -0.9780  3.8431
18111THY    HP633551   1.013   1.903   6.416 -1.4310 -0.2523 -0.4481
18111THY    HP733552   1.014   1.725   6.470 -1.6898 -0.5177 -0.0972
18111THY    CA333553   1.238   1.963   6.575  0.1928  0.2052 -0.6367
18111THY    HA333554   1.154   2.018   6.532 -2.2938  1.1476 -3.3922
18111THY    CA433555   1.309   2.023   6.679 -0.0634  0.0733 -0.3779
18111THY    HA433556   1.293   2.126   6.708 -0.0606 -1.3710  0.0530
18111THY    CA533557   1.410   1.952   6.743  0.6121 -0.4617  0.7218
18111THY    CM133558   1.470   1.997   6.864  0.1458 -0.4672  0.0446
18111THY    HM133559   1.569   1.955   6.883  1.5420 -1.4360  2.6119
18111THY    HM233560   1.416   1.978   6.957  1.1858  0.4257  1.2724
18111THY    HM333561   1.491   2.105   6.860  0.0115 -2.9970  0.0431
18111THY    CA633562   1.435   1.825   6.694 -0.4036  0.0482  0.6735
18111THY    HA633563   1.507   1.772   6.755  0.1930 -0.4757  0.8756
18112THY      O33564   4.786   1.159   6.588  0.2171  0.3826 -0.1830
18112THY     HO33565   4.769   1.170   6.493 -3.3296  0.7284 -1.5637
18112THY    CA133566   4.925   1.173   6.596 -0.2055  0.1412  0.0048
18112THY    CA233567   5.001   1.133   6.696  0.0185  0.1679  0.2569
18112THY    CP133568   4.939   1.043   6.808  0.2414 -0.3695 -0.3990
18112THY    HP133569   4.837   1.016   6.777  0.1160 -0.3356  0.0325
18112THY    CP233570   4.931   1.119   6.935  0.1262 -0.0610  0.2463
18112THY    HP233571   5.030   1.154   6.969  0.3840  0.4687 -0.9263
18112THY    HP333572   4.895   1.064   7.023  0.1553 -0.6225 -0.7041
18112THY    HP433573   4.858   1.200   6.928  0.3331 -2.8142  0.2976
18112THY    CP333574   5.006   0.909   6.811 -0.6121 -0.3796  0.0398
18112THY    HP533575   4.977   0.844   6.728  0.5869 -1.0606  0.3262
18112THY    HP633576   4.979   0.851   6.900  1.7208  0.6405  0.3796
18112THY    HP733577   5.116   0.917   6.810 -0.3991  2.1232 -1.5480
18112THY    CA333578   5.130   1.183   6.714 -0.3650  0.3347 -0.2703
18112THY    HA333579   5.183   1.155   6.804 -0.2586  0.0387 -1.0460
18112THY    CA433580   5.191   1.248   6.608 -0.4386 -0.0764 -0.6715
18112THY    HA433581   5.297   1.268   6.618 -0.1018 -1.5935 -1.5477
18112THY    CA533582   5.118   1.280   6.496  0.3111 -0.1629  0.6817
18112THY    CM133583   5.183   1.346   6.377  0.4035  0.3332  0.3366
18112THY    HM133584   5.292   1.354   6.374  0.4235  1.9186  1.0251
18112THY    HM233585   5.141   1.446   6.359  0.3909 -0.6255  0.1647
18112THY    HM333586   5.160   1.292   6.284 -0.6595  1.1286 -0.6262
18112THY    CA633587   4.985   1.241   6.488 -0.0383 -0.6262 -0.3494
18112THY    HA633588   4.926   1.278   6.404  2.6186 -2.7467 -0.5469
18113THY      O33589   0.369   4.906   2.965  0.5174  0.3615 -0.0517
18113THY     HO33590   0.334   4.860   2.887 -0.7264  1.4256 -0.9496
18113THY    CA133591   0.498   4.930   2.935 -0.0724  0.4451  0.7808
18113THY    CA233592   0.586   5.004   3.025  0.0347 -0.0934 -0.1923
18113THY    CP133593   0.526   5.074   3.147 -0.7652 -0.3342  0.8699
18113THY    HP133594   0.430   5.030   3.176  0.5493  1.8019 -0.8103
18113THY    CP233595   0.499   5.226   3.101 -0.4365 -0.3854  0.8017
18113THY    HP233596   0.423   5.236   3.023  0.1361 -1.1966 -0.8063
18113THY    HP333597   0.594   5.262   3.061  0.9615  0.8064 -1.3289
18113THY    HP433598   0.466   5.295   3.180  0.8969 -0.5597  1.6737
18113THY    CP333599   0.612   5.079   3.274  0.2706  0.2006 -0.2487
18113THY    HP533600   0.707   5.133   3.266 -1.0750 -0.8592  2.1444
18113THY    HP633601   0.624   4.973   3.300 -1.9007 -0.7050 -0.7830
18113THY    HP733602   0.556   5.131   3.353 -0.3780 -1.3371  1.4830
18113THY    CA333603   0.726   5.023   2.994  0.0747 -0.0439  0.4560
18113THY    HA333604   0.791   5.068   3.068 -0.3971  1.4868 -1.2557
18113THY    CA433605   0.772   4.953   2.881  0.3682  0.4232  0.0734
18113THY    HA433606   0.875   4.963   2.849  0.6459  0.4588 -2.0729
18113THY    CA533607   0.687   4.883   2.795 -0.5229 -0.0857 -0.0001
18113THY    CM133608   0.733   4.817   2.661  0.1115 -0.0303 -0.7226
18113THY    HM133609   0.824   4.757   2.673  0.2747 -0.6425 -0.6047
18113THY    HM233610   0.759   4.905   2.600  0.7166  0.4650 -0.5494
18113THY    HM333611   0.651   4.764   2.612 -2.7918  1.3382  2.1220
18113THY    CA633612   0.551   4.864   2.830 -0.3802 -0.6842  0.5245
18113THY    HA633613   0.495   4.783   2.785  0.6130  2.6459 -2.2404
18114THY      O33614   3.524   2.436   5.600 -0.2575 -0.3438 -0.2123
18114THY     HO33615   3.552   2.363   5.543 -0.9117  1.0587 -1.6063
18114THY    CA133616   3.548   2.551   5.535  0.5749  0.0998  0.1979
18114THY    CA233617   3.509   2.674   5.593 -0.1708  0.7222 -0.1587
18114THY    CP133618   3.441   2.673   5.729  0.6349 -0.7257 -0.4938
18114THY    HP133619   3.462   2.576   5.775 -2.1371 -0.7477 -1.2011
18114THY    CP233620   3.291   2.704   5.732 -0.7656 -0.2226  0.4057
18114THY    HP233621   3.252   2.694   5.835 -0.1340  0.0227  0.4087
18114THY    HP333622   3.230   2.630   5.679 -1.3257  2.8812 -1.5702
18114THY    HP433623   3.281   2.805   5.693  1.5542  1.2702  1.3041
18114THY    CP333624   3.512   2.778   5.821 -0.3108  0.0105  0.0830
18114THY    HP533625   3.621   2.762   5.814 -0.1645  2.0004 -0.0202
18114THY    HP633626   3.492   2.765   5.928 -0.4863  0.1519  1.3992
18114THY    HP733627   3.498   2.884   5.800 -0.2716  0.4752  0.1782
18114THY    CA333628   3.522   2.789   5.517  0.4106  0.1723 -0.1896
18114THY    HA333629   3.489   2.886   5.553 -1.0503 -2.0171  0.1934
18114THY    CA433630   3.574   2.780   5.387 -0.1752  0.3411 -0.2309
18114THY    HA433631   3.589   2.872   5.331  0.1721 -0.2143 -0.6223
18114THY    CA533632   3.624   2.658   5.332 -0.4553  0.5285 -0.0434
18114THY    CM133633   3.681   2.654   5.199  0.2013 -0.3411  0.1953
18114THY    HM133634   3.778   2.603   5.195 -0.2022 -3.5405 -0.5474
18114THY    HM233635   3.695   2.754   5.156 -1.9765 -0.3906  0.5311
18114THY    HM333636   3.617   2.598   5.130  1.0524 -2.4136  1.6468
18114THY    CA633637   3.602   2.543   5.405  0.1243 -1.3357 -0.0377
18114THY    HA633638   3.616   2.446   5.358 -0.9753 -1.4932 -0.1317
18115THY      O33639   5.673   0.622   6.480  0.1840 -0.0558 -0.5675
18115THY     HO33640   5.691   0.702   6.428 -0.6293 -0.7898 -0.8393
18115THY    CA133641   5.546   0.648   6.519 -0.3552 -0.2572  0.3075
18115THY    CA233642   5.477   0.552   6.599 -0.3775  0.1610  0.2007
18115THY    CP133643   5.546   0.417   6.633  0.2706  1.1845 -0.0036
18115THY    HP133644   5.594   0.387   6.539 -1.2045  0.6976 -0.9422
18115THY    CP233645   5.447   0.308   6.666 -0.4252 -0.0043 -0.3267
18115THY    HP233646   5.362   0.301   6.598 -0.0833 -0.3836 -0.9272
18115THY    HP333647   5.401   0.319   6.765  0.9061  0.6184 -0.1928
18115THY    HP433648   5.498   0.211   6.671  0.3411  0.5396  0.0903
18115THY    CP333649   5.649   0.440   6.746 -1.0170 -0.6437  0.0413
18115THY    HP533650   5.604   0.476   6.839  1.8264  0.7240  0.3439
18115THY    HP633651   5.734   0.506   6.724  0.1492 -0.4573 -1.3444
18115THY    HP733652   5.703   0.350   6.777  0.0295  0.0707  0.8908
18115THY    CA333653   5.346   0.575   6.639  0.0119  0.0553 -0.4068
18115THY    HA333654   5.285   0.507   6.697  1.0707  1.6070 -0.0826
18115THY    CA433655   5.292   0.702   6.615  0.3528 -0.1904 -0.4442
18115THY    HA433656   5.198   0.729   6.662  1.4957  0.8705  2.0334
18115THY    CA533657   5.357   0.786   6.528  0.2575 -0.2325 -0.3579
18115THY    CM133658   5.287   0.906   6.482  0.9096  0.5431  0.1436
18115THY    HM133659   5.302   0.920   6.375  0.7277  0.7396  2.1086
18115THY    HM233660   5.326   0.990   6.542 -1.7592  0.3792  1.6114
18115THY    HM333661   5.181   0.900   6.509  0.7869  0.3429  1.1510
18115THY    CA633662   5.487   0.760   6.480 -0.3359 -0.0977 -0.2099
18115THY    HA633663   5.536   0.840   6.425  0.2398  0.9212  0.1577
18116THY      O33664   4.819   2.388   3.998  0.1874  0.1145 -0.4280
18116THY     HO33665   4.804   2.443   4.077 -1.8267  1.0615 -2.2230
18116THY    CA133666   4.770   2.264   4.023 -0.0077  0.0632 -0.0515
18116THY    CA233667   4.734   2.165   3.929 -0.4147 -0.1755 -0.4224
18116THY    CP133668   4.738   2.209   3.783 -0.4907  0.0408  0.0289
18116THY    HP133669   4.821   2.274   3.755 -0.5648  0.3313  0.2496
18116THY    CP233670   4.616   2.302   3.749 -0.5237 -0.0135 -0.2697
18116THY    HP233671   4.626   2.397   3.803  0.3184 -0.6844  0.0419
18116THY    HP333672   4.528   2.262   3.799 -0.4753  0.6251  0.3873
18116THY    HP433673   4.599   2.332   3.645  1.3011 -0.1604  0.3910
18116THY    CP333674   4.748   2.095   3.678 -0.4655 -0.4654 -0.7101
18116THY    HP533675   4.759   2.144   3.581  1.5857 -1.9211 -3.7335
18116THY    HP633676   4.657   2.034   3.684  0.0887  0.9866 -1.4256
18116THY    HP733677   4.836   2.035   3.704 -0.4546  0.5586 -0.2584
18116THY    CA333678   4.700   2.036   3.970  0.1916 -0.4221  0.0223
18116THY    HA333679   4.674   1.963   3.894  2.2360 -1.0894 -0.0690
18116THY    CA433680   4.687   2.003   4.106  0.6017  0.3348  0.2139
18116THY    HA433681   4.648   1.904   4.129  1.8790 -1.5921 -0.7986
18116THY    CA533682   4.721   2.094   4.203 -0.9938  0.0705 -0.0234
18116THY    CM133683   4.699   2.062   4.342 -0.1403  0.1071  0.1553
18116THY    HM133684   4.670   1.958   4.360  2.6846  0.6308 -0.6269
18116THY    HM233685   4.619   2.132   4.370 -1.6479 -1.9679 -0.6385
18116THY    HM333686   4.790   2.078   4.400  1.1356 -1.5506 -0.7588
18116THY    CA633687   4.773   2.222   4.161  0.1557 -0.4807 -0.3458
18116THY    HA633688   4.802   2.296   4.235  0.1935 -2.5921  1.8774
18117THY      O33689   3.970   1.302   6.394 -0.1297  0.4895  0.0521
18117THY     HO33690   4.062   1.332   6.394 -0.5569 -0.2569  1.4323
18117THY    CA133691   3.960   1.203   6.492  0.0033 -0.3936 -0.2526
18117THY    CA233692   3.841   1.121   6.495  0.1295 -0.6847  0.3044
18117THY    CP133693   3.739   1.134   6.380 -0.1691 -0.1194  0.3224
18117THY    HP133694   3.768   1.217   6.315 -2.4475  1.0214  2.1149
18117THY    CP233695   3.593   1.164   6.427  0.0572 -0.3017 -0.1983
18117THY    HP233696   3.555   1.089   6.499 -3.2447 -2.4206 -0.7783
18117THY    HP333697   3.526   1.181   6.342  1.4040 -0.7975  3.2684
18117THY    HP433698   3.592   1.261   6.477  1.4135 -2.5693  1.0587
18117THY    CP333699   3.743   1.008   6.295  0.4091 -0.0346 -0.3081
18117THY    HP533700   3.711   1.022   6.191 -0.0765  0.2073  0.4569
18117THY    HP633701   3.680   0.926   6.331 -0.6482 -0.7878  0.1491
18117THY    HP733702   3.842   0.961   6.287  1.4673  1.6265  1.4858
18117THY    CA333703   3.824   1.033   6.603 -0.8137  0.0737 -0.1953
18117THY    HA333704   3.741   0.964   6.618  0.5366  0.2120 -1.8662
18117THY    CA433705   3.923   1.031   6.702 -0.5567 -0.6688  0.7878
18117THY    HA433706   3.908   0.969   6.789  1.4583  0.2117  1.4567
18117THY    CA533707   4.038   1.110   6.693 -0.1484 -0.1109 -0.6621
18117THY    CM133708   4.144   1.107   6.803 -0.4795  0.2012  0.0659
18117THY    HM133709   4.106   1.027   6.868 -0.2599 -0.0979 -0.2859
18117THY    HM233710   4.150   1.203   6.855  0.4659  0.1643  0.0384
18117THY    HM333711   4.241   1.067   6.769 -1.0941  0.4557 -1.7063
18117THY    CA633712   4.057   1.202   6.589 -0.7237  0.3626 -0.3986
18117THY    HA633713   4.146   1.264   6.584 -0.1303  1.0277 -1.1825
18118THY      O33714   7.768   8.355   3.814 -0.2256  0.4119  0.0858
18118THY     HO33715   7.726   8.427   3.864 -1.0893 -2.6964  1.9315
18118THY    CA133716   7.842   8.414   3.723  0.3236 -0.3197  0.7824
18118THY    CA233717   7.942   8.344   3.659  0.5523 -0.1498 -0.0316
18118THY    CP133718   7.966   8.203   3.692 -0.6830  0.2223 -0.2120
18118THY    HP133719   7.954   8.197   3.801 -1.7310  0.0759 -1.4394
18118THY    CP233720   8.113   8.153   3.650  0.5265 -0.2135  0.4813
18118THY    HP233721   8.194   8.215   3.691  0.0082 -0.7984  1.5798
18118THY    HP333722   8.128   8.125   3.545  0.2137  0.0888 -0.8732
18118THY    HP433723   8.135   8.055   3.695 -0.7411 -0.7442 -0.0706
18118THY    CP333724   7.868   8.114   3.617  0.3834 -0.2435 -0.4387
18118THY    HP533725   7.896   8.012   3.644 -1.7058 -1.0205 -1.2851
18118THY    HP633726   7.875   8.123   3.508 -1.1131 -0.3386 -0.0670
18118THY    HP733727   7.761   8.132   3.632  0.8645  1.7430  1.1809
18118THY    CA333728   8.018   8.408   3.561  0.0042  0.4326 -0.6243
18118THY    HA333729   8.102   8.357   3.515 -0.3813  0.3675 -1.2149
18118THY    CA433730   7.982   8.547   3.527 -0.3932  0.9926  0.6781
18118THY    HA433731   8.053   8.600   3.464 -1.1178  0.5695  1.1597
18118THY    CA533732   7.880   8.612   3.597 -0.3805  0.7301  0.5765
18118THY    CM133733   7.858   8.757   3.568  0.1582  0.3381 -0.0889
18118THY    HM133734   7.864   8.804   3.667 -0.1991 -0.1140  0.9520
18118THY    HM233735   7.760   8.777   3.524 -0.2599  0.7092 -1.2728
18118THY    HM333736   7.940   8.793   3.505 -0.5264  1.0889  3.0879
18118THY    CA633737   7.803   8.548   3.690  0.1028  0.1559  0.3872
18118THY    HA633738   7.721   8.596   3.744 -0.0023 -0.0584  0.4473
18119THY      O33739   1.819   6.746   7.591  0.5764 -0.0711 -0.0554
18119THY     HO33740   1.723   6.737   7.573  0.7843 -1.3534  0.1093
18119THY    CA133741   1.877   6.762   7.476  0.3041  0.2482  0.0612
18119THY    CA233742   2.012   6.741   7.459  0.0230  0.3127  0.5545
18119THY    CP133743   2.106   6.693   7.570 -0.6869 -0.1456  0.4750
18119THY    HP133744   2.065   6.735   7.662  0.6797 -0.0588  1.6989
18119THY    CP233745   2.244   6.748   7.550 -0.3605  0.2147 -0.0285
18119THY    HP233746   2.234   6.853   7.518  0.1407  0.4977  0.1109
18119THY    HP333747   2.298   6.688   7.476 -0.4466  1.8426 -2.2333
18119THY    HP433748   2.296   6.755   7.646 -0.7667  0.3250  2.2929
18119THY    CP333749   2.112   6.540   7.587 -0.3762 -0.2292  0.5637
18119THY    HP533750   2.188   6.525   7.664 -0.7524  0.4105  1.8430
18119THY    HP633751   2.149   6.493   7.495  0.8229  0.2208  0.6005
18119THY    HP733752   2.012   6.500   7.608  0.6261 -0.1113 -2.0667
18119THY    CA333753   2.064   6.779   7.330  0.1227  0.2546 -0.5954
18119THY    HA333754   2.168   6.771   7.303  0.1591 -0.3434  1.4517
18119THY    CA433755   1.977   6.827   7.231  0.0275  0.5462  0.0752
18119THY    HA433756   2.020   6.864   7.139 -1.0729  0.3162  0.8133
18119THY    CA533757   1.840   6.827   7.246 -0.0855 -0.7836  0.1118
18119THY    CM133758   1.760   6.887   7.134  0.3511 -0.2811 -0.5173
18119THY    HM133759   1.825   6.940   7.063  0.3111  0.5826  0.7378
18119THY    HM233760   1.676   6.952   7.161 -2.5001 -1.5452 -3.3775
18119THY    HM333761   1.701   6.807   7.089 -0.4882 -0.1702  0.0252
18119THY    CA633762   1.784   6.796   7.373 -0.6833 -0.2739 -0.2830
18119THY    HA633763   1.682   6.823   7.396 -1.4686 -1.5420 -1.9589
18120THY      O33764   7.239   3.524   6.855 -0.1253 -0.3731 -0.3461
18120THY     HO33765   7.227   3.589   6.784 -1.3763  0.2328  0.1200
18120THY    CA133766   7.291   3.416   6.804 -0.3436  0.4366  0.6059
18120THY    CA233767   7.357   3.319   6.883  0.7732  0.3745  0.2100
18120THY    CP133768   7.371   3.347   7.031  0.2721 -0.3116  0.0249
18120THY    HP133769   7.292   3.417   7.059 -1.1604 -1.8540 -0.8787
18120THY    CP233770   7.508   3.399   7.080 -0.7209  0.2586  0.2746
18120THY    HP233771   7.507   3.503   7.047 -0.4834  2.4906  1.0366
18120THY    HP333772   7.590   3.342   7.035  0.3218  2.3837  0.0215
18120THY    HP433773   7.523   3.406   7.188 -0.2850  0.1285  1.5261
18120THY    CP333774   7.332   3.218   7.109 -0.5739 -0.1229  0.5065
18120THY    HP533775   7.225   3.196   7.104 -0.7398 -1.9601  1.5148
18120THY    HP633776   7.357   3.213   7.215 -1.0204  0.3311  4.4888
18120THY    HP733777   7.397   3.138   7.073 -0.9560  0.5313 -0.1030
18120THY    CA333778   7.408   3.210   6.818 -0.4186  0.6953  0.2779
18120THY    HA333779   7.471   3.136   6.868 -0.1664  1.1961  0.8182
18120THY    CA433780   7.396   3.188   6.680 -0.4084 -0.3245  0.3222
18120THY    HA433781   7.432   3.094   6.639 -1.1209  0.2393 -0.1981
18120THY    CA533782   7.312   3.269   6.610 -0.6268 -0.1880 -0.1029
18120THY    CM133783   7.272   3.247   6.469 -0.3996 -0.3104  0.4611
18120THY    HM133784   7.215   3.156   6.448 -0.1037  0.3287  0.1240
18120THY    HM233785   7.363   3.237   6.408  1.6254  2.5349  0.2227
18120THY    HM333786   7.212   3.331   6.432 -1.4897 -0.3118 -0.2982
18120THY    CA633787   7.271   3.384   6.665  0.0452 -0.7740 -0.2635
18120THY    HA633788   7.208   3.456   6.615  1.5095  0.3960  1.9638
18121THY      O33789   6.885   6.356   3.272  0.4389 -0.4019 -0.1048
18121THY     HO33790   6.859   6.275   3.225 -1.3330  0.8429 -0.3270
18121THY    CA133791   6.776   6.437   3.262  0.9451  0.3584 -0.0653
18121THY    CA233792   6.790   6.568   3.221 -0.5422  0.1649 -0.1672
18121THY    CP133793   6.929   6.621   3.192  0.2550  0.3872 -0.6426
18121THY    HP133794   7.015   6.559   3.220  2.3959 -1.8799  1.1090
18121THY    CP233795   6.954   6.758   3.263 -0.0466  0.0673  0.2263
18121THY    HP233796   7.060   6.784   3.266  0.0687  1.7751 -0.2983
18121THY    HP333797   6.919   6.747   3.367 -1.5668 -0.3047  1.2110
18121THY    HP433798   6.893   6.830   3.208 -2.8820 -0.6595 -2.5062
18121THY    CP333799   6.951   6.628   3.040 -0.3869 -0.3199 -0.8654
18121THY    HP533800   6.885   6.703   2.995 -0.2534  0.7671 -0.0709
18121THY    HP633801   6.937   6.529   2.995  0.0240 -0.5427 -0.8256
18121THY    HP733802   7.051   6.666   3.018  0.0215  1.2819 -0.9468
18121THY    CA333803   6.680   6.644   3.197  0.3225 -0.4844  0.1664
18121THY    HA333804   6.700   6.743   3.156  1.6722 -0.5079 -0.1061
18121THY    CA433805   6.554   6.598   3.229  0.1097  0.9518  0.1716
18121THY    HA433806   6.475   6.667   3.198  1.1063 -3.3893 -0.3081
18121THY    CA533807   6.536   6.466   3.273 -0.0268 -0.0933  0.1942
18121THY    CM133808   6.400   6.412   3.305 -0.0437  0.3110  0.0234
18121THY    HM133809   6.345   6.491   3.356  1.1423 -1.4637  2.0871
18121THY    HM233810   6.398   6.315   3.357  1.1563 -1.3805 -0.9648
18121THY    HM333811   6.351   6.388   3.211 -0.1203  0.6695 -1.3074
18121THY    CA633812   6.648   6.392   3.293 -0.0320  0.0881 -0.0826
18121THY    HA633813   6.635   6.292   3.334  0.7107 -1.2731 -0.7606
18122THY      O33814   3.407   3.108   4.457  0.4073 -0.1161  0.8528
18122THY     HO33815   3.466   3.032   4.439 -3.3099 -2.5339 -1.7895
18122THY    CA133816   3.286   3.060   4.431  0.3932 -0.1941  0.0091
18122THY    CA233817   3.167   3.116   4.481 -0.4800  0.6523 -0.8215
18122THY    CP133818   3.174   3.236   4.580 -0.2451  0.6632  0.7462
18122THY    HP133819   3.262   3.225   4.645  0.1946 -0.1456 -0.6954
18122THY    CP233820   3.049   3.234   4.675 -0.0650  0.4148  0.4998
18122THY    HP233821   3.045   3.130   4.709 -0.5960 -0.4619  0.2244
18122THY    HP333822   2.951   3.260   4.633  0.1616 -0.3745  0.1040
18122THY    HP433823   3.083   3.296   4.759  4.5171 -0.1637 -0.8492
18122THY    CP333824   3.188   3.374   4.500 -0.0658  0.0224 -0.1906
18122THY    HP533825   3.195   3.451   4.578 -1.0965 -0.1308  0.0755
18122THY    HP633826   3.099   3.399   4.442 -0.6834  0.6932 -0.7466
18122THY    HP733827   3.277   3.362   4.438  0.4170  0.4145  1.2591
18122THY    CA333828   3.044   3.064   4.437  0.2674 -0.3587  0.1644
18122THY    HA333829   2.955   3.119   4.468  0.6739  0.1724  0.5311
18122THY    CA433830   3.040   2.949   4.351  0.1931 -0.5030 -0.0445
18122THY    HA433831   2.944   2.910   4.315 -1.7449  2.6352  1.4609
18122THY    CA533832   3.156   2.890   4.305  0.2687 -0.5260  0.4602
18122THY    CM133833   3.147   2.773   4.208  0.2787  0.4583 -0.6055
18122THY    HM133834   3.065   2.708   4.243 -1.6117  1.1389  1.9818
18122THY    HM233835   3.244   2.722   4.205  0.0598 -0.6896 -0.9932
18122THY    HM333836   3.131   2.805   4.105 -1.0768  1.1260  1.0128
18122THY    CA633837   3.280   2.950   4.339 -0.3729  0.0464  0.1396
18122THY    HA633838   3.370   2.916   4.291 -0.1382 -0.1191  0.9672
18123THY      O33839   0.900   6.123   4.752 -0.4253  0.5229  0.3984
18123THY     HO33840   0.907   6.124   4.655  0.0797  0.5649  0.7286
18123THY    CA133841   0.836   6.241   4.780 -0.1261 -0.0087  1.0323
18123THY    CA233842   0.778   6.266   4.911 -0.0444 -0.3572 -0.0772
18123THY    CP133843   0.808   6.179   5.034 -0.0713  0.3666  0.5664
18123THY    HP133844   0.847   6.082   5.000  2.2305  0.6041  1.3378
18123THY    CP233845   0.690   6.153   5.127  0.0944 -0.4246  0.3848
18123THY    HP233846   0.671   6.242   5.188  1.6870 -0.0776  0.5211
18123THY    HP333847   0.709   6.069   5.194  0.8761  0.2630  1.0849
18123THY    HP433848   0.606   6.127   5.062  1.3528 -1.0903 -2.3348
18123THY    CP333849   0.926   6.244   5.104  0.2164 -0.0667 -0.2917
18123THY    HP533850   1.003   6.259   5.028 -2.8604 -3.6267 -0.8802
18123THY    HP633851   0.951   6.176   5.186  0.3768  1.1151  1.1432
18123THY    HP733852   0.895   6.344   5.135  0.6830  0.2333 -0.2393
18123THY    CA333853   0.720   6.390   4.935 -0.4336 -0.0676  0.3663
18123THY    HA333854   0.663   6.428   5.019 -1.5086 -1.6019  2.4244
18123THY    CA433855   0.720   6.476   4.827 -0.2003 -0.0554  0.3099
18123THY    HA433856   0.677   6.574   4.842  0.0708 -1.9182  0.7452
18123THY    CA533857   0.765   6.444   4.703 -0.2898  0.0886 -0.2826
18123THY    CM133858   0.766   6.549   4.594 -0.0603 -0.7037 -0.3141
18123THY    HM133859   0.668   6.559   4.545 -0.0494 -0.3143  2.7336
18123THY    HM233860   0.834   6.539   4.509  0.3190 -0.3427 -0.8365
18123THY    HM333861   0.772   6.649   4.640  0.9644 -0.5970 -0.4220
18123THY    CA633862   0.824   6.327   4.679 -0.4309  0.1886  1.0233
18123THY    HA633863   0.866   6.302   4.581  2.2252  1.3105  0.7877
18124THY      O33864   1.354   2.844   1.483  0.2327  0.2258  0.1393
18124THY     HO33865   1.271   2.823   1.439  0.8221 -1.0131  0.3245
18124THY    CA133866   1.309   2.851   1.608 -0.3174 -0.1854 -0.2831
18124THY    CA233867   1.388   2.813   1.717  0.8896  0.7170 -1.2650
18124THY    CP133868   1.524   2.753   1.689  0.1491  0.2686  0.0068
18124THY    HP133869   1.553   2.743   1.584 -1.8016 -0.5963  2.4123
18124THY    CP233870   1.519   2.606   1.734 -0.1228 -0.1742  0.2358
18124THY    HP233871   1.619   2.561   1.728 -0.5081 -1.6920 -0.4636
18124THY    HP333872   1.444   2.553   1.675 -1.5093  1.3666  0.3934
18124THY    HP433873   1.499   2.605   1.842  1.7049  0.2002 -1.3070
18124THY    CP333874   1.645   2.829   1.767  0.0411  0.0237  0.1433
18124THY    HP533875   1.739   2.773   1.755 -0.9079  1.3352 -1.8196
18124THY    HP633876   1.614   2.833   1.872 -3.9184 -0.8688 -2.3350
18124THY    HP733877   1.639   2.932   1.730 -1.3943 -0.0987  0.0254
18124THY    CA333878   1.333   2.827   1.845 -0.2915 -0.7475  0.7572
18124THY    HA333879   1.384   2.791   1.934 -1.3496 -0.9943 -1.5414
18124THY    CA433880   1.207   2.889   1.861  0.5337 -1.1394 -0.6508
18124THY    HA433881   1.159   2.889   1.958  0.8109 -0.9979 -1.0593
18124THY    CA533882   1.137   2.931   1.750 -0.4639  0.4130 -0.0617
18124THY    CM133883   0.998   2.992   1.766 -0.3415 -0.6073  0.2553
18124THY    HM133884   0.924   2.917   1.737 -0.4516  0.1935  0.0527
18124THY    HM233885   0.981   3.074   1.694  1.8982 -0.3255  1.0392
18124THY    HM333886   0.977   3.021   1.869  2.1461  0.0648 -0.0739
18124THY    CA633887   1.185   2.912   1.625 -0.1356  0.2128  0.4669
18124THY    HA633888   1.126   2.939   1.538  2.7683 -1.2182  2.8612
18125THY      O33889   7.872   4.608   4.849 -0.2904 -0.0288  0.2234
18125THY     HO33890   7.906   4.517   4.860  2.7321  2.8261  1.5076
18125THY    CA133891   7.776   4.600   4.760 -0.1643 -0.0369 -0.3863
18125THY    CA233892   7.702   4.715   4.731 -0.6014  0.2466 -0.2243
18125THY    CP133893   7.737   4.853   4.808 -0.1143  0.0187 -0.8687
18125THY    HP133894   7.839   4.856   4.848 -0.1932  0.1632  0.7085
18125THY    CP233895   7.657   4.871   4.930  0.1957 -0.5427  0.1373
18125THY    HP233896   7.696   4.952   4.994  1.0565 -0.3917 -0.3927
18125THY    HP333897   7.631   4.779   4.984 -0.0239 -2.7447 -1.1542
18125THY    HP433898   7.555   4.894   4.896  0.8064 -1.6703  1.3489
18125THY    CP333899   7.724   4.973   4.721  0.0281  0.4176 -0.2522
18125THY    HP533900   7.792   4.961   4.636  0.5990  1.0684 -2.1109
18125THY    HP633901   7.764   5.058   4.777 -0.4567 -0.3655  0.5012
18125THY    HP733902   7.621   4.998   4.694  0.0759 -0.1339 -0.6278
18125THY    CA333903   7.589   4.705   4.648  1.6273  0.0256  0.3193
18125THY    HA333904   7.530   4.795   4.634 -0.1168  1.7859 -0.4584
18125THY    CA433905   7.565   4.587   4.574 -0.1271 -0.5753  0.5021
18125THY    HA433906   7.482   4.584   4.504 -0.1581 -0.5065 -0.4415
18125THY    CA533907   7.636   4.469   4.606  0.1328 -0.4544  0.1632
18125THY    CM133908   7.609   4.342   4.528 -0.5055 -0.5678 -0.4242
18125THY    HM133909   7.515   4.295   4.561  0.4306  0.1508 -1.8697
18125THY    HM233910   7.692   4.274   4.550  0.6925 -0.0964  1.1251
18125THY    HM333911   7.614   4.347   4.419 -1.0693 -0.6424 -1.3237
18125THY    CA633912   7.746   4.472   4.694 -0.2939 -0.9197 -0.4449
18125THY    HA633913   7.814   4.387   4.690  0.8027 -1.0412  0.4030
18126THY      O33914   1.389   4.003   6.362  0.7912 -0.3307 -0.1280
18126THY     HO33915   1.343   4.047   6.435 -1.3886 -0.6128 -1.7477
18126THY    CA133916   1.493   3.952   6.429 -0.2343 -0.5853  0.8635
18126THY    CA233917   1.591   3.876   6.366 -0.0797  0.2444 -0.1861
18126THY    CP133918   1.599   3.867   6.214  0.1359  0.1497  1.1548
18126THY    HP133919   1.505   3.900   6.167  0.0198 -1.0970 -0.7778
18126THY    CP233920   1.627   3.716   6.168  0.7425  0.4612 -0.1062
18126THY    HP233921   1.733   3.693   6.152  0.1033 -1.1069 -2.3171
18126THY    HP333922   1.593   3.696   6.065  1.8503  0.0971 -0.1524
18126THY    HP433923   1.576   3.652   6.241 -1.0500  1.3215  2.1675
18126THY    CP333924   1.709   3.956   6.146 -1.1511 -0.5220  0.2039
18126THY    HP533925   1.694   3.949   6.038 -1.2882 -0.5347  0.6702
18126THY    HP633926   1.811   3.929   6.176 -1.9900  1.6112 -0.8563
18126THY    HP733927   1.695   4.059   6.181 -0.2188  3.1082 -0.7635
18126THY    CA333928   1.693   3.812   6.441 -0.6714  0.1419  0.1004
18126THY    HA333929   1.773   3.755   6.394 -1.8231  0.3796 -1.8078
18126THY    CA433930   1.698   3.826   6.577  0.5754 -0.1287  0.2355
18126THY    HA433931   1.776   3.780   6.637 -0.6803  0.6329 -0.9996
18126THY    CA533932   1.605   3.917   6.639  0.2644 -0.7830  0.4762
18126THY    CM133933   1.618   3.955   6.785  0.5465  0.0963  0.7882
18126THY    HM133934   1.599   3.860   6.835  1.0635 -2.0885 -0.5214
18126THY    HM233935   1.544   4.033   6.807  0.1450 -0.7632  0.6574
18126THY    HM333936   1.716   3.996   6.812  0.4017  0.5152  0.8712
18126THY    CA633937   1.504   3.974   6.564 -0.6502 -0.1170 -0.1213
18126THY    HA633938   1.428   4.036   6.612 -0.1502 -0.0042  0.4084
18127THY      O33939   3.001   0.692   5.982 -0.5091  0.0802  0.2100
18127THY     HO33940   3.042   0.644   5.907 -1.1021  0.5904 -1.1428
18127THY    CA133941   3.100   0.777   6.031  0.0707  0.7088 -0.5783
18127THY    CA233942   3.073   0.841   6.157 -0.3554 -0.1458 -0.9841
18127THY    CP133943   2.942   0.824   6.237  0.6194  0.0274 -0.0033
18127THY    HP133944   2.870   0.762   6.182  2.1995 -1.3814 -0.6644
18127THY    CP233945   2.877   0.961   6.279 -0.5625  0.2573  0.2673
18127THY    HP233946   2.860   1.023   6.190 -0.8687  0.2633  0.1920
18127THY    HP333947   2.950   1.007   6.347  1.2289 -2.0217  1.0365
18127THY    HP433948   2.789   0.962   6.343 -1.0158 -0.3613  0.8927
18127THY    CP333949   2.952   0.747   6.370 -0.3429 -0.4344  0.2506
18127THY    HP533950   2.979   0.818   6.450 -0.2196  0.3916 -0.7129
18127THY    HP633951   3.022   0.663   6.362  0.6516 -0.1761  1.0174
18127THY    HP733952   2.853   0.707   6.392 -0.4725 -0.8287  0.3548
18127THY    CA333953   3.174   0.923   6.205  0.1844  0.3356 -0.1017
18127THY    HA333954   3.166   0.954   6.309 -1.1393 -0.4091  2.2526
18127THY    CA433955   3.287   0.954   6.124  0.2626  0.8868 -0.5450
18127THY    HA433956   3.373   1.009   6.162  1.8631  0.1447 -2.4217
18127THY    CA533957   3.300   0.909   5.990 -0.0237  0.3361  0.6682
18127THY    CM133958   3.414   0.926   5.902 -0.4778  0.0700 -0.3658
18127THY    HM133959   3.458   0.833   5.863  0.9528  0.6896  0.0168
18127THY    HM233960   3.496   0.977   5.955 -2.9811  3.3354  0.6501
18127THY    HM333961   3.393   1.001   5.826 -0.4865  0.1380 -0.2990
18127THY    CA633962   3.205   0.815   5.946  0.6565  0.7598  0.2658
18127THY    HA633963   3.209   0.777   5.844 -1.4189  1.3180 -1.7248
18128THY      O33964   6.156   7.374   4.889  0.3625 -0.4963  0.4749
18128THY     HO33965   6.084   7.422   4.846 -1.9605  2.2568 -0.2684
18128THY    CA133966   6.257   7.458   4.887 -0.9432 -0.1816 -0.0616
18128THY    CA233967   6.376   7.435   4.961 -0.0986 -0.5676 -0.0638
18128THY    CP133968   6.409   7.297   5.019 -0.7507  0.3593 -0.0340
18128THY    HP133969   6.329   7.225   4.996  1.9807  1.4015 -3.7224
18128THY    CP233970   6.439   7.292   5.164 -0.0663  0.4739  0.1342
18128THY    HP233971   6.530   7.339   5.204 -0.4312 -0.1435  1.4057
18128THY    HP333972   6.433   7.186   5.190  0.6724  2.4506  0.5251
18128THY    HP433973   6.353   7.347   5.206  0.6045  1.0681  0.7519
18128THY    CP333974   6.535   7.238   4.958 -0.7968  0.1615 -0.0972
18128THY    HP533975   6.539   7.274   4.855  2.1132  0.2648  0.0999
18128THY    HP633976   6.530   7.129   4.964 -0.6281  0.3864 -0.0931
18128THY    HP733977   6.623   7.277   5.009 -1.0899 -0.1230  0.9797
18128THY    CA333978   6.476   7.531   4.958  0.6854 -0.0920  0.9684
18128THY    HA333979   6.574   7.515   5.001 -0.1338  1.0991 -1.3761
18128THY    CA433980   6.466   7.656   4.895 -0.6362 -0.1535  0.9487
18128THY    HA433981   6.545   7.730   4.895 -0.3058  0.7497  0.6121
18128THY    CA533982   6.350   7.678   4.819 -0.0635 -0.4164 -0.3052
18128THY    CM133983   6.335   7.800   4.731 -0.7787  0.1217 -0.1521
18128THY    HM133984   6.232   7.820   4.698  0.0726 -1.1217  2.7729
18128THY    HM233985   6.397   7.787   4.641 -0.3209 -0.1250  2.9559
18128THY    HM333986   6.370   7.897   4.768 -0.1367 -2.7841  0.8335
18128THY    CA633987   6.251   7.579   4.813  0.1627  0.0570 -0.1415
18128THY    HA633988   6.167   7.599   4.746  1.4045 -1.4245  0.3236
18129THY      O33989   6.850   2.743   5.328 -0.3755  0.2272 -0.4339
18129THY     HO33990   6.898   2.759   5.411  0.2056  0.0901 -1.3671
18129THY    CA133991   6.905   2.629   5.272 -0.6214 -0.1985 -0.2314
18129THY    CA233992   6.881   2.585   5.138  0.1618  0.3699 -0.5875
18129THY    CP133993   6.800   2.670   5.027  0.5395  0.0072 -0.0311
18129THY    HP133994   6.780   2.770   5.067  1.4901 -0.2963  0.2852
18129THY    CP233995   6.663   2.623   5.023 -0.2999 -0.4107  0.1584
18129THY    HP233996   6.665   2.519   4.988 -0.9872 -0.4818  0.1643
18129THY    HP333997   6.602   2.683   4.955 -0.5581 -1.2198 -0.9835
18129THY    HP433998   6.629   2.633   5.127  0.1946 -0.2029 -0.2452
18129THY    CP333999   6.864   2.696   4.893 -0.5291  0.2647 -0.3660
18129THY    HP534000   6.954   2.757   4.907  0.1223 -3.2180 -0.3236
18129THY    HP634001   6.799   2.762   4.835 -0.4773  2.5513  1.8455
18129THY    HP734002   6.895   2.607   4.836 -0.1078 -0.7189  0.4030
18129THY    CA334003   6.928   2.461   5.094 -0.4078 -0.1264  0.2256
18129THY    HA334004   6.912   2.426   4.993  2.5101 -0.4057 -0.5561
18129THY    CA434005   6.991   2.380   5.186  0.6520 -0.3060 -0.5155
18129THY    HA434006   7.042   2.290   5.154 -1.4598 -0.1479 -1.8364
18129THY    CA534007   7.017   2.421   5.318  0.1756 -0.3884  0.6476
18129THY    CM134008   7.079   2.342   5.429 -0.6481  0.2284  0.6091
18129THY    HM134009   7.004   2.346   5.509 -0.3079  0.5092  1.8080
18129THY    HM234010   7.167   2.385   5.479 -1.4192  1.0224  1.3095
18129THY    HM334011   7.093   2.240   5.392 -0.6834  1.7805  0.0080
18129THY    CA634012   6.967   2.542   5.359 -0.6436 -0.7518 -0.0263
18129THY    HA634013   6.985   2.573   5.462  0.1452 -1.3763  1.7030
18130THY      O34014   6.835   8.832   2.374 -0.0617 -0.1173 -0.2905
18130THY     HO34015   6.859   8.921   2.342 -0.6359 -1.6249 -0.6489
18130THY    CA134016   6.762   8.790   2.276  0.0221  0.3159  0.1366
18130THY    CA234017   6.774   8.655   2.240  0.7781  0.1864  0.2035
18130THY    CP134018   6.857   8.548   2.308  0.4112  0.4031  0.2966
18130THY    HP134019   6.904   8.589   2.398  1.9194  0.4138 -1.3000
18130THY    CP234020   6.977   8.507   2.219 -0.1599  0.2319  0.4316
18130THY    HP234021   6.948   8.469   2.121  1.0019  0.6170 -1.6500
18130THY    HP334022   7.039   8.432   2.271 -0.4636 -0.3242 -0.2155
18130THY    HP434023   7.031   8.598   2.192  0.2582 -1.9128 -0.3983
18130THY    CP334024   6.792   8.419   2.350  0.4327 -0.9673  0.4647
18130THY    HP534025   6.694   8.443   2.391 -0.3787 -2.9827  0.7686
18130THY    HP634026   6.848   8.375   2.434 -2.2139 -0.4917 -2.3135
18130THY    HP734027   6.778   8.341   2.274  0.1084 -0.5168  0.0737
18130THY    CA334028   6.708   8.613   2.126  0.3969 -0.8089  0.3427
18130THY    HA334029   6.703   8.507   2.102 -1.0852 -0.2954  0.2680
18130THY    CA434030   6.640   8.703   2.055  0.5535 -0.4579  0.0728
18130THY    HA434031   6.584   8.664   1.970  1.1875 -0.8930  0.0954
18130THY    CA534032   6.618   8.835   2.090  0.1698 -0.4693 -0.2659
18130THY    CM134033   6.514   8.915   2.026 -0.5525 -0.2446  0.9674
18130THY    HM134034   6.543   8.918   1.920 -1.5319 -0.6262 -1.1999
18130THY    HM234035   6.507   9.018   2.063 -0.0097  0.9737  0.5887
18130THY    HM334036   6.419   8.866   2.049 -0.2093  1.5386  1.0697
18130THY    CA634037   6.689   8.877   2.203  0.3612  0.7812  0.8925
18130THY    HA634038   6.679   8.979   2.239 -0.0447  2.4586  0.2960
18131THY      O34039   7.412   5.706   4.598  0.4225 -0.5380 -0.0617
18131THY     HO34040   7.406   5.694   4.695 -1.7998 -0.7516 -1.2174
18131THY    CA134041   7.543   5.707   4.562 -0.6026  0.0720 -0.9414
18131THY    CA234042   7.578   5.691   4.431 -0.6537  0.7582 -0.0458
18131THY    CP134043   7.471   5.680   4.320 -0.6488  0.0355  0.7762
18131THY    HP134044   7.369   5.678   4.362 -0.3791  1.0504 -3.8437
18131THY    CP234045   7.492   5.553   4.237  0.3639  1.0007 -0.7431
18131THY    HP234046   7.484   5.454   4.284 -4.2421 -0.7472 -1.4522
18131THY    HP334047   7.585   5.552   4.180  0.4491  0.8561  2.8119
18131THY    HP434048   7.423   5.542   4.153 -0.1828  1.4134 -0.5070
18131THY    CP334049   7.483   5.802   4.236  0.4384  0.2357 -0.1048
18131THY    HP534050   7.581   5.803   4.186  0.7786  0.7558 -2.3411
18131THY    HP634051   7.454   5.889   4.296 -0.6900  0.2696 -0.4851
18131THY    HP734052   7.402   5.793   4.163  0.2701  0.5274 -1.0656
18131THY    CA334053   7.718   5.671   4.403 -0.5795 -0.0309  0.0097
18131THY    HA334054   7.751   5.671   4.299  2.6743  0.8094  3.0111
18131THY    CA434055   7.812   5.671   4.506 -0.2306 -0.7113  0.2141
18131THY    HA434056   7.918   5.665   4.484 -0.2396 -0.9168  0.7561
18131THY    CA534057   7.771   5.695   4.639 -0.8175  0.2372  0.0824
18131THY    CM134058   7.872   5.704   4.749 -0.3226  0.1535  0.5808
18131THY    HM134059   7.831   5.777   4.820 -2.5178 -0.4197 -0.0233
18131THY    HM234060   7.968   5.730   4.702  0.0546 -0.5323 -1.8575
18131THY    HM334061   7.877   5.604   4.794  3.6320 -1.9794 -0.3873
18131THY    CA634062   7.633   5.703   4.664 -0.5616  0.9228 -0.0037
18131THY    HA634063   7.603   5.735   4.763 -1.0400  0.3731  1.3045
18132THY      O34064   3.064   6.601   6.827  0.3101 -0.0327  0.3440
18132THY     HO34065   3.102   6.645   6.749  0.7334 -0.9074 -1.4868
18132THY    CA134066   2.999   6.494   6.778 -0.0102  0.5659 -0.0439
18132THY    CA234067   2.877   6.453   6.817  0.4326 -0.5219  0.5390
18132THY    CP134068   2.799   6.531   6.929  0.3321 -0.2222 -0.8731
18132THY    HP134069   2.858   6.603   6.986 -1.8303  1.2728 -0.1989
18132THY    CP234070   2.767   6.434   7.037 -0.9406  0.3653  0.8042
18132THY    HP234071   2.682   6.367   7.018  1.5125 -1.1968 -2.0907
18132THY    HP334072   2.755   6.486   7.134 -0.3781  0.4365  0.8076
18132THY    HP434073   2.857   6.376   7.060 -1.3585 -0.3875 -0.1751
18132THY    CP334074   2.679   6.615   6.862  0.0672 -0.5896 -0.3232
18132THY    HP534075   2.710   6.644   6.761 -0.2230 -0.6957 -0.3762
18132THY    HP634076   2.641   6.700   6.919  2.5300  0.8244 -0.0830
18132THY    HP734077   2.587   6.556   6.862  0.9162  1.6414 -1.7875
18132THY    CA334078   2.823   6.328   6.769 -0.0746 -0.3971  0.0454
18132THY    HA334079   2.724   6.299   6.803 -1.0898 -4.5242 -2.1252
18132THY    CA434080   2.882   6.255   6.669  0.1601 -0.0581  0.5931
18132THY    HA434081   2.825   6.176   6.621 -0.6681 -1.4280  1.9571
18132THY    CA534082   3.004   6.308   6.625  0.4312 -0.1706  0.8382
18132THY    CM134083   3.064   6.243   6.510 -0.8769  0.5912 -0.7566
18132THY    HM134084   3.051   6.135   6.524 -0.7708 -0.1586 -0.8708
18132THY    HM234085   3.172   6.257   6.498 -0.9462 -2.1589 -1.9852
18132THY    HM334086   3.006   6.282   6.425 -0.6888  0.7238 -0.1698
18132THY    CA634087   3.063   6.424   6.679 -0.1848  0.0737 -0.0221
18132THY    HA634088   3.148   6.473   6.634 -1.5942  1.0970  3.7014
18133THY      O34089   2.892   2.649   6.074 -0.2740 -1.1283  0.7214
18133THY     HO34090   2.841   2.707   6.133  1.2605  0.4926  0.5005
18133THY    CA134091   2.814   2.543   6.027 -0.3940  0.3749 -0.3033
18133THY    CA234092   2.870   2.420   5.982 -0.3004  0.3559 -0.6214
18133THY    CP134093   3.016   2.401   5.995 -0.9361 -0.1349  0.3950
18133THY    HP134094   3.052   2.440   6.091  0.0277 -0.6948  0.9204
18133THY    CP234095   3.093   2.488   5.890  0.0359  0.1077 -0.9766
18133THY    HP234096   3.041   2.471   5.795  0.8056  0.0686 -3.4645
18133THY    HP334097   3.198   2.458   5.887  0.4874  2.2164  0.2101
18133THY    HP434098   3.088   2.594   5.918  1.4766 -1.5381 -0.4299
18133THY    CP334099   3.066   2.250   5.981 -0.1330  0.0167  0.0001
18133THY    HP534100   3.021   2.176   6.048  0.6412 -0.2485 -0.7278
18133THY    HP634101   3.171   2.241   6.011  0.1887 -0.7934  0.8774
18133THY    HP734102   3.048   2.217   5.878  1.0578  0.5096 -2.4185
18133THY    CA334103   2.786   2.323   5.921 -0.3591 -0.3437  0.0645
18133THY    HA334104   2.823   2.231   5.877 -0.9650 -0.3939 -0.1594
18133THY    CA434105   2.651   2.342   5.920  0.3587 -0.1965 -0.3559
18133THY    HA434106   2.579   2.269   5.884 -2.2890  2.2699  0.8770
18133THY    CA534107   2.597   2.461   5.963 -0.0107  0.0319 -0.8822
18133THY    CM134108   2.451   2.485   5.962 -0.2640  0.2130  0.1336
18133THY    HM134109   2.403   2.466   6.059 -0.6807 -0.2850 -1.5041
18133THY    HM234110   2.395   2.426   5.889 -0.6227  2.0068 -1.8546
18133THY    HM334111   2.440   2.582   5.913  0.7985 -1.8570 -0.7254
18133THY    CA634112   2.680   2.570   6.016  0.6419 -0.2530 -0.5258
18133THY    HA634113   2.642   2.668   6.040 -1.3419 -1.8502 -0.8300
18134THY      O34114   8.065   7.797   3.538  0.1287 -0.1880  0.5534
18134THY     HO34115   7.985   7.846   3.513 -1.2191 -0.6921 -1.7533
18134THY    CA134116   8.137   7.773   3.425 -0.4136  0.4765 -0.3717
18134THY    CA234117   8.216   7.657   3.416  1.3072 -0.2902  0.4233
18134THY    CP134118   8.227   7.560   3.529 -0.0383 -0.2518  0.5114
18134THY    HP134119   8.190   7.608   3.620 -1.5954 -0.2104 -0.6632
18134THY    CP234120   8.375   7.525   3.551  0.0975  0.4732  0.1944
18134THY    HP234121   8.428   7.621   3.556 -0.3471 -1.2341  0.5585
18134THY    HP334122   8.418   7.470   3.467 -2.2763 -1.1753  0.6862
18134THY    HP434123   8.391   7.471   3.645 -0.2993 -0.1908 -1.1167
18134THY    CP334124   8.150   7.429   3.507  0.3877 -0.8654  0.2637
18134THY    HP534125   8.048   7.455   3.479  0.9168 -3.4870 -0.1963
18134THY    HP634126   8.141   7.356   3.588  0.7107  0.2999  1.4743
18134THY    HP734127   8.178   7.371   3.418 -1.1931 -0.3036 -1.4609
18134THY    CA334128   8.281   7.628   3.288 -0.2109 -0.5406  0.4584
18134THY    HA334129   8.348   7.543   3.282  1.9047  2.8711  1.6490
18134THY    CA434130   8.254   7.714   3.177 -0.1642 -0.4649 -0.3516
18134THY    HA434131   8.299   7.686   3.082 -0.2546 -0.4180 -0.6584
18134THY    CA534132   8.181   7.831   3.198 -0.1431 -0.0621  0.2380
18134THY    CM134133   8.156   7.925   3.079  0.4438  0.8075 -0.2166
18134THY    HM134134   8.093   7.871   3.007  0.2973  0.7233  0.0660
18134THY    HM234135   8.247   7.962   3.030 -0.0159  0.2588  0.2136
18134THY    HM334136   8.104   8.014   3.114 -0.3990  2.5208 -1.3423
18134THY    CA634137   8.123   7.862   3.322  0.6443 -0.0678 -0.3574
18134THY    HA634138   8.064   7.951   3.341 -2.0691 -0.4028 -1.9690
18135THY      O34139   8.256   8.408   5.903 -0.4677  0.4359  0.4681
18135THY     HO34140   8.221   8.394   5.813  1.4040 -0.6608  2.1326
18135THY    CA134141   8.205   8.528   5.942  0.5245  0.1979  0.3105
18135THY    CA234142   8.277   8.601   6.040 -0.1737  0.4406 -0.7703
18135THY    CP134143   8.415   8.574   6.093  0.4106 -0.3290  0.5211
18135THY    HP134144   8.435   8.474   6.054 -2.4209 -1.0329  0.1675
18135THY    CP234145   8.424   8.553   6.247  0.6053 -0.0257 -0.7164
18135THY    HP234146   8.341   8.497   6.289  1.4523  2.1517 -0.4305
18135THY    HP334147   8.416   8.655   6.286  0.6707 -1.4073 -0.1604
18135THY    HP434148   8.516   8.505   6.282  1.8885  0.7478  2.0745
18135THY    CP334149   8.526   8.677   6.057  0.4364  0.1390  0.2601
18135THY    HP534150   8.622   8.641   6.096 -0.6156  2.5953 -0.1092
18135THY    HP634151   8.510   8.778   6.097 -2.3666 -3.8193  1.6341
18135THY    HP734152   8.548   8.676   5.950  0.7022  0.0979  3.2428
18135THY    CA334153   8.218   8.719   6.089 -1.1508  0.1216 -0.1196
18135THY    HA334154   8.260   8.778   6.169  1.4040 -1.2980  0.1282
18135THY    CA434155   8.093   8.754   6.043  0.1080 -0.1970  0.2227
18135THY    HA434156   8.048   8.843   6.087  0.7758  0.9285  0.0315
18135THY    CA534157   8.023   8.680   5.957  0.4135  0.3113 -0.4760
18135THY    CM134158   7.883   8.717   5.907  0.5231  0.0553 -0.1226
18135THY    HM134159   7.847   8.813   5.947  1.3245 -1.4110  0.8231
18135THY    HM234160   7.823   8.632   5.942  0.1514  0.1914  0.1917
18135THY    HM334161   7.874   8.715   5.798 -0.7437  0.1463 -2.3752
18135THY    CA634162   8.078   8.566   5.905 -0.5209 -0.0743 -0.7547
18135THY    HA634163   8.030   8.497   5.836  0.9131 -0.1581 -1.7205
18136THY      O34164   8.851   6.217   6.665  0.0592 -0.0815 -0.1550
18136THY     HO34165   8.900   6.134   6.680  0.3567  0.3548  0.0945
18136THY    CA134166   8.920   6.293   6.580  0.4167 -0.1533 -0.3090
18136THY    CA234167   8.862   6.409   6.522  0.2596 -0.2065  0.1434
18136THY    CP134168   8.716   6.444   6.560  0.2350  0.2500 -0.0866
18136THY    HP134169   8.671   6.367   6.625 -3.0334  0.4892  1.8261
18136THY    CP234170   8.619   6.462   6.435 -0.6079  0.0312  0.8849
18136THY    HP234171   8.616   6.367   6.380 -0.9164  1.2219  0.1956
18136THY    HP334172   8.647   6.538   6.361 -0.2322 -1.8246 -0.9779
18136THY    HP434173   8.515   6.470   6.469 -0.0383  1.5962  2.1255
18136THY    CP334174   8.710   6.579   6.647  1.0709 -0.0259 -0.4812
18136THY    HP534175   8.697   6.671   6.588  0.1696  3.5321  1.8814
18136THY    HP634176   8.799   6.585   6.710  0.4392  1.1747 -2.6169
18136THY    HP734177   8.622   6.570   6.712  1.6043  1.0089  1.2712
18136THY    CA334178   8.927   6.486   6.430  0.4001 -0.2266  0.0720
18136THY    HA334179   8.883   6.582   6.402  0.6803  0.6422  0.4614
18136THY    CA434180   9.054   6.439   6.387  0.2756  0.3200 -0.4320
18136THY    HA434181   9.110   6.501   6.319 -0.0864 -0.5142 -1.0007
18136THY    CA534182   9.105   6.323   6.437 -0.4377  0.8206 -0.3297
18136THY    CM134183   9.245   6.285   6.401 -0.3722  0.3947  0.6927
18136THY    HM134184   9.279   6.333   6.308  0.1928  0.1577 -0.1323
18136THY    HM234185   9.253   6.177   6.385 -0.2837  1.2131  0.5739
18136THY    HM334186   9.323   6.310   6.474 -0.7491  0.7414  0.8689
18136THY    CA634187   9.042   6.248   6.536  0.0541 -0.3133 -0.0306
18136THY    HA634188   9.086   6.168   6.594 -1.8692 -0.8568 -1.5486
18137THY      O34189   6.620   3.461   7.658  0.0090 -0.0594  0.0068
18137THY     HO34190   6.695   3.479   7.718 -0.8886  1.1807 -0.1979
18137THY    CA134191   6.511   3.494   7.730 -0.0114 -0.3881 -0.0324
18137THY    CA234192   6.388   3.533   7.665 -0.1486  0.2705 -0.3382
18137THY    CP134193   6.364   3.524   7.517  1.0349 -0.4615 -0.5133
18137THY    HP134194   6.443   3.472   7.463  0.3956 -0.4282 -1.5365
18137THY    CP234195   6.348   3.664   7.453 -0.4281 -0.3641 -0.2677
18137THY    HP234196   6.296   3.729   7.523  0.8016  0.3261  0.0090
18137THY    HP334197   6.306   3.653   7.352 -1.4169 -0.0579  0.5598
18137THY    HP434198   6.446   3.711   7.436  0.6727  0.9705 -1.9235
18137THY    CP334199   6.250   3.427   7.488 -0.4300 -0.4339  0.9053
18137THY    HP534200   6.266   3.342   7.555  1.7517 -1.2158  0.6250
18137THY    HP634201   6.254   3.382   7.388 -0.6645  0.2883 -0.7843
18137THY    HP734202   6.155   3.477   7.507  0.0033  1.6770  1.0102
18137THY    CA334203   6.284   3.576   7.756  0.0371  0.1677  0.6219
18137THY    HA334204   6.183   3.582   7.717 -0.5191  1.7373  2.3398
18137THY    CA434205   6.306   3.595   7.886  0.0102 -0.3313 -0.5696
18137THY    HA434206   6.228   3.629   7.954  0.8382 -1.0697  3.1962
18137THY    CA534207   6.417   3.548   7.943 -0.1325  0.4892 -0.0190
18137THY    CM134208   6.449   3.561   8.089  0.2837 -0.0714  0.3613
18137THY    HM134209   6.442   3.459   8.127 -0.6012  1.3837  0.9386
18137THY    HM234210   6.373   3.629   8.130 -1.2581 -1.9899 -0.0961
18137THY    HM334211   6.550   3.600   8.103 -0.1790  1.2816  1.1489
18137THY    CA634212   6.528   3.513   7.870  0.2196 -0.8025 -0.3277
18137THY    HA634213   6.627   3.501   7.914  0.9057 -1.0964  3.1556
18138THY      O34214   9.129   5.841   4.088 -0.8227 -0.4854  0.1092
18138THY     HO34215   9.209   5.893   4.110 -0.0693 -1.4908 -0.5897
18138THY    CA134216   9.103   5.884   3.965 -0.9183 -0.5362 -0.4824
18138THY    CA234217   9.051   5.789   3.862 -0.4799  0.0358 -0.6376
18138THY    CP134218   9.022   5.645   3.893 -0.4883 -0.2181 -0.3703
18138THY    HP134219   9.034   5.614   3.998 -1.5767 -0.5328 -1.9978
18138THY    CP234220   9.106   5.558   3.809 -0.0758  0.2380 -0.3764
18138THY    HP234221   9.087   5.595   3.708 -1.2609  0.2289 -0.9857
18138THY    HP334222   9.075   5.454   3.820 -0.1606 -0.6527 -0.4550
18138THY    HP434223   9.210   5.578   3.837 -0.2087 -1.0109  2.6629
18138THY    CP334224   8.872   5.612   3.868  0.1941 -0.4192 -0.2521
18138THY    HP534225   8.808   5.693   3.904  3.6082 -1.1562  3.0908
18138THY    HP634226   8.837   5.518   3.914  0.4620 -0.5347 -0.4112
18138THY    HP734227   8.850   5.597   3.762 -1.0736 -0.2710  0.4549
18138THY    CA334228   9.033   5.843   3.731  0.0820  0.3621  0.4096
18138THY    HA334229   8.981   5.784   3.656  0.3598  0.6794 -0.2346
18138THY    CA434230   9.058   5.987   3.704 -0.1332  0.3287 -0.0260
18138THY    HA434231   9.037   6.028   3.606  2.8571 -0.9013 -1.1743
18138THY    CA534232   9.098   6.067   3.808 -0.3713  0.0767  0.2125
18138THY    CM134233   9.109   6.215   3.780  0.5687  1.0076  0.6997
18138THY    HM134234   9.198   6.241   3.721 -0.4971 -0.1203  1.9031
18138THY    HM234235   9.110   6.273   3.873  1.1180  0.9959  0.7160
18138THY    HM334236   9.017   6.254   3.735  0.3990 -0.1413 -0.9145
18138THY    CA634237   9.122   6.015   3.939  0.0958  0.1889  0.4216
18138THY    HA634238   9.144   6.086   4.019 -0.9894 -1.3480  2.6048
18139THY      O34239   9.065   6.767   2.015  0.0289  0.2485 -0.0130
18139THY     HO34240   9.143   6.809   1.976 -1.8198 -3.0842  0.7354
18139THY    CA134241   9.081   6.759   2.150 -0.8298  0.4138 -0.3101
18139THY    CA234242   8.987   6.697   2.229  0.1966  0.1902 -0.3308
18139THY    CP134243   8.852   6.652   2.163 -0.4581  0.4315  0.0724
18139THY    HP134244   8.891   6.590   2.081 -0.1436  1.5460 -1.2415
18139THY    CP234245   8.757   6.763   2.120  0.0250 -0.0746  0.5550
18139THY    HP234246   8.723   6.834   2.196  0.7228 -0.7637  1.6580
18139THY    HP334247   8.672   6.711   2.076 -0.8315  0.6816  1.2798
18139THY    HP434248   8.801   6.824   2.041  0.2453  1.1326  2.0233
18139THY    CP334249   8.773   6.560   2.254 -0.1005 -0.0388 -0.5251
18139THY    HP534250   8.832   6.485   2.309  0.5627  0.0250  0.0248
18139THY    HP634251   8.693   6.505   2.204  0.6359 -0.4108 -1.2758
18139THY    HP734252   8.725   6.624   2.329  3.2111 -0.3330  2.6327
18139THY    CA334253   9.010   6.689   2.367 -0.1887 -0.2720  0.3033
18139THY    HA334254   8.928   6.655   2.430 -1.2959 -1.5656  0.4448
18139THY    CA434255   9.125   6.750   2.427  0.2407  0.1880  0.3428
18139THY    HA434256   9.135   6.745   2.535  0.0259  0.2128  0.4462
18139THY    CA534257   9.215   6.811   2.350  0.3510  0.4143 -0.2347
18139THY    CM134258   9.336   6.879   2.406  0.4663 -0.2472  0.7373
18139THY    HM134259   9.298   6.914   2.503  1.1871  0.5753 -0.6680
18139THY    HM234260   9.376   6.961   2.345 -0.7694 -1.4820  0.4484
18139THY    HM334261   9.411   6.801   2.427 -1.4825 -0.6950 -1.3699
18139THY    CA634262   9.204   6.801   2.212 -0.6371  0.2268 -0.5406
18139THY    HA634263   9.284   6.843   2.153  0.9057  2.6013  0.0137
18140THY      O34264   5.289   1.933   5.977  0.1172 -0.0827 -0.0203
18140THY     HO34265   5.266   1.843   5.950 -2.0217  2.3231 -0.2969
18140THY    CA134266   5.419   1.947   5.984 -0.2703  0.2358 -0.2429
18140THY    CA234267   5.487   2.052   6.052 -0.3859  0.4192 -0.2309
18140THY    CP134268   5.427   2.180   6.109 -0.1794  0.0508 -0.2658
18140THY    HP134269   5.320   2.176   6.090 -0.5745  1.9961 -0.0758
18140THY    CP234270   5.474   2.300   6.025  0.9601 -0.1359 -0.4649
18140THY    HP234271   5.580   2.315   6.048  1.3672 -0.1361 -2.9425
18140THY    HP334272   5.422   2.393   6.052  1.2562 -1.3913  0.0938
18140THY    HP434273   5.446   2.279   5.921  3.3657 -1.0834  0.5802
18140THY    CP334274   5.455   2.208   6.259 -0.3046 -0.1675 -0.1533
18140THY    HP534275   5.430   2.310   6.287  2.2773 -3.0889  1.4585
18140THY    HP634276   5.562   2.195   6.277 -0.6014  0.2722 -2.7031
18140THY    HP734277   5.392   2.136   6.313 -0.1676 -0.1875 -0.2874
18140THY    CA334278   5.631   2.036   6.045  0.1762  0.7874 -0.0401
18140THY    HA334279   5.693   2.118   6.080  1.0004  2.0835 -1.1642
18140THY    CA434280   5.692   1.919   5.995 -0.0167  0.3929  0.3019
18140THY    HA434281   5.801   1.924   5.988  0.1930 -1.0127 -3.1201
18140THY    CA534282   5.621   1.822   5.930  0.2449  0.2415 -0.1639
18140THY    CM134283   5.704   1.711   5.859  0.2646  0.0050 -0.0901
18140THY    HM134284   5.748   1.627   5.913  0.7005 -1.5566 -0.9200
18140THY    HM234285   5.786   1.760   5.806 -0.7616 -2.3629 -0.7576
18140THY    HM334286   5.642   1.662   5.782  0.3429 -0.2159  0.1537
18140THY    CA634287   5.485   1.832   5.929 -0.1839  0.3437  0.4535
18140THY    HA634288   5.430   1.761   5.868 -0.9478  0.1780  1.1665
18141THY      O34289   3.723   1.737   5.579 -0.7947 -0.3597  0.3120
18141THY     HO34290   3.793   1.780   5.631 -0.1589  0.0290 -1.1493
18141THY    CA134291   3.622   1.723   5.664  0.0005 -0.4360  0.1393
18141THY    CA234292   3.511   1.645   5.637  0.2882  0.3874 -0.3077
18141THY    CP134293   3.489   1.559   5.505  0.4896 -0.0538 -0.6456
18141THY    HP134294   3.585   1.569   5.453  0.7831  0.7590  1.1088
18141THY    CP234295   3.382   1.619   5.408 -0.4964  0.0757  0.3872
18141THY    HP234296   3.282   1.621   5.454 -0.5505  0.0089 -0.3516
18141THY    HP334297   3.370   1.551   5.323  0.2173 -1.5372  2.1948
18141THY    HP434298   3.417   1.717   5.375 -2.3687  1.5462  1.6259
18141THY    CP334299   3.458   1.415   5.523 -0.3471  0.3675 -0.3485
18141THY    HP534300   3.523   1.378   5.604 -1.2552  1.4124  0.2920
18141THY    HP634301   3.481   1.350   5.438 -0.7331  1.3780 -1.8600
18141THY    HP734302   3.354   1.407   5.555 -1.0624 -1.6530  0.3481
18141THY    CA334303   3.415   1.626   5.738  0.2261 -0.1276 -0.0828
18141THY    HA334304   3.330   1.562   5.719  0.3467 -1.2463  0.0756
18141THY    CA434305   3.416   1.694   5.855  0.6309 -0.5864  0.1174
18141THY    HA434306   3.336   1.686   5.929  2.3797  1.2122 -3.0202
18141THY    CA534307   3.530   1.769   5.882 -0.1514  0.0008  0.3161
18141THY    CM134308   3.540   1.831   6.015 -0.7280 -0.6598 -0.8766
18141THY    HM134309   3.467   1.911   6.029  0.3631 -1.3037  0.2630
18141THY    HM234310   3.641   1.873   6.010 -0.9225 -1.9663 -0.5170
18141THY    HM334311   3.541   1.752   6.091 -2.0692 -0.8245 -1.0653
18141THY    CA634312   3.633   1.788   5.789 -0.0371  0.5044  0.5096
18141THY    HA634313   3.722   1.849   5.796  0.9147 -3.7520 -0.0210
18142THY      O34314   7.796   8.118   4.892 -0.6310  0.1058  0.6774
18142THY     HO34315   7.706   8.148   4.912 -2.2481  0.8201 -3.8261
18142THY    CA134316   7.877   8.197   4.970 -0.5050 -0.2881  0.4135
18142THY    CA234317   8.014   8.174   4.995 -0.3294 -0.2686 -0.0910
18142THY    CP134318   8.084   8.052   4.920 -0.2874 -0.1909 -0.7194
18142THY    HP134319   8.016   7.967   4.907 -1.0712 -0.4318 -0.0689
18142THY    CP234320   8.200   7.994   5.016  0.1030  0.7479  0.2500
18142THY    HP234321   8.172   7.982   5.121 -0.9900  0.6357  1.5761
18142THY    HP334322   8.285   8.062   5.030 -0.4442  1.5848  0.7784
18142THY    HP434323   8.237   7.897   4.980  0.2655 -2.2481  1.3259
18142THY    CP334324   8.147   8.094   4.784  0.4937  0.5837 -0.0720
18142THY    HP534325   8.080   8.151   4.720  0.0741  2.7916  2.0969
18142THY    HP634326   8.183   8.007   4.728 -0.4265 -1.7438  0.9704
18142THY    HP734327   8.236   8.153   4.809  1.6800 -0.7234 -1.2487
18142THY    CA334328   8.088   8.280   5.055 -0.6530  0.1246 -0.0232
18142THY    HA334329   8.195   8.275   5.074 -0.5878  1.5162  3.6881
18142THY    CA434330   8.026   8.387   5.114  0.4931  0.3246  0.5212
18142THY    HA434331   8.086   8.456   5.173  0.6519  1.0447 -0.2085
18142THY    CA534332   7.888   8.399   5.093  0.0702 -0.1360  0.2489
18142THY    CM134333   7.811   8.521   5.144 -0.0404  0.0021 -0.6682
18142THY    HM134334   7.870   8.611   5.163 -0.3511  0.5659 -0.5760
18142THY    HM234335   7.763   8.507   5.242 -1.6654 -0.6392  0.2884
18142THY    HM334336   7.733   8.544   5.072 -0.7201  0.3582 -1.7933
18142THY    CA634337   7.814   8.310   5.018  0.5651 -0.3131  0.3061
18142THY    HA634338   7.706   8.319   5.009  0.1601  2.0451 -1.3716
18143THY      O34339   3.420   7.490   3.492  0.3143 -0.0333 -0.1413
18143THY     HO34340   3.515   7.497   3.475  0.0368 -1.0856  1.5042
18143THY    CA134341   3.349   7.561   3.394 -0.3926  0.2438  0.2693
18143THY    CA234342   3.213   7.572   3.414  0.3378  0.0033  0.4245
18143THY    CP134343   3.138   7.517   3.529  0.2090  0.0001 -0.4938
18143THY    HP134344   3.205   7.461   3.595 -2.8135  1.7901 -2.1947
18143THY    CP234345   3.030   7.420   3.478  0.8132 -0.6400 -0.0192
18143THY    HP234346   3.081   7.345   3.416 -1.8637 -0.2996 -2.2695
18143THY    HP334347   2.961   7.467   3.407 -0.5739  1.7927  1.8092
18143THY    HP434348   2.982   7.362   3.557  0.3367 -1.9411 -1.4666
18143THY    CP334349   3.071   7.622   3.616  0.6261  0.5332  0.0835
18143THY    HP534350   3.060   7.575   3.714 -0.1741 -0.3035 -1.5637
18143THY    HP634351   2.979   7.660   3.571 -0.9450  1.7260 -2.1284
18143THY    HP734352   3.153   7.694   3.631 -0.0079  0.8757  0.7403
18143THY    CA334353   3.146   7.644   3.310 -0.2495 -0.4522  0.5897
18143THY    HA334354   3.039   7.659   3.322 -0.3892 -1.7415  0.6866
18143THY    CA434355   3.208   7.675   3.186  0.2857 -0.1064 -0.4796
18143THY    HA434356   3.156   7.727   3.106 -1.9778  1.6505  0.1179
18143THY    CA534357   3.340   7.642   3.171 -0.7016  0.0204  0.3267
18143THY    CM134358   3.421   7.663   3.044  0.0200 -0.5208  0.1139
18143THY    HM134359   3.444   7.574   2.984 -2.1047  1.6297 -2.0204
18143THY    HM234360   3.511   7.718   3.075 -0.5290  0.9502  0.2317
18143THY    HM334361   3.371   7.735   2.978 -0.5266 -2.4037 -1.8826
18143THY    CA634362   3.415   7.592   3.277 -0.2512 -0.4171 -0.1184
18143THY    HA634363   3.522   7.580   3.266 -0.1412 -0.7883  1.0925
18144THY      O34364   9.013   0.264   4.588  0.5488 -0.3097  0.4474
18144THY     HO34365   8.957   0.186   4.599 -0.2705  1.2055  1.2026
18144THY    CA134366   9.083   0.264   4.701  0.0014 -0.2186 -0.5182
18144THY    CA234367   9.221   0.308   4.696  0.2341  0.1189  0.4062
18144THY    CP134368   9.279   0.362   4.561  0.4251 -0.1055  0.7724
18144THY    HP134369   9.220   0.328   4.475  0.1650  0.6057 -0.6658
18144THY    CP234370   9.433   0.324   4.536  0.4511  0.6183  0.0061
18144THY    HP234371   9.493   0.390   4.600 -0.6035  1.0751  0.5582
18144THY    HP334372   9.470   0.329   4.434 -0.0235  0.3833 -1.0265
18144THY    HP434373   9.452   0.224   4.575  1.5101 -0.8977 -0.4126
18144THY    CP334374   9.257   0.508   4.554 -0.3585 -0.0674 -0.1827
18144THY    HP534375   9.295   0.551   4.647  0.5176 -0.6469  0.3272
18144THY    HP634376   9.150   0.528   4.543 -0.0358 -3.3758  0.2853
18144THY    HP734377   9.317   0.550   4.472  0.7855  1.3502  1.1099
18144THY    CA334378   9.291   0.320   4.820 -0.9405 -0.2308 -0.1824
18144THY    HA334379   9.397   0.341   4.823 -0.2495  1.4010 -3.3239
18144THY    CA434380   9.227   0.278   4.939  0.5293 -0.4005 -0.6729
18144THY    HA434381   9.273   0.279   5.037 -2.8177  1.3439  0.2281
18144THY    CA534382   9.091   0.243   4.941 -0.6315 -0.2639 -0.7431
18144THY    CM134383   9.026   0.199   5.063  0.8440  0.3830 -0.2322
18144THY    HM134384   8.918   0.209   5.043  0.8614 -0.1882 -1.1007
18144THY    HM234385   9.047   0.277   5.138 -0.5844  0.0400  0.5186
18144THY    HM334386   9.039   0.094   5.090 -0.8954 -1.4633 -0.9821
18144THY    CA634387   9.024   0.236   4.821  0.3260 -0.6430  1.3295
18144THY    HA634388   8.919   0.206   4.817 -0.3057  2.1271  2.8361
18145THY      O34389   6.769   7.815   6.908  0.1795 -0.1490 -0.3518
18145THY     HO34390   6.789   7.768   6.990  1.8609 -0.4640 -0.2526
18145THY    CA134391   6.838   7.749   6.806  0.1576 -0.0225  0.1999
18145THY    CA234392   6.828   7.777   6.673 -0.7721 -0.5776 -0.3107
18145THY    CP134393   6.745   7.908   6.629 -0.4961  0.5044 -0.3565
18145THY    HP134394   6.730   7.979   6.711 -0.9115 -1.3122  1.7798
18145THY    CP234395   6.615   7.872   6.556 -0.2514 -0.2193 -0.2379
18145THY    HP234396   6.621   7.794   6.478 -0.2807 -0.4315 -0.0308
18145THY    HP334397   6.576   7.961   6.506 -1.2269  0.3723 -0.3223
18145THY    HP434398   6.541   7.846   6.632  1.4753  0.6154 -3.1902
18145THY    CP334399   6.844   7.980   6.529  0.4167 -0.6952  0.5163
18145THY    HP534400   6.813   8.085   6.526 -1.3549 -0.7773  0.0153
18145THY    HP634401   6.838   7.936   6.429  0.6153 -0.3609 -0.2765
18145THY    HP734402   6.947   7.978   6.568  0.0742  0.2053 -1.0507
18145THY    CA334403   6.900   7.701   6.580  0.1642  0.2217  0.1129
18145THY    HA334404   6.889   7.722   6.474 -1.8596  0.1200 -1.2579
18145THY    CA434405   6.981   7.595   6.623 -0.4195 -0.4507  0.0850
18145THY    HA434406   7.019   7.524   6.550 -0.3466  0.0222 -0.3709
18145THY    CA534407   6.995   7.572   6.761  0.7692  1.5350  0.7277
18145THY    CM134408   7.091   7.467   6.817  0.3294  0.0538 -0.8376
18145THY    HM134409   7.088   7.466   6.926  1.2523  0.1324  0.8116
18145THY    HM234410   7.196   7.476   6.787  0.3388 -1.0672 -3.7288
18145THY    HM334411   7.069   7.366   6.781 -0.3309 -1.0754 -0.3189
18145THY    CA634412   6.923   7.651   6.851  0.4506  0.3427  0.0249
18145THY    HA634413   6.932   7.652   6.959 -1.3671  0.5393  1.4171
18146THY      O34414   6.356   8.695   4.401 -0.2770 -0.2984  0.4164
18146THY     HO34415   6.428   8.642   4.439  1.3796 -3.0618  0.5032
18146THY    CA134416   6.403   8.819   4.437 -0.3498  0.0005  0.5240
18146THY    CA234417   6.320   8.925   4.440  0.1924  0.7213 -1.2920
18146THY    CP134418   6.169   8.910   4.410 -0.3325 -0.3864  0.2167
18146THY    HP134419   6.127   8.809   4.398 -3.8947  1.9629  1.2739
18146THY    CP234420   6.140   8.972   4.274  0.2734  0.6838 -0.2163
18146THY    HP234421   6.165   9.079   4.275  1.5630  0.3939 -0.4872
18146THY    HP334422   6.036   8.959   4.245 -0.2101  2.4708 -0.6044
18146THY    HP434423   6.202   8.938   4.190 -1.5551 -0.7911 -0.0001
18146THY    CP334424   6.094   8.968   4.527 -1.0756 -0.1058  0.2568
18146THY    HP534425   6.120   8.918   4.620  0.4188 -0.0426  1.0855
18146THY    HP634426   5.985   8.963   4.517 -1.2769  0.2234  2.6365
18146THY    HP734427   6.122   9.074   4.527 -0.1246 -2.4739  0.0892
18146THY    CA334428   6.370   9.057   4.469 -0.1291  1.0209  0.9446
18146THY    HA334429   6.301   9.141   4.465 -2.3220 -0.1718 -0.8150
18146THY    CA434430   6.511   9.073   4.501  0.1539 -0.3662 -0.2925
18146THY    HA434431   6.550   9.173   4.512  0.3553  0.1865 -0.4265
18146THY    CA534432   6.589   8.954   4.503  0.3018  0.1012 -0.7403
18146THY    CM134433   6.739   8.970   4.527 -0.0501 -0.5150  0.2570
18146THY    HM134434   6.786   9.025   4.445  0.6960 -0.0978  0.2440
18146THY    HM234435   6.792   8.875   4.540 -0.3498  1.2817  0.3097
18146THY    HM334436   6.766   9.023   4.619 -2.2163  0.5647 -0.3683
18146THY    CA634437   6.538   8.829   4.469  0.1179 -0.1220 -0.2806
18146THY    HA634438   6.606   8.745   4.476 -0.6052 -2.7048 -1.1869
18147THY      O34439   2.110   3.286   3.607 -0.0125 -0.1757  0.2109
18147THY     HO34440   2.154   3.372   3.596 -1.0583  1.1698  0.9687
18147THY    CA134441   2.205   3.189   3.592 -0.4021 -0.0628  0.3882
18147THY    CA234442   2.183   3.051   3.565  0.0132  0.2054 -0.7113
18147THY    CP134443   2.042   3.003   3.537  0.1261 -0.0987  0.3316
18147THY    HP134444   1.974   3.084   3.565  0.8174 -1.1446  1.3045
18147THY    CP234445   2.002   2.894   3.643 -0.2924  0.1901  0.0660
18147THY    HP234446   2.064   2.805   3.652 -0.9449 -0.4495 -0.4716
18147THY    HP334447   1.893   2.878   3.647 -0.3800 -1.4308  0.0976
18147THY    HP434448   2.033   2.927   3.742 -2.2320  0.7842  0.2286
18147THY    CP334449   2.020   2.971   3.390  0.4168 -0.0957 -0.1222
18147THY    HP534450   2.027   3.061   3.328 -3.1656 -3.0055 -1.6281
18147THY    HP634451   1.916   2.938   3.393  0.7981 -0.1149 -1.3451
18147THY    HP734452   2.088   2.896   3.350 -0.3250 -1.8769  0.1170
18147THY    CA334453   2.289   2.963   3.553 -0.3048  0.0604  0.5974
18147THY    HA334454   2.265   2.861   3.524 -0.1621 -1.6939  1.0318
18147THY    CA434455   2.421   3.002   3.584 -0.2978  0.1697  0.0645
18147THY    HA434456   2.497   2.927   3.567 -2.2351 -0.7730 -1.7900
18147THY    CA534457   2.444   3.136   3.622  0.7687  0.2248  0.5353
18147THY    CM134458   2.581   3.177   3.654  0.0250  0.2597  0.4420
18147THY    HM134459   2.597   3.285   3.662 -0.9049  0.8034  0.5433
18147THY    HM234460   2.648   3.122   3.587 -2.2497  0.2811 -2.6322
18147THY    HM334461   2.615   3.122   3.742 -0.5114 -0.3627 -0.9274
18147THY    CA634462   2.337   3.227   3.628 -0.2338  0.8232 -0.6258
18147THY    HA634463   2.358   3.325   3.670  0.5469 -0.1474 -0.3646
18148THY      O34464   5.608   2.172   4.957 -0.0995  0.4266 -0.4892
18148THY     HO34465   5.676   2.223   5.005  0.2577  0.3332 -0.8685
18148THY    CA134466   5.496   2.171   5.021  0.3236  0.3338 -0.0988
18148THY    CA234467   5.370   2.143   4.961  0.7323 -0.2653  0.1854
18148THY    CP134468   5.366   2.091   4.825 -0.2193 -0.6782  0.2333
18148THY    HP134469   5.447   2.135   4.765  0.5412  1.1108  1.3887
18148THY    CP234470   5.235   2.131   4.742  0.6024 -0.8537 -0.1081
18148THY    HP234471   5.201   2.233   4.759  0.6322 -2.0027  0.1022
18148THY    HP334472   5.150   2.070   4.773 -0.7194 -0.9901  1.6047
18148THY    HP434473   5.254   2.122   4.634 -0.8959 -1.3195  1.7496
18148THY    CP334474   5.383   1.944   4.809  0.9127 -1.0234 -0.0146
18148THY    HP534475   5.289   1.897   4.841 -0.6220 -3.0024  1.5462
18148THY    HP634476   5.480   1.907   4.846 -0.3800  0.4409 -2.1284
18148THY    HP734477   5.372   1.921   4.703 -4.2012 -0.6378 -0.3544
18148THY    CA334478   5.253   2.162   5.035 -1.3192 -0.2743  0.0060
18148THY    HA334479   5.151   2.135   5.013 -2.3071  2.6792  0.8791
18148THY    CA434480   5.260   2.197   5.166  0.6872 -0.8107 -0.8260
18148THY    HA434481   5.164   2.209   5.214  1.5602  0.3353  3.3751
18148THY    CA534482   5.385   2.228   5.224 -0.5698  0.6849  0.5008
18148THY    CM134483   5.393   2.256   5.368  1.0182 -0.3838  0.4534
18148THY    HM134484   5.302   2.311   5.397  0.4848 -0.5334 -0.3351
18148THY    HM234485   5.476   2.321   5.399 -0.6550  2.0107  1.6221
18148THY    HM334486   5.399   2.166   5.430 -0.0447 -0.0314  0.6047
18148THY    CA634487   5.501   2.205   5.155  0.1498  0.2587  0.6340
18148THY    HA634488   5.598   2.208   5.204  0.3687  0.0183 -1.2057
18149THY      O34489   7.285   2.497   3.986 -0.1017  0.1786 -0.1658
18149THY     HO34490   7.233   2.544   4.054 -0.2548 -0.6650  0.9315
18149THY    CA134491   7.298   2.380   4.052  0.1126 -0.0642  0.6693
18149THY    CA234492   7.271   2.260   3.983 -0.2036  0.2077  0.0285
18149THY    CP134493   7.218   2.267   3.842 -0.5892  0.8002  0.2946
18149THY    HP134494   7.250   2.361   3.795 -3.1847 -2.3251 -0.1974
18149THY    CP234495   7.065   2.275   3.851 -0.0229 -0.4921 -1.1390
18149THY    HP234496   7.027   2.373   3.878 -2.3263  3.0953 -2.8301
18149THY    HP334497   7.033   2.209   3.932  0.8540 -0.6600 -1.8081
18149THY    HP434498   7.018   2.243   3.757 -0.0379 -1.0977  0.5542
18149THY    CP334499   7.278   2.156   3.757  0.3099  0.0674 -0.3871
18149THY    HP534500   7.378   2.137   3.795  0.8520 -0.8482  0.5542
18149THY    HP634501   7.279   2.183   3.650  0.4573  0.5709  1.7670
18149THY    HP734502   7.226   2.061   3.777  0.3852 -0.5498 -0.5671
18149THY    CA334503   7.294   2.136   4.051 -0.0556  0.8081 -0.2412
18149THY    HA334504   7.278   2.040   4.002  1.6927  1.4632 -0.9051
18149THY    CA434505   7.335   2.141   4.185  0.6206  0.0750 -0.4839
18149THY    HA434506   7.345   2.048   4.242 -1.4657 -1.3431 -1.6534
18149THY    CA534507   7.344   2.263   4.257  0.3225  0.1075  0.8131
18149THY    CM134508   7.381   2.267   4.402  0.4696 -0.1996  0.1396
18149THY    HM134509   7.425   2.172   4.435 -1.9526 -0.4350 -1.1560
18149THY    HM234510   7.292   2.289   4.463 -0.7394 -1.8833  0.0607
18149THY    HM334511   7.456   2.343   4.425  0.7334  1.7421 -0.6324
18149THY    CA634512   7.328   2.379   4.184  0.0360  0.6150  0.4562
18149THY    HA634513   7.336   2.477   4.230  1.0158 -0.6798  1.0075
18150THY      O34514   4.331   2.694   6.218 -0.6307 -0.4462  0.7713
18150THY     HO34515   4.307   2.789   6.212 -2.1186 -1.5616  0.3629
18150THY    CA134516   4.220   2.620   6.198 -0.0745 -0.0884 -1.4915
18150THY    CA234517   4.217   2.479   6.198 -0.4005  0.1604  0.5479
18150THY    CP134518   4.352   2.402   6.222 -0.4450 -0.3735 -0.3358
18150THY    HP134519   4.441   2.459   6.191 -0.5476 -0.9148 -0.4621
18150THY    CP234520   4.362   2.276   6.134 -0.0472  0.2146 -0.8023
18150THY    HP234521   4.284   2.204   6.163 -1.7458 -1.8158  0.1127
18150THY    HP334522   4.466   2.246   6.151  1.8337 -0.9973  4.0125
18150THY    HP434523   4.357   2.316   6.032  2.7782  0.9418  1.8331
18150THY    CP334524   4.378   2.351   6.366 -0.5883  0.5827 -0.2873
18150THY    HP534525   4.302   2.277   6.393 -0.6825  0.3031 -0.2936
18150THY    HP634526   4.361   2.445   6.420 -2.3583 -0.2844 -0.0620
18150THY    HP734527   4.480   2.312   6.370 -0.6752 -0.9138 -0.7276
18150THY    CA334528   4.096   2.410   6.205  0.9671 -0.0533 -0.6647
18150THY    HA334529   4.090   2.302   6.216  0.6584 -0.0523 -0.6498
18150THY    CA434530   3.973   2.487   6.210  0.7993  0.1830 -0.4560
18150THY    HA434531   3.876   2.439   6.210 -0.0254  0.2855  1.1557
18150THY    CA534532   3.975   2.627   6.197  0.0854  0.3373 -0.1553
18150THY    CM134533   3.853   2.710   6.173  0.7562 -0.6247  0.8317
18150THY    HM134534   3.840   2.736   6.067 -1.4417 -0.9472 -1.1657
18150THY    HM234535   3.852   2.797   6.240  1.2858  2.6337 -1.4911
18150THY    HM334536   3.769   2.642   6.195  0.9884  1.3052  1.1277
18150THY    CA634537   4.100   2.692   6.192 -0.4084 -0.2695  0.0782
18150THY    HA634538   4.104   2.800   6.180  1.7815 -1.1957 -0.0540
18151THY      O34539   1.194   6.965   4.516  0.1069  0.3069  0.2466
18151THY     HO34540   1.174   7.043   4.570 -1.2122  0.5128 -0.1967
18151THY    CA134541   1.171   6.856   4.591  0.1354  0.4497  0.5908
18151THY    CA234542   1.136   6.731   4.525 -0.6437 -0.3286  0.0269
18151THY    CP134543   1.145   6.713   4.372 -0.1064 -0.1940 -0.1037
18151THY    HP134544   1.239   6.760   4.340  0.1575 -0.5791 -0.8896
18151THY    CP234545   1.032   6.791   4.283 -0.5122  0.6345  0.9108
18151THY    HP234546   0.999   6.890   4.315 -0.2361  2.7599  0.3689
18151THY    HP334547   0.941   6.730   4.289  0.3624 -0.1186 -0.5445
18151THY    HP434548   1.055   6.805   4.177 -2.8644  0.1117  1.2365
18151THY    CP334549   1.177   6.572   4.320 -0.2187 -1.1138 -0.1981
18151THY    HP534550   1.263   6.533   4.375 -2.1178  1.2806 -1.2608
18151THY    HP634551   1.183   6.577   4.210  0.1790 -1.1875 -1.6810
18151THY    HP734552   1.091   6.505   4.334 -0.2029 -1.3375 -0.2661
18151THY    CA334553   1.083   6.629   4.610  0.4690 -0.5856  0.2652
18151THY    HA334554   1.038   6.539   4.569 -0.6721  1.9558 -0.4262
18151THY    CA434555   1.083   6.643   4.754 -0.5735 -0.0056 -0.0255
18151THY    HA434556   1.045   6.564   4.818 -2.4668  0.0716  0.9118
18151THY    CA534557   1.112   6.769   4.808 -0.1451  0.5187 -0.0906
18151THY    CM134558   1.101   6.779   4.960 -0.0832 -0.4948 -0.8203
18151THY    HM134559   1.138   6.684   5.001 -1.4417  0.6919 -0.8632
18151THY    HM234560   1.000   6.784   5.002  0.1125  0.0226 -1.1101
18151THY    HM334561   1.151   6.866   5.004 -3.1718 -0.7013  1.2202
18151THY    CA634562   1.155   6.873   4.725  0.6837 -0.4866 -0.3569
18151THY    HA634563   1.170   6.971   4.768  1.5809  0.5980 -0.9441
18152THY      O34564   3.786   3.518   1.984  0.5287  0.5980  0.5153
18152THY     HO34565   3.824   3.463   2.054 -2.1103  0.3316 -1.8335
18152THY    CA134566   3.799   3.454   1.865 -0.2802 -0.3741  0.5864
18152THY    CA234567   3.746   3.507   1.748 -0.8221 -0.8802 -0.7973
18152THY    CP134568   3.681   3.648   1.748  0.3171 -0.1183  0.4142
18152THY    HP134569   3.632   3.661   1.845 -1.4711 -0.8638 -0.4393
18152THY    CP234570   3.571   3.665   1.640 -0.0625  0.5157 -0.0386
18152THY    HP234571   3.510   3.753   1.662 -1.8674 -2.1089 -0.5324
18152THY    HP334572   3.497   3.585   1.631 -0.6771  0.4084  0.5311
18152THY    HP434573   3.612   3.685   1.541  1.8988  1.4511  0.8232
18152THY    CP334574   3.791   3.757   1.730 -0.0876  0.8859 -0.2070
18152THY    HP534575   3.856   3.719   1.651 -0.1835  0.1010  1.1626
18152THY    HP634576   3.858   3.763   1.817  1.4569 -0.2663 -0.2650
18152THY    HP734577   3.746   3.854   1.703 -1.2035  1.5873 -0.4985
18152THY    CA334578   3.765   3.435   1.630  0.2306 -0.5928  0.2742
18152THY    HA334579   3.732   3.478   1.536 -1.6190 -0.0956  0.0361
18152THY    CA434580   3.828   3.309   1.635 -0.1865  0.0687  0.6334
18152THY    HA434581   3.840   3.249   1.546 -0.2112  2.1367 -2.6581
18152THY    CA534582   3.885   3.259   1.751  0.5698  0.2045 -0.7148
18152THY    CM134583   3.954   3.122   1.743  0.1492  0.1921  0.0985
18152THY    HM134584   4.046   3.135   1.802  0.7068 -0.7040  0.3422
18152THY    HM234585   3.988   3.087   1.645  0.0797  0.2777 -0.2032
18152THY    HM334586   3.890   3.042   1.782  1.1652 -0.5911 -1.1361
18152THY    CA634587   3.866   3.329   1.871  0.1263  0.2464  0.4074
18152THY    HA634588   3.906   3.291   1.964 -1.7331  0.1811 -2.0245
18153THY      O34589   3.050   6.021   2.066 -0.4659  0.5688  0.1778
18153THY     HO34590   3.051   6.094   2.131 -0.7093 -1.0041  1.6537
18153THY    CA134591   3.160   5.944   2.083  0.2243  0.2759  0.0842
18153THY    CA234592   3.168   5.816   2.033 -0.2145  0.4903  0.2471
18153THY    CP134593   3.059   5.767   1.938  0.0440  0.7207 -0.2891
18153THY    HP134594   2.997   5.850   1.901  3.4480 -1.6929  1.3952
18153THY    CP234595   2.971   5.670   2.020 -0.0453 -0.0533  0.4692
18153THY    HP234596   3.020   5.576   2.049 -1.6017 -0.1192 -0.3934
18153THY    HP334597   2.882   5.643   1.962  0.1372 -0.7634  1.3431
18153THY    HP434598   2.928   5.718   2.108  0.4054 -0.2163  1.1763
18153THY    CP334599   3.112   5.694   1.813  0.0782 -0.3525 -0.2856
18153THY    HP534600   3.163   5.600   1.838  2.1886  0.2369  0.9634
18153THY    HP634601   3.192   5.747   1.761  1.2078  0.6613 -0.9436
18153THY    HP734602   3.039   5.682   1.732 -0.1377  0.0045 -1.5297
18153THY    CA334603   3.268   5.732   2.083  0.1896 -0.5344  0.2981
18153THY    HA334604   3.269   5.625   2.066 -0.2927 -0.0658  0.2138
18153THY    CA434605   3.371   5.787   2.165 -0.6114  1.1010 -0.1410
18153THY    HA434606   3.447   5.716   2.196  0.1486 -1.4155 -0.5250
18153THY    CA534607   3.365   5.912   2.209 -0.7165  0.1042  0.7931
18153THY    CM134608   3.462   5.951   2.310  0.5986 -0.1313  0.1536
18153THY    HM134609   3.401   5.976   2.397  0.2427  0.0097 -1.1123
18153THY    HM234610   3.510   6.043   2.275 -2.0322 -2.8937  0.6480
18153THY    HM334611   3.534   5.876   2.344  3.2515 -0.8402  2.2138
18153THY    CA634612   3.261   5.993   2.172  0.2456  0.3461 -0.8564
18153THY    HA634613   3.266   6.094   2.213 -0.6914 -0.4813 -0.4596
18154THY      O34614   3.813   6.078   3.244 -0.4796  0.1945  0.5730
18154THY     HO34615   3.870   6.143   3.200 -0.2595 -1.6066 -0.7437
18154THY    CA134616   3.692   6.082   3.181  0.5618 -0.4153  0.2019
18154THY    CA234617   3.640   5.965   3.125 -0.6562  0.4573  0.3288
18154THY    CP134618   3.722   5.827   3.135 -0.1093 -0.1814 -0.4916
18154THY    HP134619   3.817   5.840   3.188  0.8929 -1.6175 -1.6326
18154THY    CP234620   3.762   5.781   2.990  0.3855 -0.0013 -0.2209
18154THY    HP234621   3.675   5.781   2.923  0.4752 -0.1193 -0.7711
18154THY    HP334622   3.813   5.684   2.993 -0.3101 -1.7962 -0.6878
18154THY    HP434623   3.823   5.863   2.950  2.2750  0.7309 -1.2123
18154THY    CP334624   3.636   5.717   3.203  0.0067  0.8143  0.5865
18154THY    HP534625   3.544   5.683   3.155  0.1150 -0.0274  1.4377
18154THY    HP634626   3.628   5.737   3.311  0.0270  0.5736  2.0235
18154THY    HP734627   3.685   5.619   3.201  0.1030  2.9680  0.5447
18154THY    CA334628   3.513   5.966   3.072 -0.1749 -0.0758  0.5937
18154THY    HA334629   3.468   5.875   3.034  1.4658  0.3535 -0.4452
18154THY    CA434630   3.448   6.094   3.063  0.3687  0.2913  0.3082
18154THY    HA434631   3.349   6.101   3.019 -0.3787  1.8575  0.0622
18154THY    CA534632   3.509   6.210   3.112  0.2029  0.1931  0.5808
18154THY    CM134633   3.448   6.342   3.095 -0.6351  0.3394 -0.1428
18154THY    HM134634   3.387   6.367   3.182  1.1938  1.0428  2.2173
18154THY    HM234635   3.386   6.330   3.005 -2.1944  1.2719  0.5294
18154THY    HM334636   3.526   6.415   3.071 -0.2677  2.6738  0.3035
18154THY    CA634637   3.628   6.206   3.173 -0.0577  0.2360  0.1671
18154THY    HA634638   3.670   6.294   3.221  1.4896 -0.7489  0.0117
18155THY      O34639   7.902   1.223   3.291  0.0152 -0.4006  0.5031
18155THY     HO34640   7.990   1.246   3.256 -0.2066 -0.7752  0.7937
18155THY    CA134641   7.839   1.340   3.279  0.2234  0.6510 -0.2506
18155THY    CA234642   7.694   1.350   3.268 -0.2110 -0.3446 -1.2609
18155THY    CP134643   7.608   1.218   3.248 -0.0776 -0.5969 -0.3606
18155THY    HP134644   7.654   1.128   3.290 -1.1415  3.3643  0.7685
18155THY    CP234645   7.575   1.211   3.100  0.6685 -0.1567  0.4748
18155THY    HP234646   7.558   1.312   3.062  0.1414 -0.1420  0.3967
18155THY    HP334647   7.487   1.149   3.078  1.0030 -1.6692  0.4951
18155THY    HP434648   7.660   1.174   3.041  1.4348  0.9336  0.4430
18155THY    CP334649   7.476   1.216   3.330 -0.0138 -0.3355  0.6901
18155THY    HP534650   7.418   1.123   3.319  0.8988  0.9179 -0.0550
18155THY    HP634651   7.413   1.297   3.290 -0.0619  1.3423  1.5203
18155THY    HP734652   7.514   1.211   3.433  2.0990 -1.1092 -0.8363
18155THY    CA334653   7.633   1.481   3.258 -0.2000  0.0390 -0.2414
18155THY    HA334654   7.525   1.490   3.250 -0.0047 -1.0084  2.0008
18155THY    CA434655   7.724   1.590   3.245  0.3154  0.6493 -0.1990
18155THY    HA434656   7.670   1.684   3.250  1.6177  0.3165  0.5936
18155THY    CA534657   7.860   1.583   3.250 -0.1454 -0.0307 -0.4032
18155THY    CM134658   7.950   1.713   3.245  0.2861 -0.0282  0.4125
18155THY    HM134659   7.938   1.773   3.155  0.4886 -0.1718  0.2410
18155THY    HM234660   8.056   1.682   3.250 -0.5560  2.3514 -2.6522
18155THY    HM334661   7.933   1.772   3.336 -1.9623  1.1787 -1.8889
18155THY    CA634662   7.916   1.458   3.261  0.6801 -0.6312 -0.0734
18155THY    HA634663   8.024   1.452   3.265  0.8167 -1.2918  1.5141
18156THY      O34664   5.921   7.273   2.581 -0.2294 -0.4680 -0.8462
18156THY     HO34665   5.926   7.363   2.618  0.3727 -2.5959  0.0701
18156THY    CA134666   5.796   7.222   2.608  0.6507 -0.1285  1.0857
18156THY    CA234667   5.755   7.091   2.571  0.4862  0.2326 -0.0681
18156THY    CP134668   5.849   7.009   2.480 -0.3116  0.1030 -0.5923
18156THY    HP134669   5.948   7.055   2.473 -0.8464 -3.1770  0.3524
18156THY    CP234670   5.789   7.006   2.339 -0.1356  0.2840 -0.1803
18156THY    HP234671   5.684   6.974   2.343 -0.3698  0.3274  0.5742
18156THY    HP334672   5.853   6.943   2.277 -1.2395 -1.8730  0.7465
18156THY    HP434673   5.798   7.108   2.302  1.7061  0.1137 -0.3764
18156THY    CP334674   5.859   6.867   2.528 -0.2868 -0.0880 -0.8549
18156THY    HP534675   5.760   6.820   2.524 -0.1839  0.0247 -1.0838
18156THY    HP634676   5.890   6.857   2.632  0.8242 -0.5072 -2.0462
18156THY    HP734677   5.925   6.799   2.472 -0.1143 -0.2223 -0.5814
18156THY    CA334678   5.629   7.042   2.617 -0.3731 -0.0424 -0.2643
18156THY    HA334679   5.594   6.945   2.582  1.4004 -1.8470 -0.3268
18156THY    CA434680   5.546   7.130   2.690 -0.2484 -0.7294 -0.4261
18156THY    HA434681   5.447   7.095   2.718  0.1280  0.8233 -0.3317
18156THY    CA534682   5.587   7.256   2.730 -0.4364  0.4278  0.7614
18156THY    CM134683   5.493   7.341   2.799  0.2157  0.4416  1.0621
18156THY    HM134684   5.456   7.289   2.888 -1.7223 -0.5314  0.6632
18156THY    HM234685   5.418   7.367   2.724  0.1210  0.6292  1.3435
18156THY    HM334686   5.544   7.431   2.835  2.7739  0.0977 -0.1606
18156THY    CA634687   5.716   7.297   2.689 -0.2270 -0.1812 -0.4618
18156THY    HA634688   5.752   7.398   2.707 -2.8899  0.6444  0.4191
18157THY      O34689   1.970   5.930   3.256 -0.1599  0.3569  0.6975
18157THY     HO34690   2.009   6.014   3.224 -0.9099  0.2994  1.0347
18157THY    CA134691   1.843   5.955   3.289  0.8009 -0.5726  0.3618
18157THY    CA234692   1.762   5.857   3.348  0.7187  0.6531  0.1611
18157THY    CP134693   1.818   5.725   3.391  0.6401  0.7679  0.3166
18157THY    HP134694   1.927   5.719   3.380  0.6505  1.3337 -0.8267
18157THY    CP234695   1.753   5.610   3.305  0.2535  0.1019 -0.2468
18157THY    HP234696   1.741   5.645   3.202 -1.1703  1.0542  2.4145
18157THY    HP334697   1.650   5.590   3.337  0.7438  0.6083 -2.1204
18157THY    HP434698   1.817   5.525   3.328 -0.0835  1.3995 -0.1822
18157THY    CP334699   1.790   5.709   3.537  0.2961 -0.0087 -0.5097
18157THY    HP534700   1.683   5.703   3.563  0.5130  1.3847  0.9301
18157THY    HP634701   1.840   5.785   3.598  2.9141 -2.2016 -0.3369
18157THY    HP734702   1.829   5.612   3.572 -0.6326 -0.3425 -1.0126
18157THY    CA334703   1.628   5.886   3.367  0.3121  0.1831 -0.3413
18157THY    HA334704   1.563   5.810   3.409  1.1950 -1.2573 -1.9547
18157THY    CA434705   1.572   6.012   3.337 -0.7828 -0.9931  0.1642
18157THY    HA434706   1.468   6.034   3.362 -1.2098 -1.7278 -0.8975
18157THY    CA534707   1.649   6.104   3.282 -0.3834 -0.4597 -0.3589
18157THY    CM134708   1.599   6.237   3.244  0.9657 -0.0410 -0.3688
18157THY    HM134709   1.565   6.300   3.327 -0.9510 -1.0782  0.0486
18157THY    HM234710   1.516   6.228   3.173  0.4356  0.4344  0.5704
18157THY    HM334711   1.683   6.291   3.199 -0.1485 -1.0843  0.5629
18157THY    CA634712   1.784   6.076   3.249  0.0446 -0.1146  0.0143
18157THY    HA634713   1.845   6.157   3.209 -1.3367 -2.7698 -0.1383
18158THY      O34714   4.571   3.373   4.309 -0.1709  0.2001  0.1894
18158THY     HO34715   4.638   3.363   4.240 -0.1157  0.1111  1.1426
18158THY    CA134716   4.458   3.417   4.247  0.3421 -0.3783  0.5649
18158THY    CA234717   4.353   3.470   4.320  0.6261  0.1104 -0.8991
18158THY    CP134718   4.361   3.490   4.477  0.2298  0.0600  0.2446
18158THY    HP134719   4.461   3.465   4.514  0.2920 -0.8188 -0.8932
18158THY    CP234720   4.260   3.396   4.557 -0.2962 -0.2913  0.2115
18158THY    HP234721   4.159   3.433   4.535 -0.7296 -2.0275 -1.8466
18158THY    HP334722   4.285   3.391   4.663  1.9393 -0.8297 -1.3464
18158THY    HP434723   4.249   3.294   4.519 -2.5063 -0.9208  0.6297
18158THY    CP334724   4.333   3.633   4.517  0.2471  0.1978  0.4502
18158THY    HP534725   4.371   3.649   4.618  0.3296  0.4905 -1.4224
18158THY    HP634726   4.225   3.653   4.509  0.1328 -3.2980 -0.8670
18158THY    HP734727   4.393   3.701   4.455 -0.6470 -1.3280 -0.0860
18158THY    CA334728   4.249   3.528   4.243  0.1884  0.1214  0.2617
18158THY    HA334729   4.174   3.583   4.298 -0.9438 -2.3677  1.3599
18158THY    CA434730   4.244   3.498   4.106 -0.8416 -0.5369 -0.2287
18158THY    HA434731   4.173   3.543   4.038  0.3501 -0.8760  1.2053
18158THY    CA534732   4.342   3.430   4.044 -0.1064  0.5519  0.3301
18158THY    CM134733   4.344   3.422   3.894 -0.1293 -0.4076  0.0317
18158THY    HM134734   4.402   3.335   3.860  1.0015 -0.3641  0.7532
18158THY    HM234735   4.394   3.507   3.847 -1.0834 -3.9980 -1.2159
18158THY    HM334736   4.241   3.406   3.859 -0.2093  1.0591 -3.8235
18158THY    CA634737   4.452   3.383   4.115  0.1915 -0.0188 -0.3253
18158THY    HA634738   4.533   3.338   4.058 -2.1193 -1.4977 -2.9295
18159THY      O34739   7.247   6.094   5.602 -1.1813 -0.5245 -0.4100
18159THY     HO34740   7.221   6.181   5.567  1.3476  0.7606  0.9681
18159THY    CA134741   7.253   6.118   5.737  0.9290  0.4010 -0.3137
18159THY    CA234742   7.253   6.011   5.825 -0.4290 -0.3845  0.0418
18159THY    CP134743   7.297   5.878   5.773 -0.3875  0.5034 -0.1102
18159THY    HP134744   7.283   5.868   5.665  0.1942  0.1476  2.1670
18159THY    CP234745   7.230   5.755   5.827 -0.3242 -0.4033  0.2164
18159THY    HP234746   7.124   5.757   5.797 -0.5561  0.3486 -0.1979
18159THY    HP334747   7.231   5.735   5.935  1.0218 -0.9584 -3.4943
18159THY    HP434748   7.279   5.667   5.784 -0.1662 -0.1129  0.1595
18159THY    CP334749   7.457   5.868   5.783  0.0359  0.5168 -0.3899
18159THY    HP534750   7.498   5.794   5.713  0.6971  0.3633  0.1111
18159THY    HP634751   7.484   5.847   5.887 -1.8127  1.8603  3.0175
18159THY    HP734752   7.504   5.963   5.756 -0.4714 -0.9809 -0.5386
18159THY    CA334753   7.249   6.038   5.965 -0.3453 -0.3470  0.3197
18159THY    HA334754   7.249   5.955   6.035  0.0856  1.5159  1.8273
18159THY    CA434755   7.235   6.170   6.013 -0.7382  0.2764  0.2443
18159THY    HA434756   7.238   6.186   6.121 -1.1028  0.1714  1.0767
18159THY    CA534757   7.226   6.274   5.923 -0.1861 -0.5271 -0.1267
18159THY    CM134758   7.190   6.411   5.974  0.8519 -0.1305  0.1343
18159THY    HM134759   7.081   6.421   5.975  0.9613 -0.6937  1.5514
18159THY    HM234760   7.234   6.478   5.899  1.6266 -1.3810 -1.6771
18159THY    HM334761   7.236   6.442   6.068  1.3679 -0.5719  0.7425
18159THY    CA634762   7.245   6.250   5.784  0.5555  0.7286 -0.2592
18159THY    HA634763   7.247   6.326   5.707  1.5852 -1.2568 -2.1898
18160THY      O34764   8.099   0.897   6.170  0.1021 -0.4286  0.7720
18160THY     HO34765   8.178   0.902   6.113  1.0740  0.2583 -3.2963
18160THY    CA134766   8.135   0.956   6.283  0.3081  0.1349  0.5456
18160THY    CA234767   8.102   0.902   6.411  1.0426 -0.1831 -0.2231
18160THY    CP134768   8.035   0.768   6.419 -0.4512  0.6025 -0.3801
18160THY    HP134769   8.046   0.724   6.320 -0.0249 -1.0856  3.1463
18160THY    CP234770   7.884   0.764   6.433  0.0561  0.1019  0.0377
18160THY    HP234771   7.835   0.675   6.393  0.2824 -0.4940  0.1780
18160THY    HP334772   7.833   0.850   6.390 -1.5554  1.4979 -0.1610
18160THY    HP434773   7.846   0.783   6.535 -2.3017 -0.7337  0.1552
18160THY    CP334774   8.105   0.667   6.514 -0.2045 -0.5729  0.4297
18160THY    HP534775   8.098   0.563   6.482 -4.0090 -2.4421  1.1055
18160THY    HP634776   8.064   0.664   6.615  1.6083  0.2012  0.0817
18160THY    HP734777   8.214   0.675   6.521 -0.3730  1.5760  1.4560
18160THY    CA334778   8.135   0.976   6.530 -0.1053  0.0255 -0.7289
18160THY    HA334779   8.098   0.944   6.627  1.6849  0.6525 -0.9852
18160THY    CA434780   8.225   1.087   6.511  0.2046 -0.1776  0.1902
18160THY    HA434781   8.258   1.150   6.593 -1.6678 -0.7147  1.9873
18160THY    CA534782   8.252   1.140   6.384 -0.4827 -0.2017  0.4097
18160THY    CM134783   8.340   1.265   6.365 -0.4255  1.0177 -0.2746
18160THY    HM134784   8.266   1.332   6.319 -1.1919  0.7710 -1.2616
18160THY    HM234785   8.424   1.255   6.296  0.4832  2.1322 -0.5622
18160THY    HM334786   8.370   1.307   6.462  0.0827  0.5324  0.4900
18160THY    CA634787   8.214   1.065   6.276  0.3438  1.0851 -0.5558
18160THY    HA634788   8.249   1.101   6.179  0.2801  0.8963 -0.9977
18161THY      O34789   8.029   2.377   7.245 -0.1782 -0.2315  0.1770
18161THY     HO34790   8.099   2.405   7.183  2.1588  2.5993  1.0983
18161THY    CA134791   8.082   2.281   7.323 -0.4451 -0.1185  0.1296
18161THY    CA234792   8.018   2.230   7.440 -0.4612  0.7564 -0.9863
18161THY    CP134793   7.883   2.288   7.479  0.3282 -0.3636  0.0667
18161THY    HP134794   7.859   2.374   7.416  1.0234 -1.0397 -0.2288
18161THY    CP234795   7.889   2.355   7.622  0.1817 -0.1339 -0.1759
18161THY    HP234796   7.949   2.293   7.689  0.0661  1.2095  1.1160
18161THY    HP334797   7.789   2.366   7.666  0.9944  1.4893  1.1139
18161THY    HP434798   7.941   2.452   7.617 -0.7570 -1.4042  0.2994
18161THY    CP334799   7.761   2.182   7.469 -0.1770 -0.2646 -1.0974
18161THY    HP534800   7.661   2.222   7.489 -0.0516 -0.6393 -0.5948
18161THY    HP634801   7.776   2.109   7.550 -0.8985 -0.2117 -1.1923
18161THY    HP734802   7.749   2.145   7.366 -1.9824 -0.3020 -0.5194
18161THY    CA334803   8.090   2.127   7.518 -0.2856 -0.1239  0.1668
18161THY    HA334804   8.032   2.080   7.597  0.3072 -0.2606 -0.8070
18161THY    CA434805   8.220   2.086   7.487 -0.2320  0.2883  0.6460
18161THY    HA434806   8.271   2.013   7.549  1.4194 -0.0139  1.4903
18161THY    CA534807   8.283   2.151   7.382  0.5522  0.4627 -0.4755
18161THY    CM134808   8.428   2.121   7.340 -0.4719  0.2954 -0.5160
18161THY    HM134809   8.458   2.200   7.271 -2.8552 -0.1905  0.0609
18161THY    HM234810   8.435   2.030   7.280 -0.8528 -1.5497  0.6111
18161THY    HM334811   8.498   2.111   7.423 -0.6305  0.4212 -0.5978
18161THY    CA634812   8.215   2.245   7.295 -0.2160 -0.1261 -0.3326
18161THY    HA634813   8.271   2.296   7.217 -0.1977 -0.3536 -0.6958
18162THY      O34814   4.960   7.106   4.547  0.2951  0.1191  0.1934
18162THY     HO34815   4.875   7.153   4.551 -0.1913  2.0063 -0.7816
18162THY    CA134816   5.012   7.155   4.428  0.7053 -0.7790  0.2075
18162THY    CA234817   5.144   7.139   4.399 -0.7758 -0.1911  0.0505
18162THY    CP134818   5.245   7.067   4.484 -0.0593 -0.2466  0.0726
18162THY    HP134819   5.197   7.021   4.571 -3.6174 -1.1728  1.7014
18162THY    CP234820   5.355   7.179   4.512  0.0003  0.4727  0.9717
18162THY    HP234821   5.309   7.278   4.515 -2.0812  0.7794  0.0594
18162THY    HP334822   5.442   7.183   4.446  0.4107  1.0858  4.2252
18162THY    HP434823   5.397   7.148   4.609 -1.3890  0.4035 -1.4121
18162THY    CP334824   5.294   6.946   4.397 -0.2551 -0.2686 -0.3213
18162THY    HP534825   5.374   6.905   4.459 -0.0974 -1.1046 -1.3245
18162THY    HP634826   5.330   6.974   4.297 -0.5485 -0.2443  0.1616
18162THY    HP734827   5.206   6.881   4.397 -1.6381 -0.4902  1.4460
18162THY    CA334828   5.202   7.202   4.282  0.2402  0.1423  0.3556
18162THY    HA334829   5.307   7.201   4.252  0.3528  0.2238 -2.9780
18162THY    CA434830   5.114   7.269   4.191  0.0972 -0.4926 -0.8120
18162THY    HA434831   5.148   7.321   4.102 -2.7469 -0.0771  2.1457
18162THY    CA534832   4.976   7.283   4.224  0.0098 -0.8193 -0.1614
18162THY    CM134833   4.887   7.369   4.144 -0.2861 -0.7553  0.4169
18162THY    HM134834   4.781   7.359   4.172 -0.3208 -1.1007 -0.2287
18162THY    HM234835   4.910   7.348   4.039 -0.0308 -0.6578  0.2044
18162THY    HM334836   4.916   7.473   4.162 -3.2747  1.0895  1.0625
18162THY    CA634837   4.925   7.220   4.338 -0.0399  0.4349 -0.1320
18162THY    HA634838   4.819   7.224   4.361  0.3908  2.4962  1.6651
18163THY      O34839   1.893   8.418   2.396 -0.1800  0.5019 -0.6676
18163THY     HO34840   1.975   8.458   2.363 -0.4979 -0.1791 -0.5656
18163THY    CA134841   1.800   8.438   2.314  0.7218  0.1921 -0.1520
18163THY    CA234842   1.667   8.460   2.357 -0.2901 -0.2219 -0.1731
18163THY    CP134843   1.631   8.424   2.497  0.5097 -1.0423  0.0026
18163THY    HP134844   1.701   8.349   2.536 -0.5361  0.6411 -0.1524
18163THY    CP234845   1.506   8.342   2.503  0.6173 -0.2564  0.2143
18163THY    HP234846   1.423   8.413   2.502  2.0110  0.6466  1.9354
18163THY    HP334847   1.502   8.295   2.602  2.1579  0.0908  0.7835
18163THY    HP434848   1.487   8.269   2.423 -0.3546  0.2496 -0.1127
18163THY    CP334849   1.616   8.548   2.581  0.4006  0.4222 -0.5684
18163THY    HP534850   1.700   8.617   2.569 -0.9586 -0.4344  1.0182
18163THY    HP634851   1.590   8.529   2.686 -1.6063 -0.0701 -0.7988
18163THY    HP734852   1.532   8.607   2.543  0.5459 -0.6380 -1.0314
18163THY    CA334853   1.572   8.512   2.264  0.9619 -0.0294  0.5205
18163THY    HA334854   1.470   8.533   2.294  1.0724  2.2080 -1.6516
18163THY    CA434855   1.605   8.527   2.131 -1.2964  0.6639  0.1503
18163THY    HA434856   1.528   8.558   2.061 -3.2172  1.5647 -2.2705
18163THY    CA534857   1.737   8.504   2.086  0.2237  0.0560  1.1209
18163THY    CM134858   1.787   8.531   1.939  0.0309 -0.1557  0.4527
18163THY    HM134859   1.710   8.487   1.875  2.3569 -2.3805 -0.6040
18163THY    HM234860   1.884   8.488   1.915 -0.2330 -1.9954  0.7962
18163THY    HM334861   1.786   8.639   1.922 -1.8799 -1.2808  0.2992
18163THY    CA634862   1.833   8.461   2.183 -0.9686  0.4892  0.3521
18163THY    HA634863   1.932   8.435   2.145 -1.2438  0.2860 -0.4323
18164THY      O34864   3.242   4.062   6.954 -0.0765  0.2837  0.5208
18164THY     HO34865   3.210   4.094   6.868  1.2874  0.0319  1.2996
18164THY    CA134866   3.291   4.170   7.005  0.6537 -0.0534  0.0572
18164THY    CA234867   3.299   4.180   7.152  0.5892 -0.0542 -0.1296
18164THY    CP134868   3.270   4.063   7.239  0.7064  0.1050  0.0759
18164THY    HP134869   3.208   3.990   7.186 -0.0213  0.3513  0.5034
18164THY    CP234870   3.196   4.092   7.372  0.4508  0.9222  0.2199
18164THY    HP234871   3.239   4.179   7.424  0.7076 -2.0514  1.9950
18164THY    HP334872   3.200   4.014   7.449 -0.9287 -0.4314 -1.2602
18164THY    HP434873   3.092   4.120   7.351  1.4335  0.4010  4.0851
18164THY    CP334874   3.397   3.984   7.273 -0.0326 -0.0307 -0.1510
18164THY    HP534875   3.447   4.024   7.362 -1.6026  1.8661 -2.1599
18164THY    HP634876   3.456   3.994   7.181 -0.7194 -0.3922  0.7249
18164THY    HP734877   3.361   3.882   7.289 -0.8099 -2.1073 -0.2529
18164THY    CA334878   3.328   4.313   7.209  0.5219  0.1897  0.0900
18164THY    HA334879   3.321   4.329   7.317 -1.4815  0.5336 -2.4709
18164THY    CA434880   3.340   4.425   7.125 -0.0808  0.0235  0.6350
18164THY    HA434881   3.358   4.525   7.165  1.7476  1.0573 -0.0737
18164THY    CA534882   3.338   4.411   6.982 -0.1285 -1.0149 -0.6439
18164THY    CM134883   3.344   4.540   6.900  0.3865  0.3130 -0.1481
18164THY    HM134884   3.446   4.578   6.903  0.5951  2.1574 -0.7493
18164THY    HM234885   3.291   4.617   6.956  1.9934  1.2863  0.2903
18164THY    HM334886   3.296   4.521   6.803 -1.4763  0.9766  0.8964
18164THY    CA634887   3.307   4.289   6.926  0.2622 -0.5919  0.8599
18164THY    HA634888   3.293   4.286   6.818  2.6089 -1.1203  3.5094
18165THY      O34889   7.870   2.497   5.774 -0.7712  0.0435  0.0242
18165THY     HO34890   7.800   2.564   5.772  1.7168  2.4692  2.9337
18165THY    CA134891   7.826   2.388   5.706  0.1580 -0.6465 -0.6374
18165THY    CA234892   7.923   2.293   5.671 -0.0157 -0.2595  0.0298
18165THY    CP134893   8.066   2.303   5.720 -0.6167 -0.0446 -0.3692
18165THY    HP134894   8.074   2.351   5.817 -2.0106 -0.2629  0.3345
18165THY    CP234895   8.145   2.365   5.601 -0.3920  0.5325  0.0898
18165THY    HP234896   8.098   2.457   5.563 -1.9704  1.7552 -0.1586
18165THY    HP334897   8.142   2.287   5.524  1.0283  1.3147 -0.7585
18165THY    HP434898   8.249   2.388   5.627  0.0547 -0.4048 -0.8099
18165THY    CP334899   8.129   2.163   5.740  1.1579 -0.5745 -0.5078
18165THY    HP534900   8.057   2.110   5.803 -0.0026 -1.0813  0.4095
18165THY    HP634901   8.217   2.172   5.805  1.3810 -1.0101  0.6778
18165THY    HP734902   8.149   2.108   5.647  0.3279 -2.2759  1.8803
18165THY    CA334903   7.876   2.183   5.597  0.5749  0.0396  1.3838
18165THY    HA334904   7.944   2.109   5.557  0.6004  0.4675  1.1690
18165THY    CA434905   7.739   2.185   5.556 -0.0725  0.0431  0.4687
18165THY    HA434906   7.718   2.096   5.496 -0.1696  0.1826  0.3964
18165THY    CA534907   7.651   2.279   5.593  1.0512 -0.0308 -0.2856
18165THY    CM134908   7.502   2.268   5.549  0.8751 -0.8931  0.2185
18165THY    HM134909   7.476   2.167   5.517  1.1264 -0.2670 -0.0516
18165THY    HM234910   7.490   2.346   5.473  0.1207  0.7839  1.8278
18165THY    HM334911   7.445   2.302   5.636 -1.5997 -2.5125  0.4403
18165THY    CA634912   7.694   2.383   5.678 -0.0813 -0.3531  0.1113
18165THY    HA634913   7.617   2.456   5.701 -1.7425  0.5570 -1.8496
18166THY      O34914   5.858   8.270   1.818 -0.1604  0.2698  0.3886
18166THY     HO34915   5.794   8.230   1.757  1.6295 -1.0042 -0.6554
18166THY    CA134916   5.803   8.373   1.886  0.9256  0.2430  0.4536
18166THY    CA234917   5.895   8.472   1.934 -0.1253  0.1867 -0.5636
18166THY    CP134918   6.041   8.486   1.883 -0.5356 -0.4226 -0.2294
18166THY    HP134919   6.042   8.478   1.774 -0.4837 -0.5045  0.7833
18166THY    CP234920   6.132   8.384   1.942  0.1310  0.6974  0.0575
18166THY    HP234921   6.086   8.285   1.952 -0.8953  1.3021  0.5697
18166THY    HP334922   6.155   8.406   2.047 -0.8933  0.7442  0.9959
18166THY    HP434923   6.222   8.382   1.880 -1.4260 -1.7093  0.5712
18166THY    CP334924   6.104   8.624   1.909  0.1716  0.2576 -0.6013
18166THY    HP534925   6.206   8.631   1.871 -0.2900 -0.8692  0.2487
18166THY    HP634926   6.116   8.639   2.017 -1.6500  0.5423 -0.8641
18166THY    HP734927   6.038   8.702   1.870 -0.3382 -0.4492 -1.3677
18166THY    CA334928   5.839   8.568   2.028 -0.1590  0.1007  0.5304
18166THY    HA334929   5.891   8.653   2.071 -4.5181 -0.5216  3.8954
18166THY    CA434930   5.710   8.549   2.075 -0.2840  0.7381 -0.6252
18166THY    HA434931   5.680   8.618   2.152  2.2200  0.0344  1.4002
18166THY    CA534932   5.621   8.463   2.006 -0.0034  0.1807  0.0617
18166THY    CM134933   5.481   8.462   2.038  0.4292 -0.8397  0.0198
18166THY    HM134934   5.416   8.519   1.972 -1.5297  3.7933  3.8123
18166THY    HM234935   5.475   8.515   2.134  0.4122 -2.2145  2.6389
18166THY    HM334936   5.440   8.362   2.059 -1.5644 -0.4993  0.8788
18166THY    CA634937   5.665   8.371   1.920 -0.1149  0.4102  0.2207
18166THY    HA634938   5.599   8.295   1.880 -0.1167 -0.8345  0.8530
18167THY      O34939   6.866   1.315   4.116  0.3820  0.7541  0.6860
18167THY     HO34940   6.885   1.259   4.039 -0.8099  1.0229 -0.1249
18167THY    CA134941   6.760   1.260   4.163 -0.2119 -0.3371  0.5843
18167THY    CA234942   6.690   1.308   4.275 -0.1468  0.2421 -0.0762
18167THY    CP134943   6.733   1.441   4.340  0.7296 -0.1743  0.2737
18167THY    HP134944   6.793   1.499   4.269 -0.4921 -1.6205 -0.1618
18167THY    CP234945   6.812   1.416   4.471  0.1945  0.2462  0.1590
18167THY    HP234946   6.828   1.514   4.516  0.1608 -0.7431  0.6291
18167THY    HP334947   6.909   1.368   4.451 -0.2427  0.6458 -0.9310
18167THY    HP434948   6.748   1.357   4.537 -0.5550 -1.5176 -1.0866
18167THY    CP334949   6.611   1.532   4.359 -0.0173  1.1064  0.2765
18167THY    HP534950   6.536   1.511   4.282  2.5897 -0.8826 -2.5450
18167THY    HP634951   6.647   1.634   4.376  2.3696  3.1877 -0.7992
18167THY    HP734952   6.570   1.493   4.453 -2.1459 -0.3059 -1.0641
18167THY    CA334953   6.581   1.240   4.329  0.5635  0.0655  0.0817
18167THY    HA334954   6.514   1.283   4.402  0.5873  1.0673 -1.4968
18167THY    CA434955   6.546   1.119   4.267  0.3050  0.1329  0.6217
18167THY    HA434956   6.455   1.071   4.301  0.3324 -1.3735 -0.5850
18167THY    CA534957   6.617   1.065   4.153 -0.7709 -0.2756 -0.5110
18167THY    CM134958   6.581   0.936   4.102  0.5147 -0.0208 -0.5615
18167THY    HM134959   6.603   0.848   4.165  1.1554 -1.9432 -1.8352
18167THY    HM234960   6.629   0.921   4.005  0.9396  0.2718 -1.1593
18167THY    HM334961   6.472   0.934   4.089  0.5204 -0.0932 -0.3972
18167THY    CA634962   6.719   1.146   4.099 -0.4524 -1.1518  0.3550
18167THY    HA634963   6.776   1.101   4.018  0.7857 -0.2793  0.3240
18168THY      O34964   3.697   1.899   5.353  0.0937 -0.5221 -0.4972
18168THY     HO34965   3.685   1.848   5.434  0.2035 -1.8075 -2.7119
18168THY    CA134966   3.597   1.993   5.346  0.0734 -0.8418 -0.2148
18168THY    CA234967   3.596   2.105   5.259  0.0333  0.0078 -0.3327
18168THY    CP134968   3.701   2.128   5.154  0.1021 -0.0767  0.0399
18168THY    HP134969   3.789   2.067   5.182 -0.3661  0.2112 -0.5170
18168THY    CP234970   3.759   2.274   5.146  0.4639  0.3091 -0.0408
18168THY    HP234971   3.696   2.343   5.087 -0.0874 -0.8377 -1.4735
18168THY    HP334972   3.847   2.261   5.082 -0.1998 -0.5921 -0.1753
18168THY    HP434973   3.787   2.322   5.240 -0.8633  0.4339  0.5551
18168THY    CP334974   3.644   2.068   5.020  0.1445 -0.7885 -0.0681
18168THY    HP534975   3.556   2.127   4.993  1.6601 -1.4248  2.0260
18168THY    HP634976   3.625   1.960   5.021  3.5202 -2.3495 -0.8073
18168THY    HP734977   3.724   2.089   4.948  2.5177  1.1437 -1.8782
18168THY    CA334978   3.495   2.206   5.269  0.2412 -0.5090  0.2836
18168THY    HA334979   3.488   2.275   5.186 -1.0100 -0.6251  0.0461
18168THY    CA434980   3.403   2.202   5.377  0.0527  0.2096 -0.5021
18168THY    HA434981   3.340   2.288   5.397  0.4065  0.2629 -0.2537
18168THY    CA534982   3.402   2.093   5.467 -0.3062  1.0386  0.0729
18168THY    CM134983   3.309   2.094   5.581 -0.3242 -0.5354  0.3722
18168THY    HM134984   3.291   1.998   5.632  2.3013  2.8624  1.5022
18168THY    HM234985   3.213   2.137   5.550 -0.1392  1.7467  2.6519
18168THY    HM334986   3.343   2.175   5.646 -0.9788 -1.0572  1.0853
18168THY    CA634987   3.500   1.990   5.449  0.2304 -0.1237  0.4677
18168THY    HA634988   3.503   1.914   5.526 -1.6380 -0.5670 -0.1121
18169THY      O34989   3.825   1.552   7.472  0.3011 -0.0609  0.1975
18169THY     HO34990   3.918   1.545   7.502  0.1451  0.2594 -0.7280
18169THY    CA134991   3.830   1.495   7.354  0.4154  0.5601  0.7278
18169THY    CA234992   3.726   1.508   7.263  0.9799 -0.2917  0.5713
18169THY    CP134993   3.597   1.582   7.294 -0.0300  0.1332 -0.3981
18169THY    HP134994   3.605   1.607   7.401 -0.7273 -0.3399  2.1745
18169THY    CP234995   3.473   1.497   7.268  0.6219  0.6109  0.7328
18169THY    HP234996   3.445   1.497   7.162  0.3184  0.6814 -0.2803
18169THY    HP334997   3.384   1.526   7.326 -0.9095 -0.7641 -0.9865
18169THY    HP434998   3.489   1.390   7.283 -3.1545 -1.2927 -0.2501
18169THY    CP334999   3.577   1.718   7.235 -0.1532 -0.2193  0.2726
18169THY    HP535000   3.655   1.788   7.267 -1.4360  0.2547  1.5377
18169THY    HP635001   3.480   1.760   7.263  0.8928  1.8321  1.5114
18169THY    HP735002   3.574   1.721   7.126  3.4899 -0.4510 -0.3103
18169THY    CA335003   3.732   1.442   7.135  0.2233 -0.2196  0.2620
18169THY    HA335004   3.648   1.439   7.066 -0.9237  1.1749 -0.4182
18169THY    CA435005   3.853   1.378   7.106  0.1351  0.0451  0.6551
18169THY    HA435006   3.864   1.322   7.013  0.4917  0.7245 -0.4411
18169THY    CA535007   3.962   1.374   7.196 -0.2106  0.0991  0.1861
18169THY    CM135008   4.087   1.292   7.162 -0.0150 -0.0253  0.4804
18169THY    HM135009   4.111   1.210   7.232  0.3281 -0.4289  0.2284
18169THY    HM235010   4.175   1.352   7.137  1.8649  0.5711 -1.8319
18169THY    HM335011   4.060   1.233   7.074 -1.4985  1.2541 -0.8379
18169THY    CA635012   3.950   1.428   7.319  0.0121 -0.0420 -0.2004
18169THY    HA635013   4.033   1.439   7.389  0.1141 -0.2091  0.0984
18170THY      O35014   3.139   6.758   7.035  0.2308  0.1196  0.7240
18170THY     HO35015   3.104   6.681   6.988 -4.0834  3.1974  0.4547
18170THY    CA135016   3.247   6.714   7.102 -0.1149  0.5478  0.6629
18170THY    CA235017   3.340   6.796   7.168  0.2672 -0.3056 -0.5882
18170THY    CP135018   3.327   6.947   7.185  0.2801  0.4946  0.0054
18170THY    HP135019   3.232   6.988   7.147  1.6619 -2.4354  0.7291
18170THY    CP235020   3.447   7.021   7.115 -0.1764  0.3334  0.3516
18170THY    HP235021   3.475   6.973   7.021  0.0584 -0.7187  2.4274
18170THY    HP335022   3.538   7.023   7.177 -0.7254  1.2177 -0.8064
18170THY    HP435023   3.413   7.122   7.089 -1.2579 -0.4686 -0.2047
18170THY    CP335024   3.328   6.977   7.336 -0.2626 -1.1918 -0.1124
18170THY    HP535025   3.320   7.085   7.356 -0.5075  1.0328 -0.5100
18170THY    HP635026   3.412   6.937   7.393 -3.4440  2.5553 -2.1481
18170THY    HP735027   3.243   6.936   7.392  1.0069  0.0498 -1.1355
18170THY    CA335028   3.455   6.731   7.218 -0.5332 -0.3224 -0.2830
18170THY    HA335029   3.535   6.782   7.272 -1.3485 -0.7578  1.5470
18170THY    CA435030   3.461   6.599   7.221  0.7621 -0.1688  0.1117
18170THY    HA435031   3.549   6.552   7.265  0.4679 -0.7316 -1.0034
18170THY    CA535032   3.367   6.517   7.166  0.1392  0.2631  0.3162
18170THY    CM135033   3.397   6.368   7.151  0.2716  0.1401  0.7185
18170THY    HM135034   3.501   6.339   7.171 -0.4069  1.4465 -0.9790
18170THY    HM235035   3.375   6.335   7.049  0.7903  0.1458  0.3571
18170THY    HM335036   3.340   6.299   7.214  0.2903 -2.0518 -1.4453
18170THY    CA635037   3.258   6.573   7.099  0.5945  0.1428  0.2515
18170THY    HA635038   3.178   6.514   7.054 -0.0189  2.1568 -0.5615
18171THY      O35039   2.539   1.464   4.295  0.0810  0.2755 -0.2050
18171THY     HO35040   2.481   1.542   4.292  1.0951 -2.5857  0.5894
18171THY    CA135041   2.473   1.370   4.369  0.3356 -0.1849  0.4163
18171THY    CA235042   2.535   1.249   4.416  0.2261 -0.8196  0.1337
18171THY    CP135043   2.678   1.191   4.367  0.2802 -0.2769 -0.1551
18171THY    HP135044   2.752   1.270   4.349  0.6887 -0.7495 -0.6381
18171THY    CP235045   2.657   1.126   4.231 -0.0500 -0.2314 -0.2321
18171THY    HP235046   2.629   1.208   4.163 -0.3961  2.1417  1.7590
18171THY    HP335047   2.573   1.056   4.232  0.2766 -0.4550 -0.6251
18171THY    HP435048   2.746   1.077   4.191 -0.8349  0.1525 -2.0518
18171THY    CP335049   2.738   1.080   4.450  0.0261 -0.2153  0.5469
18171THY    HP535050   2.774   1.113   4.549 -1.9455  0.6792  0.1544
18171THY    HP635051   2.832   1.043   4.407  2.1494  4.6043 -0.4748
18171THY    HP735052   2.676   0.990   4.462 -0.1227 -0.9875  0.5447
18171THY    CA335053   2.460   1.172   4.507 -0.0935  0.0446  0.5204
18171THY    HA335054   2.503   1.078   4.542 -2.1535  2.8165  0.4850
18171THY    CA435055   2.332   1.199   4.545 -0.7918 -0.3719  0.3701
18171THY    HA435056   2.281   1.129   4.609 -1.8153  0.6497  1.9971
18171THY    CA535057   2.269   1.308   4.487 -0.0549  0.3141 -0.3895
18171THY    CM135058   2.128   1.334   4.524 -0.6670 -0.7596 -0.4812
18171THY    HM135059   2.105   1.305   4.627  0.5250 -0.7714 -1.5312
18171THY    HM235060   2.065   1.267   4.463 -0.0213 -2.2228  0.2042
18171THY    HM335061   2.100   1.440   4.521  4.6430 -0.5960  1.1960
18171THY    CA635062   2.341   1.396   4.398  0.1751  0.0297 -0.1517
18171THY    HA635063   2.290   1.475   4.344 -0.0310 -0.0527 -0.3398
18172THY      O35064   6.143   5.971   7.729 -0.2435 -0.5400  0.1734
18172THY     HO35065   6.172   5.900   7.668  2.1980  1.0447 -0.3151
18172THY    CA135066   6.166   6.082   7.651 -0.1023  0.7567  0.6690
18172THY    CA235067   6.118   6.211   7.687  0.2196 -0.8324 -0.4908
18172THY    CP135068   6.046   6.221   7.827  0.6887 -0.8209 -0.3775
18172THY    HP135069   6.028   6.128   7.882 -2.0983  1.7053  1.4570
18172THY    CP235070   5.901   6.265   7.816 -0.4356  0.1256 -0.6054
18172THY    HP235071   5.852   6.206   7.737  2.5174 -1.9461 -0.5072
18172THY    HP335072   5.896   6.372   7.792  0.9131  1.5254 -0.2018
18172THY    HP435073   5.848   6.249   7.911  0.2796  0.9512  1.5128
18172THY    CP335074   6.124   6.312   7.928 -0.2991  0.7138  0.4569
18172THY    HP535075   6.202   6.257   7.981 -0.2300 -0.7325 -0.9071
18172THY    HP635076   6.057   6.348   8.007 -0.8593  0.0471  0.9083
18172THY    HP735077   6.187   6.390   7.885  0.8760  0.1855 -0.7520
18172THY    CA335078   6.132   6.317   7.602  0.3230 -0.7980 -0.6732
18172THY    HA335079   6.076   6.408   7.622  0.1918  2.0133 -1.2776
18172THY    CA435080   6.206   6.298   7.485 -0.3107 -0.0464  0.0551
18172THY    HA435081   6.216   6.374   7.408  0.0852 -2.2979 -2.1358
18172THY    CA535082   6.251   6.171   7.444 -0.2653 -0.7005 -0.1701
18172THY    CM135083   6.305   6.144   7.305  0.0325  0.2274  0.3145
18172THY    HM135084   6.315   6.234   7.243 -0.7694  0.5506  0.6372
18172THY    HM235085   6.233   6.076   7.257  1.6324 -1.5254 -0.2141
18172THY    HM335086   6.402   6.094   7.308 -0.1924 -0.2683 -0.1617
18172THY    CA635087   6.228   6.063   7.528  0.1081 -0.2797  0.4832
18172THY    HA635088   6.243   5.963   7.488  0.5004 -3.7396  1.7620
18173THY      O35089   1.382   0.431   2.131 -0.4891  0.0786 -0.3738
18173THY     HO35090   1.436   0.351   2.117  1.7939  0.8782  0.9255
18173THY    CA135091   1.481   0.528   2.141  0.5157  0.4310  0.7151
18173THY    CA235092   1.453   0.651   2.207 -0.7242  0.3253  0.6514
18173THY    CP135093   1.317   0.675   2.264  0.4039  0.6396 -0.4483
18173THY    HP135094   1.235   0.626   2.210  0.2026 -0.3956  0.9327
18173THY    CP235095   1.280   0.826   2.269 -0.3535 -0.4397  0.1325
18173THY    HP235096   1.311   0.884   2.181  1.8300  1.2304  1.6741
18173THY    HP335097   1.324   0.889   2.347  1.1067 -1.2435  0.1690
18173THY    HP435098   1.171   0.828   2.278 -0.4591 -1.0566 -1.4001
18173THY    CP335099   1.301   0.620   2.405  0.1882 -0.8361 -0.2830
18173THY    HP535100   1.238   0.531   2.409 -1.9292 -1.2763  1.1062
18173THY    HP635101   1.235   0.687   2.462 -0.1781 -2.8898  1.2194
18173THY    HP735102   1.398   0.598   2.450 -0.8161  0.5026 -2.2089
18173THY    CA335103   1.570   0.743   2.213  0.2222  0.7281 -0.1876
18173THY    HA335104   1.558   0.839   2.262 -1.2630  0.5591 -0.2638
18173THY    CA435105   1.692   0.711   2.150  0.2708  0.3211  0.2168
18173THY    HA435106   1.773   0.782   2.135  1.2022 -1.8030 -1.1831
18173THY    CA535107   1.712   0.585   2.097 -0.5258 -0.4392  0.3885
18173THY    CM135108   1.847   0.558   2.029  0.2942 -0.2142 -0.2759
18173THY    HM135109   1.872   0.660   1.998  1.8353 -0.4629 -0.7050
18173THY    HM235110   1.833   0.498   1.938  1.0293 -1.7110  1.6968
18173THY    HM335111   1.919   0.508   2.094  0.8834 -0.7308 -0.1183
18173THY    CA635112   1.612   0.491   2.097 -0.7437  0.5899 -0.2751
18173THY    HA635113   1.642   0.390   2.070  2.8920 -1.1617  1.0737
18174THY      O35114   4.790   7.154   7.705  0.3962  0.0845 -0.0233
18174THY     HO35115   4.815   7.105   7.786 -1.5689  0.8876  0.2009
18174THY    CA135116   4.877   7.254   7.692  0.0010 -0.7034 -0.3929
18174THY    CA235117   4.877   7.345   7.583  0.0951 -0.4144 -0.1300
18174THY    CP135118   4.768   7.325   7.476 -0.1906  0.9677 -0.1500
18174THY    HP135119   4.712   7.233   7.498  1.8125  1.2731 -1.3669
18174THY    CP235120   4.821   7.315   7.332  0.0356  0.2592  0.7609
18174THY    HP235121   4.884   7.225   7.332 -0.4815 -2.8621  0.2728
18174THY    HP335122   4.869   7.407   7.299  0.1507 -0.5006  0.4367
18174THY    HP435123   4.738   7.289   7.265  1.4080 -0.9501 -0.7230
18174THY    CP335124   4.674   7.444   7.483  0.5781 -0.5075 -0.3696
18174THY    HP535125   4.588   7.427   7.416  0.5928 -0.6841  0.2260
18174THY    HP635126   4.716   7.541   7.455 -3.0739  1.4426  2.0071
18174THY    HP735127   4.646   7.448   7.589  0.3013 -0.5829 -0.2577
18174THY    CA335128   4.967   7.452   7.587 -0.0700  0.3241  0.4023
18174THY    HA335129   4.964   7.521   7.503 -0.5527  0.0597  0.0715
18174THY    CA435130   5.070   7.453   7.678 -0.3520  0.9840 -0.2198
18174THY    HA435131   5.151   7.524   7.666 -0.3077 -1.0714 -0.5565
18174THY    CA535132   5.078   7.351   7.775 -0.7278 -0.1819 -0.1537
18174THY    CM135133   5.191   7.371   7.880 -0.0058 -0.1778  0.0488
18174THY    HM135134   5.178   7.314   7.973  1.0627 -0.4957 -0.7496
18174THY    HM235135   5.203   7.473   7.917 -1.1062 -0.9387  0.4737
18174THY    HM335136   5.284   7.328   7.840 -0.5844  0.2968 -1.7502
18174THY    CA635137   4.972   7.260   7.796  0.4834 -0.4828 -0.0074
18174THY    HA635138   4.977   7.195   7.883 -1.8153  0.7943  1.3689
18175THY      O35139   3.349   5.716   6.165 -0.0582  0.4522  0.2077
18175THY     HO35140   3.442   5.688   6.168 -0.0907 -0.6374 -0.0840
18175THY    CA135141   3.354   5.843   6.113 -0.4243 -0.0122  0.3360
18175THY    CA235142   3.247   5.936   6.116 -0.1522  0.4138  0.0836
18175THY    CP135143   3.110   5.892   6.160 -0.4330 -0.0981 -0.3810
18175THY    HP135144   3.087   5.789   6.130 -0.5826 -1.6589  0.0795
18175THY    CP235145   3.005   5.966   6.088 -0.2705  0.3144 -0.2590
18175THY    HP235146   2.909   5.917   6.109 -0.2567  0.4787 -0.2182
18175THY    HP335147   3.020   5.949   5.981 -1.5855  0.1714 -0.6624
18175THY    HP435148   2.993   6.072   6.111  0.3043  2.7131 -0.6588
18175THY    CP335149   3.080   5.902   6.306  0.2823 -0.5330 -0.0875
18175THY    HP535150   3.053   6.005   6.332 -0.8008 -0.2088 -0.4403
18175THY    HP635151   3.158   5.871   6.377  0.9079 -1.2708 -0.2212
18175THY    HP735152   2.990   5.842   6.326 -1.5243 -0.8776  2.3656
18175THY    CA335153   3.277   6.069   6.072 -0.2567  0.0017  0.0614
18175THY    HA335154   3.203   6.149   6.079  0.4702 -1.3088  0.8700
18175THY    CA435155   3.409   6.105   6.042  0.4091 -0.2239 -0.6294
18175THY    HA435156   3.442   6.206   6.017  1.5235 -0.0900 -0.9397
18175THY    CA535157   3.512   6.011   6.036  0.1358 -0.4971  0.7416
18175THY    CM135158   3.649   6.045   5.993  0.0178 -0.6563  0.1161
18175THY    HM135159   3.709   5.954   5.985 -0.6986  2.3028 -0.7316
18175THY    HM235160   3.687   6.117   6.066 -1.2342  0.5033 -0.3516
18175THY    HM335161   3.637   6.089   5.893 -0.3316  0.5606  2.9939
18175THY    CA635162   3.483   5.878   6.075 -1.1077  0.1712  0.0846
18175THY    HA635163   3.556   5.799   6.067 -1.7870  0.8331 -0.6250
18176THY      O35164   2.267   9.374   8.075  0.0503 -0.4838  0.0368
18176THY     HO35165   2.357   9.411   8.074 -0.3779  1.8397  1.3295
18176THY    CA135166   2.248   9.287   7.975 -0.4241  0.0339 -0.3872
18176THY    CA235167   2.114   9.258   7.925  0.2442  0.4651 -0.0108
18176THY    CP135168   1.992   9.324   7.999  0.5351 -0.4808 -0.2273
18176THY    HP135169   2.017   9.405   8.069  1.6960 -1.7208  0.5346
18176THY    CP235170   1.934   9.210   8.094 -0.1546  0.6153  1.0951
18176THY    HP235171   1.898   9.125   8.035  2.2634 -1.2160  1.2436
18176THY    HP335172   1.858   9.261   8.155 -0.3808  0.5534  0.8332
18176THY    HP435173   2.008   9.167   8.161  1.6039 -2.0539 -0.3045
18176THY    CP335174   1.885   9.372   7.905 -0.8513 -0.1992 -0.1806
18176THY    HP535175   1.823   9.429   7.975  1.0124  0.2278  1.4198
18176THY    HP635176   1.839   9.286   7.855  2.0815 -0.5411 -1.6987
18176THY    HP735177   1.922   9.443   7.831  0.1819 -0.3960 -0.8962
18176THY    CA335178   2.099   9.175   7.812  0.1658 -0.3874  0.0071
18176THY    HA335179   2.005   9.151   7.764  1.0468 -2.0852 -0.1937
18176THY    CA435180   2.213   9.117   7.754  0.2533  0.3716 -0.9482
18176THY    HA435181   2.198   9.054   7.667 -1.0891  0.2432 -0.4898
18176THY    CA535182   2.342   9.140   7.799 -0.2058  0.2146 -0.4403
18176THY    CM135183   2.454   9.072   7.735  0.1320  0.0955  0.4758
18176THY    HM135184   2.428   9.066   7.628 -0.5730  0.3284 -1.4650
18176THY    HM235185   2.466   8.965   7.758  1.7288  2.2454  1.0666
18176THY    HM335186   2.547   9.126   7.757  1.0521  0.0003 -0.9980
18176THY    CA635187   2.359   9.224   7.910 -0.1672 -0.9809 -0.2153
18176THY    HA635188   2.463   9.226   7.942  0.0968 -1.8238 -0.0160
18177THY      O35189   5.651   3.783   4.040 -0.1726  0.2931 -0.2636
18177THY     HO35190   5.738   3.824   4.051  0.7290 -2.9594 -0.9488
18177THY    CA135191   5.669   3.659   4.083 -0.5525 -0.0996  0.4869
18177THY    CA235192   5.564   3.567   4.109 -0.5575  0.9907  0.2930
18177THY    CP135193   5.419   3.625   4.099 -0.4544 -0.2120  0.1874
18177THY    HP135194   5.411   3.722   4.049 -2.6813 -1.3557 -0.5178
18177THY    CP235195   5.372   3.635   4.245 -0.4988 -0.0216  0.6457
18177THY    HP235196   5.399   3.736   4.277  1.7759 -1.4011  0.5533
18177THY    HP335197   5.414   3.554   4.305 -1.5471  0.3414  0.3605
18177THY    HP435198   5.264   3.618   4.243 -0.2575 -0.5777 -1.0723
18177THY    CP335199   5.331   3.532   4.011  1.0057 -0.4067  0.1202
18177THY    HP535200   5.394   3.505   3.926  1.8086 -0.0635  0.8343
18177THY    HP635201   5.238   3.578   3.975  0.8620 -0.8752 -0.5367
18177THY    HP735202   5.305   3.437   4.060 -0.6605 -0.3953  0.5404
18177THY    CA335203   5.590   3.437   4.139 -0.9971 -0.0517  0.1093
18177THY    HA335204   5.509   3.370   4.164  0.3632 -0.5932 -1.8044
18177THY    CA435205   5.723   3.393   4.149 -0.2418 -0.2419  0.2099
18177THY    HA435206   5.737   3.288   4.174 -0.7706  1.2192  0.4566
18177THY    CA535207   5.831   3.485   4.129  0.3270 -0.0347  0.2765
18177THY    CM135208   5.968   3.437   4.139 -1.1294 -0.2227  0.1944
18177THY    HM135209   6.028   3.519   4.180 -0.8691 -0.0422 -0.0854
18177THY    HM235210   6.017   3.416   4.043  2.2508  1.5833 -0.9175
18177THY    HM335211   5.985   3.358   4.212 -1.3291 -0.8106 -0.3997
18177THY    CA635212   5.809   3.618   4.098  0.5348  0.8830  0.0341
18177THY    HA635213   5.892   3.685   4.079  0.6412  1.2870  0.0172
18178THY      O35214   7.038   4.921   4.625 -0.3142  0.7719  0.3358
18178THY     HO35215   7.101   4.867   4.676 -0.8294 -2.0619 -3.3945
18178THY    CA135216   6.950   4.837   4.573  0.0604  0.0215  0.0721
18178THY    CA235217   6.844   4.884   4.490 -0.2587  0.3343  0.3463
18178THY    CP135218   6.825   5.033   4.468 -0.1042 -0.4529 -0.5670
18178THY    HP135219   6.880   5.095   4.539  1.8210 -0.5787 -2.0481
18178THY    CP235220   6.672   5.073   4.462  0.3648  0.1430 -0.0133
18178THY    HP235221   6.617   5.028   4.546 -3.4412 -1.3602  1.3957
18178THY    HP335222   6.618   5.041   4.372  0.9050 -0.0671 -0.3411
18178THY    HP435223   6.655   5.180   4.480  2.9151  1.3320  0.2550
18178THY    CP335224   6.889   5.070   4.333 -0.1874 -0.1077 -0.0390
18178THY    HP535225   6.997   5.049   4.328  0.5585  1.4395  2.8024
18178THY    HP635226   6.874   5.176   4.307 -1.8746 -1.4443 -0.5694
18178THY    HP735227   6.846   5.008   4.254  1.5149 -0.6315 -0.6259
18178THY    CA335228   6.759   4.777   4.436 -0.8638 -0.6998 -0.0480
18178THY    HA335229   6.683   4.816   4.369  0.8305 -2.3870  0.5140
18178THY    CA435230   6.783   4.643   4.456  0.4745  0.0561  0.6727
18178THY    HA435231   6.722   4.569   4.405 -0.0016 -0.4797  1.4191
18178THY    CA535232   6.886   4.605   4.545 -0.5162  0.1690  0.1346
18178THY    CM135233   6.908   4.454   4.575  1.0202 -0.0395  0.2819
18178THY    HM135234   7.004   4.414   4.540  0.6280 -0.4346 -0.3275
18178THY    HM235235   6.823   4.404   4.527  1.0254 -0.5532  0.7494
18178THY    HM335236   6.899   4.432   4.681  0.5409 -0.2822 -0.7220
18178THY    CA635237   6.968   4.702   4.600 -0.8565 -0.3797  0.6670
18178THY    HA635238   7.051   4.667   4.661 -2.5358 -0.0047 -3.1106
18179THY      O35239   2.025   3.312   3.892  0.6132  0.4850  0.0871
18179THY     HO35240   2.043   3.291   3.799 -2.1150 -0.5139  1.7467
18179THY    CA135241   1.929   3.221   3.920  0.0228 -0.1068 -0.3272
18179THY    CA235242   1.907   3.181   4.053  0.8970 -0.3226  0.7269
18179THY    CP135243   1.991   3.239   4.173  0.6710  0.1056  0.4933
18179THY    HP135244   2.073   3.297   4.129  0.8889 -1.7256 -1.1030
18179THY    CP235245   2.054   3.137   4.267 -0.0761 -0.7990  0.0194
18179THY    HP235246   2.108   3.067   4.203  0.5785 -1.8302  1.4110
18179THY    HP335247   1.983   3.076   4.324  1.3911 -0.7179 -1.7010
18179THY    HP435248   2.130   3.191   4.325  1.3239 -0.8436 -1.8047
18179THY    CP335249   1.897   3.334   4.263  0.4721  0.3849 -0.3319
18179THY    HP535250   1.859   3.414   4.197  1.4037  0.5461  0.2549
18179THY    HP635251   1.952   3.379   4.346 -1.3311  1.1438  0.6005
18179THY    HP735252   1.799   3.304   4.301 -0.4467  0.6008  2.5981
18179THY    CA335253   1.807   3.086   4.073 -0.2332  0.0734  0.1088
18179THY    HA335254   1.803   3.034   4.168 -0.1049  0.0231  0.0069
18179THY    CA435255   1.721   3.044   3.968 -0.1872 -0.3271  0.3659
18179THY    HA435256   1.638   2.976   3.987  0.8882  1.3056 -0.5698
18179THY    CA535257   1.751   3.084   3.837 -0.3204 -0.3698  0.4491
18179THY    CM135258   1.656   3.049   3.717 -0.3805 -0.3495  0.1807
18179THY    HM135259   1.599   2.956   3.735 -2.4252  0.2913  1.4850
18179THY    HM235260   1.719   3.027   3.630  0.6623  0.2858  0.6075
18179THY    HM335261   1.593   3.136   3.696 -1.8224  2.4853 -0.0648
18179THY    CA635262   1.854   3.178   3.816  0.2038 -0.5976  0.0318
18179THY    HA635263   1.875   3.218   3.717 -1.7222 -0.2653  2.0986
18180THY      O35264   8.102   0.816   3.568  0.2586 -0.4448  0.0987
18180THY     HO35265   8.028   0.876   3.546  0.4910 -2.8614 -0.4135
18180THY    CA135266   8.051   0.768   3.687  0.9245  0.1521  0.5885
18180THY    CA235267   8.111   0.661   3.756 -0.0345 -0.3919 -0.4338
18180THY    CP135268   8.240   0.592   3.697  1.1990 -0.2044 -0.5404
18180THY    HP135269   8.253   0.606   3.589  2.5492  0.1531  1.2632
18180THY    CP235270   8.225   0.444   3.709 -0.5403  0.2871  0.4777
18180THY    HP235271   8.298   0.397   3.641 -2.7789 -0.2241 -2.5961
18180THY    HP335272   8.129   0.398   3.680  0.5173  1.3588 -2.6970
18180THY    HP435273   8.248   0.414   3.812 -0.5929  0.4914  1.1158
18180THY    CP335274   8.360   0.656   3.764  0.0598 -0.2610 -0.1240
18180THY    HP535275   8.364   0.626   3.870  1.7309 -0.6677 -1.5517
18180THY    HP635276   8.361   0.764   3.748  1.7384 -1.4429 -0.2726
18180THY    HP735277   8.455   0.625   3.718  0.2007 -0.4972  0.6503
18180THY    CA335278   8.056   0.613   3.876 -0.2188  0.0058  0.4847
18180THY    HA335279   8.111   0.537   3.931 -1.7316  0.8019 -0.0617
18180THY    CA435280   7.938   0.675   3.919  0.1480  0.7041 -0.4585
18180THY    HA435281   7.891   0.636   4.008 -1.4887  0.7568  1.4954
18180THY    CA535282   7.875   0.778   3.847 -0.2415 -0.1157 -0.2548
18180THY    CM135283   7.750   0.848   3.902  0.5990 -0.6185  0.3112
18180THY    HM135284   7.683   0.771   3.942 -0.7929  1.0033  2.2545
18180THY    HM235285   7.708   0.911   3.823 -0.4101  0.8353  1.5611
18180THY    HM335286   7.793   0.921   3.971 -0.0276 -0.0936  0.1965
18180THY    CA635287   7.934   0.825   3.728  0.0090 -0.3395 -0.5082
18180THY    HA635288   7.885   0.894   3.659 -0.5564  0.9464  0.4040
18181THY      O35289   4.796   3.946   2.301  0.2161 -0.0438 -0.4801
18181THY     HO35290   4.890   3.949   2.327  0.5431 -1.2320  1.7729
18181THY    CA135291   4.729   3.861   2.374  0.0437 -0.3963  1.1137
18181THY    CA235292   4.596   3.813   2.352 -0.8053 -0.1238 -0.2008
18181THY    CP135293   4.537   3.864   2.216  1.1797  0.4741  0.4304
18181THY    HP135294   4.615   3.903   2.150 -0.8369 -0.7133  2.6963
18181THY    CP235295   4.438   3.976   2.240 -0.3620 -0.3582 -0.4817
18181THY    HP235296   4.339   3.940   2.271  0.0694 -0.3801 -1.7276
18181THY    HP335297   4.439   4.037   2.149  0.2945  0.3044  0.5216
18181THY    HP435298   4.468   4.026   2.332 -0.7299 -0.6512  0.2983
18181THY    CP335299   4.471   3.752   2.134 -0.5184 -0.1050  0.1505
18181THY    HP535300   4.380   3.708   2.176  0.0004 -0.0956 -0.9602
18181THY    HP635301   4.541   3.668   2.127 -0.0508 -1.1595  0.6113
18181THY    HP735302   4.451   3.790   2.033 -2.4112  0.9880  2.3260
18181THY    CA335303   4.537   3.722   2.437  0.2087  0.1613 -0.3181
18181THY    HA335304   4.431   3.702   2.419 -1.3591  2.8894  4.0830
18181THY    CA435305   4.606   3.691   2.561 -0.0014 -0.1813 -0.2722
18181THY    HA435306   4.558   3.630   2.636 -1.8230 -1.1996 -0.1705
18181THY    CA535307   4.733   3.737   2.586  0.7884 -0.8154 -0.5548
18181THY    CM135308   4.811   3.696   2.710 -0.4231  0.3223  0.3294
18181THY    HM135309   4.771   3.755   2.794  3.3490  0.9246  2.3532
18181THY    HM235310   4.914   3.733   2.705 -0.0914  1.1982 -0.4290
18181THY    HM335311   4.795   3.592   2.740 -2.6638  0.8179  0.7647
18181THY    CA635312   4.791   3.822   2.493  0.3128  0.0727 -0.1563
18181THY    HA635313   4.888   3.862   2.522 -0.5200  0.5933  1.6220
18182THY      O35314   3.946   1.870   5.698  0.8478 -0.9292  0.1995
18182THY     HO35315   3.990   1.810   5.760  0.7527 -0.8017  0.2591
18182THY    CA135316   4.013   1.989   5.703  0.0635  0.8024 -0.3367
18182THY    CA235317   3.943   2.106   5.691 -0.4188  0.1290 -0.1844
18182THY    CP135318   3.799   2.109   5.653 -0.2636 -0.3690 -0.5078
18182THY    HP135319   3.767   2.008   5.625  0.2430 -3.5061  0.0881
18182THY    CP235320   3.761   2.202   5.532 -0.2386 -0.6040 -0.2748
18182THY    HP235321   3.817   2.295   5.545 -0.4157 -3.4608  0.3104
18182THY    HP335322   3.652   2.220   5.533 -0.1797  1.2267  0.1735
18182THY    HP435323   3.791   2.148   5.442 -1.6260 -1.0639 -0.3420
18182THY    CP335324   3.698   2.150   5.759 -0.6197 -0.3193  0.0397
18182THY    HP535325   3.713   2.086   5.847 -1.0919  0.6358  1.1823
18182THY    HP635326   3.594   2.138   5.728 -0.4351 -1.2325  0.7291
18182THY    HP735327   3.705   2.251   5.801 -2.3738  1.1952 -0.4082
18182THY    CA335328   4.010   2.226   5.719  0.1431 -0.3905  0.1392
18182THY    HA335329   3.955   2.319   5.709  0.0178 -0.4745  0.0573
18182THY    CA435330   4.140   2.225   5.750 -0.5808 -0.0528 -0.0036
18182THY    HA435331   4.200   2.313   5.774  0.0592  1.1241 -0.7237
18182THY    CA535332   4.217   2.104   5.745 -0.0638  0.5594  0.2832
18182THY    CM135333   4.366   2.109   5.759 -0.7740 -0.3674  1.1164
18182THY    HM135334   4.404   2.038   5.834 -3.4296  1.5627  1.5929
18182THY    HM235335   4.392   2.209   5.795 -1.2189 -1.8643  1.8015
18182THY    HM335336   4.415   2.099   5.661  0.6397  0.4615 -0.7481
18182THY    CA635337   4.151   1.982   5.731  1.4713 -0.1048  0.0976
18182THY    HA635338   4.202   1.886   5.734  0.6252 -0.8181 -0.3908
18183THY      O35339   1.981   1.361   2.525 -0.2741  0.3150  0.2295
18183THY     HO35340   2.000   1.396   2.436  0.8792 -0.1566 -1.4240
18183THY    CA135341   1.940   1.237   2.505  0.0615 -0.0697 -0.8566
18183THY    CA235342   1.828   1.185   2.574  0.0619 -0.0957 -0.3545
18183THY    CP135343   1.764   1.259   2.694  0.1581 -0.2524 -0.4181
18183THY    HP135344   1.763   1.367   2.675  3.2389 -0.3187 -0.3138
18183THY    CP235345   1.857   1.237   2.816  0.1562 -0.1820 -0.1309
18183THY    HP235346   1.864   1.133   2.850  0.3439 -1.7361 -0.6500
18183THY    HP335347   1.833   1.301   2.902 -1.3245 -0.2445 -0.5751
18183THY    HP435348   1.956   1.268   2.782 -0.5296 -1.3563  0.8795
18183THY    CP335349   1.618   1.217   2.739 -0.1955 -0.1104  0.7216
18183THY    HP535350   1.613   1.113   2.774 -0.8993 -0.7764  0.5246
18183THY    HP635351   1.542   1.227   2.661 -3.4156  1.9409 -3.8619
18183THY    HP735352   1.582   1.274   2.826  0.1167  0.5615 -0.0786
18183THY    CA335353   1.767   1.073   2.530 -0.5845  0.0977  0.1968
18183THY    HA335354   1.677   1.036   2.578 -1.8757 -1.9786  0.5067
18183THY    CA435355   1.819   1.012   2.421 -0.6822  0.0952  0.6613
18183THY    HA435356   1.780   0.919   2.381 -0.7622  1.4094  0.1146
18183THY    CA535357   1.941   1.046   2.357 -0.2965  0.0673 -0.8651
18183THY    CM135358   1.998   0.974   2.233  0.6882 -0.0797  0.1212
18183THY    HM135359   1.979   0.866   2.241 -0.5649  0.4988  0.3644
18183THY    HM235360   2.103   1.005   2.226  0.3820 -0.4445  1.1268
18183THY    HM335361   1.967   1.010   2.134  1.2564  0.5963  2.7056
18183THY    CA635362   1.992   1.170   2.401 -0.3210  0.3660 -0.6459
18183THY    HA635363   2.082   1.200   2.349  0.0409  1.4906  0.2673
18184THY      O35364   4.651   6.342   5.091 -0.8317 -0.4376 -0.7087
18184THY     HO35365   4.607   6.421   5.127  0.7223 -0.2520  0.1142
18184THY    CA135366   4.772   6.331   5.149 -0.5832  1.0331 -0.1689
18184THY    CA235367   4.855   6.226   5.102 -0.1475  0.3611  0.3698
18184THY    CP135368   4.805   6.132   4.995 -0.3935  1.1184 -0.0177
18184THY    HP135369   4.704   6.152   4.960 -0.0347 -1.3583 -1.9800
18184THY    CP235370   4.808   5.989   5.041  1.0939 -0.9511 -0.1774
18184THY    HP235371   4.728   5.959   5.110  0.9983 -1.7399 -1.8676
18184THY    HP335372   4.910   5.966   5.075  0.5221  0.1312 -1.2162
18184THY    HP435373   4.793   5.920   4.956 -2.3568 -2.0483  1.6793
18184THY    CP335374   4.898   6.162   4.872 -0.0246  0.2247  0.3125
18184THY    HP535375   4.859   6.113   4.782 -0.0563  0.3394  0.1265
18184THY    HP635376   4.997   6.117   4.883  1.0050 -1.9771  1.8550
18184THY    HP735377   4.901   6.267   4.839  0.2960 -0.2968  0.1449
18184THY    CA335378   4.992   6.219   5.151  0.4376  0.2024  0.0986
18184THY    HA335379   5.057   6.139   5.117  0.8110 -1.1232  0.9342
18184THY    CA435380   5.036   6.319   5.237 -0.0208  0.5825  0.6591
18184THY    HA435381   5.137   6.318   5.278 -0.5705  2.0874 -1.6183
18184THY    CA535382   4.952   6.425   5.277  0.0551 -0.2540  0.0779
18184THY    CM135383   4.996   6.527   5.373 -0.5275 -0.3280  0.0311
18184THY    HM135384   4.946   6.517   5.470 -0.9947 -0.5352  0.2869
18184THY    HM235385   4.968   6.624   5.329 -3.4804 -1.2545 -1.1379
18184THY    HM335386   5.104   6.531   5.390 -0.4649 -0.2118 -1.6651
18184THY    CA635387   4.818   6.426   5.241  0.0969  1.0639  0.8096
18184THY    HA635388   4.743   6.493   5.283 -0.7367  0.5825  0.1889
18185THY      O35389   7.395   5.367   4.767 -0.8911  0.2345 -0.3943
18185THY     HO35390   7.346   5.429   4.709  1.3544 -1.2079  0.1361
18185THY    CA135391   7.367   5.404   4.891  1.6701 -1.2929  1.3066
18185THY    CA235392   7.463   5.374   4.992  0.0892 -0.3538  0.1601
18185THY    CP135393   7.601   5.299   4.966  0.0613 -0.7950 -0.5868
18185THY    HP135394   7.570   5.219   4.898  0.5068 -0.0492 -1.4111
18185THY    CP235395   7.669   5.237   5.090 -0.5929 -0.2215  0.1421
18185THY    HP235396   7.677   5.304   5.177  3.0429 -0.2501 -0.0641
18185THY    HP335397   7.774   5.216   5.068 -0.0208  0.8775  1.6185
18185THY    HP435398   7.617   5.146   5.122 -0.9275  1.1341  0.7843
18185THY    CP335399   7.709   5.397   4.904  0.3247  0.0166 -0.0160
18185THY    HP535400   7.753   5.453   4.987 -0.7121 -0.7674  2.0448
18185THY    HP635401   7.668   5.457   4.823 -0.5050  1.4217  1.3766
18185THY    HP735402   7.782   5.327   4.862 -0.7734 -0.9359 -0.6390
18185THY    CA335403   7.429   5.429   5.120  0.1915  0.4007  0.3331
18185THY    HA335404   7.500   5.425   5.202 -1.6415  2.2004  2.1918
18185THY    CA435405   7.311   5.499   5.134  0.5048 -0.6680  0.1432
18185THY    HA435406   7.289   5.550   5.227  0.1661  0.0686 -1.2824
18185THY    CA535407   7.218   5.510   5.032 -0.1254 -0.4245  0.6627
18185THY    CM135408   7.086   5.591   5.039  0.2886 -0.0532  0.4614
18185THY    HM135409   7.028   5.555   4.954 -2.5775  1.4884  1.1374
18185THY    HM235410   7.100   5.700   5.046 -0.1542  1.6664  0.4334
18185THY    HM335411   7.029   5.563   5.129 -0.2838 -0.6163 -0.2226
18185THY    CA635412   7.247   5.466   4.904  0.0526 -0.0349 -0.8706
18185THY    HA635413   7.174   5.478   4.824 -0.3280  0.4966  0.4950
18186THY      O35414   4.369   8.352   5.034 -0.1220  0.1884  0.4279
18186THY     HO35415   4.413   8.437   5.018 -0.3436 -1.5312  0.2586
18186THY    CA135416   4.267   8.353   4.944  0.1106 -0.0897 -0.4616
18186THY    CA235417   4.143   8.301   4.978  0.2359 -0.2414  0.6852
18186THY    CP135418   4.112   8.228   5.116 -0.7564 -0.0182 -0.1693
18186THY    HP135419   4.199   8.250   5.178 -1.5924  0.5637  1.7076
18186THY    CP235420   4.101   8.071   5.106 -1.1634  0.5201 -0.1325
18186THY    HP235421   4.043   8.042   5.194  0.3611  1.1082 -1.5152
18186THY    HP335422   4.193   8.014   5.117 -1.2403  0.8161 -0.2007
18186THY    HP435423   4.046   8.034   5.019 -0.4751  0.6212 -1.4464
18186THY    CP335424   3.983   8.285   5.182  0.1711 -1.0600 -0.5415
18186THY    HP535425   3.888   8.262   5.133 -0.2244 -0.0386 -1.1553
18186THY    HP635426   3.983   8.393   5.197  0.5641 -1.2203 -0.5223
18186THY    HP735427   3.975   8.235   5.280 -1.8543 -1.0828 -0.3677
18186THY    CA335428   4.044   8.305   4.883 -0.2004 -0.0362  0.7645
18186THY    HA335429   3.949   8.254   4.897  0.3712 -0.9414 -0.5884
18186THY    CA435430   4.078   8.352   4.757 -0.7670  0.0888  0.1604
18186THY    HA435431   4.013   8.349   4.670 -2.1631  0.9810  2.0792
18186THY    CA535432   4.195   8.414   4.724  0.2042 -0.1306 -0.0738
18186THY    CM135433   4.216   8.480   4.586  0.2198  0.5470  0.5562
18186THY    HM135434   4.248   8.583   4.602 -2.5256  0.0368  1.5831
18186THY    HM235435   4.127   8.480   4.521  0.0477  0.7733  1.3510
18186THY    HM335436   4.300   8.427   4.540  2.2318  1.3856  2.8722
18186THY    CA635437   4.288   8.424   4.822 -0.2396 -0.6066  0.5440
18186THY    HA635438   4.379   8.481   4.804  1.0078  1.0714 -0.8064
18187THY      O35439   0.538   2.400   3.863 -0.3484 -0.1550  0.0680
18187THY     HO35440   0.628   2.387   3.828  0.0374 -0.0645  2.1865
18187THY    CA135441   0.456   2.427   3.762 -0.1050 -0.4180  0.0178
18187THY    CA235442   0.312   2.417   3.771  0.0364 -0.8285 -0.2510
18187THY    CP135443   0.255   2.364   3.896  1.1193  0.8259  0.5405
18187THY    HP135444   0.317   2.280   3.928  1.1548  0.9448  0.6114
18187THY    CP235445   0.116   2.302   3.893  0.1212 -0.1885 -0.2572
18187THY    HP235446   0.114   2.226   3.972 -3.4257 -0.0683 -0.1936
18187THY    HP335447   0.102   2.243   3.801  0.6380  0.7797 -1.9631
18187THY    HP435448   0.038   2.374   3.919 -0.3450  0.4666 -0.9809
18187THY    CP335449   0.264   2.458   4.010 -0.4751  0.2538  0.0881
18187THY    HP535450   0.355   2.519   4.013  0.4494 -0.3736 -1.2058
18187THY    HP635451   0.257   2.399   4.102 -1.1424  0.9107  1.1422
18187THY    HP735452   0.178   2.526   4.018 -0.5493 -0.8053  0.1398
18187THY    CA335453   0.238   2.457   3.664  0.5204  0.1140 -0.4042
18187THY    HA335454   0.131   2.450   3.679  0.2769 -1.4307 -0.3264
18187THY    CA435455   0.293   2.511   3.550  0.4492  0.7032 -0.0261
18187THY    HA435456   0.238   2.567   3.474  0.4032  0.9455  0.2576
18187THY    CA535457   0.432   2.508   3.541 -0.1270  0.2701 -0.2000
18187THY    CM135458   0.490   2.558   3.408  0.5551 -1.0108  0.1413
18187THY    HM135459   0.426   2.556   3.319  0.2915 -0.8560  1.0456
18187THY    HM235460   0.581   2.499   3.391 -0.0775 -0.4765 -1.0236
18187THY    HM335461   0.532   2.657   3.431  0.6948 -0.3451 -0.0645
18187THY    CA635462   0.515   2.474   3.648  0.2516 -0.1743  0.2578
18187THY    HA635463   0.620   2.493   3.628  1.0676  1.1231 -2.3923
18188THY      O35464   7.812   6.429   4.940  0.1703  0.1188  0.1796
18188THY     HO35465   7.821   6.487   4.863  0.1877 -0.0787 -0.0822
18188THY    CA135466   7.792   6.306   4.888 -0.3671 -0.9325  0.3258
18188THY    CA235467   7.856   6.187   4.939  0.2835 -0.7203  0.2788
18188THY    CP135468   7.942   6.187   5.072  0.2681  0.7169 -0.6644
18188THY    HP135469   7.920   6.278   5.128 -0.4056 -0.3642 -0.1407
18188THY    CP235470   8.092   6.192   5.046 -0.4388  0.2953 -0.4994
18188THY    HP235471   8.153   6.194   5.137 -2.7864  1.9666  0.7508
18188THY    HP335472   8.114   6.287   4.994 -1.7178 -0.8211 -0.7709
18188THY    HP435473   8.129   6.113   4.980  0.5998 -0.5433  0.6460
18188THY    CP335474   7.909   6.066   5.166  0.2410 -0.5554 -0.2489
18188THY    HP535475   7.949   5.977   5.116 -0.5042  1.5810 -1.8724
18188THY    HP635476   7.799   6.066   5.168  0.2555  0.2312 -0.1869
18188THY    HP735477   7.946   6.079   5.268 -0.2403 -0.3358 -0.5708
18188THY    CA335478   7.836   6.060   4.869 -0.2489 -1.3873  0.3970
18188THY    HA335479   7.899   5.976   4.896  2.1438 -1.1561  2.1702
18188THY    CA435480   7.752   6.055   4.755  0.9373  0.1732  0.6647
18188THY    HA435481   7.736   5.961   4.702  1.6637 -0.2470  0.7793
18188THY    CA535482   7.690   6.173   4.713  0.7081 -0.5624  0.4012
18188THY    CM135483   7.610   6.161   4.585 -0.3227 -0.8502  0.7436
18188THY    HM135484   7.507   6.194   4.599 -0.6755 -2.8330  0.5934
18188THY    HM235485   7.582   6.058   4.560 -0.9010 -2.0946  1.1784
18188THY    HM335486   7.645   6.225   4.503 -0.8700 -1.8220 -0.1793
18188THY    CA635487   7.708   6.292   4.778 -0.4824  0.0264 -1.0300
18188THY    HA635488   7.648   6.378   4.752  0.3313 -1.0123 -0.7560
18189THY      O35489   5.640   4.578   4.895  0.4786 -0.0920  0.0345
18189THY     HO35490   5.615   4.669   4.873  1.4229  1.7714  0.7931
18189THY    CA135491   5.639   4.589   5.032 -0.0978 -0.1403  0.5978
18189THY    CA235492   5.643   4.477   5.116  0.6996  0.0567  0.4827
18189THY    CP135493   5.610   4.334   5.054  0.0995  0.4573 -0.0127
18189THY    HP135494   5.664   4.331   4.958 -0.7122 -0.1377  2.3269
18189THY    CP235495   5.465   4.317   5.016  0.3758 -0.3993  0.7517
18189THY    HP235496   5.436   4.395   4.944  0.3381  0.3826  1.4688
18189THY    HP335497   5.409   4.335   5.108 -0.3341 -0.4201 -1.0919
18189THY    HP435498   5.451   4.218   4.969  0.9133 -1.1699  1.0273
18189THY    CP335499   5.660   4.219   5.141  0.1661 -0.0541  0.4210
18189THY    HP535500   5.596   4.225   5.229  1.8219  1.1645  1.1223
18189THY    HP635501   5.760   4.233   5.184 -0.3006  0.8339  1.0813
18189THY    HP735502   5.643   4.118   5.102  0.4776 -0.5524  0.5556
18189THY    CA335503   5.660   4.500   5.256 -0.3337  0.0832  0.0528
18189THY    HA335504   5.661   4.415   5.324 -0.8517 -1.3267 -1.1325
18189THY    CA435505   5.661   4.630   5.308  0.3152 -0.3635 -0.2967
18189THY    HA435506   5.671   4.652   5.414 -0.9407 -0.1131 -0.8059
18189THY    CA535507   5.655   4.740   5.217 -0.1028 -0.5149 -0.5688
18189THY    CM135508   5.656   4.883   5.272 -0.3240  0.5885  0.3394
18189THY    HM135509   5.635   4.955   5.192  2.3455 -1.6818 -1.1818
18189THY    HM235510   5.752   4.894   5.324 -0.5711  1.0772  0.2169
18189THY    HM335511   5.572   4.881   5.342 -1.3640 -0.6132  0.4433
18189THY    CA635512   5.646   4.716   5.081  0.6571  0.4272  0.1053
18189THY    HA635513   5.634   4.801   5.014 -3.5044  0.0622 -0.5614
18190THY      O35514   7.707   2.702   6.012 -0.5264  0.5336 -1.0655
18190THY     HO35515   7.680   2.642   6.084 -0.1154  0.8039 -0.9323
18190THY    CA135516   7.733   2.804   6.086 -0.2201 -0.1066 -0.1273
18190THY    CA235517   7.839   2.892   6.061  0.0298 -0.1097  0.4552
18190THY    CP135518   7.937   2.879   5.945  0.1754  0.2749  0.5123
18190THY    HP135519   7.917   2.791   5.884  0.7774  1.1094 -0.2212
18190THY    CP235520   8.089   2.872   5.982 -1.1436  0.4585  0.5645
18190THY    HP235521   8.110   2.788   6.050 -3.5013 -0.0136 -0.4765
18190THY    HP335522   8.127   2.966   6.024 -0.2906 -0.8733  0.8462
18190THY    HP435523   8.148   2.845   5.894  0.6766  1.2283  1.8609
18190THY    CP335524   7.917   2.995   5.843  0.2283 -0.4058  0.6683
18190THY    HP535525   7.973   3.079   5.884  3.1154  1.1961 -1.8276
18190THY    HP635526   7.814   3.032   5.833  0.9537 -2.8769  2.2804
18190THY    HP735527   7.938   2.968   5.739  0.6856 -0.1801  0.1395
18190THY    CA335528   7.860   2.995   6.161 -0.0358 -0.2682  0.0256
18190THY    HA335529   7.953   3.052   6.163  0.4020  2.2805 -0.6435
18190THY    CA435530   7.763   3.009   6.266 -0.1675 -0.7295  0.6534
18190THY    HA435531   7.788   3.087   6.337  2.2976  1.9076 -2.2493
18190THY    CA535532   7.660   2.922   6.290  1.0335 -0.2556 -0.0736
18190THY    CM135533   7.566   2.948   6.404 -0.5740  1.0163  0.3092
18190THY    HM135534   7.627   2.943   6.494  0.4963  0.2803 -0.4519
18190THY    HM235535   7.488   2.873   6.420 -1.4805  2.1487  1.4486
18190THY    HM335536   7.536   3.053   6.397  1.6695  0.2831  0.9580
18190THY    CA635537   7.642   2.821   6.194 -0.5021 -0.1457 -0.1643
18190THY    HA635538   7.558   2.752   6.205 -0.8515 -1.2406  0.0631
18191THY      O35539   1.284   1.440   6.440  0.2089 -0.2004 -0.3748
18191THY     HO35540   1.344   1.499   6.489  1.2590 -0.9503 -0.7863
18191THY    CA135541   1.354   1.355   6.367 -0.2911  0.2344  0.3654
18191THY    CA235542   1.301   1.310   6.251  0.5187  0.3699  0.6737
18191THY    CP135543   1.163   1.354   6.190 -0.5137 -0.1455  0.0282
18191THY    HP135544   1.108   1.416   6.261  2.5751  2.6034 -0.1202
18191THY    CP235545   1.076   1.235   6.141  0.5397 -0.6585  0.4854
18191THY    HP235546   1.048   1.170   6.225  1.1143  0.0718  1.1718
18191THY    HP335547   1.121   1.175   6.060  0.8954 -0.9322  1.1087
18191THY    HP435548   0.979   1.267   6.104 -0.4547 -0.7960 -2.3767
18191THY    CP335549   1.180   1.466   6.072 -0.1767  0.6071 -0.0235
18191THY    HP535550   1.225   1.562   6.099 -1.5011  2.5647  0.1098
18191THY    HP635551   1.083   1.499   6.032  0.0027 -0.2045 -0.4581
18191THY    HP735552   1.237   1.424   5.988 -0.4670  0.6456 -0.5035
18191THY    CA335553   1.379   1.220   6.173  0.1822  0.0741 -0.4485
18191THY    HA335554   1.332   1.175   6.086 -2.0073  1.2556 -0.5776
18191THY    CA435555   1.507   1.179   6.215 -0.1687  0.6200  0.4771
18191THY    HA435556   1.565   1.106   6.160  1.9052  2.5653  0.5553
18191THY    CA535557   1.562   1.228   6.326  0.2468  0.1539  0.1396
18191THY    CM135558   1.693   1.171   6.373  0.0005 -0.2014  0.0284
18191THY    HM135559   1.739   1.114   6.291  2.0540 -0.0189  1.3264
18191THY    HM235560   1.675   1.106   6.459  0.4039 -1.1404 -1.3746
18191THY    HM335561   1.771   1.245   6.391  0.3215 -1.0261 -0.0913
18191THY    CA635562   1.476   1.299   6.415  0.4053  0.2091  0.0459
18191THY    HA635563   1.514   1.335   6.510  0.3777 -0.8747  3.2430
18192THY      O35564   8.187   8.992   5.449 -0.2254  0.4495  0.0937
18192THY     HO35565   8.136   8.926   5.499 -1.0390 -0.5499 -0.0608
18192THY    CA135566   8.295   9.029   5.528  0.2582 -1.0060 -0.4391
18192THY    CA235567   8.388   9.129   5.482  0.0323 -0.0776  0.9962
18192THY    CP135568   8.385   9.173   5.339 -0.8304 -0.1457  0.3813
18192THY    HP135569   8.283   9.156   5.302 -0.8615 -0.1999  0.6721
18192THY    CP235570   8.476   9.090   5.254 -0.1546 -0.2062 -0.4345
18192THY    HP235571   8.573   9.106   5.303  0.2313 -1.1024  0.0711
18192THY    HP335572   8.477   9.139   5.156  1.5705  1.2279  2.6984
18192THY    HP435573   8.435   8.988   5.262  1.1055  0.0158 -0.9490
18192THY    CP335574   8.408   9.324   5.318 -0.4680 -0.3208  0.1841
18192THY    HP535575   8.510   9.352   5.348 -1.1341  1.6122  0.6561
18192THY    HP635576   8.336   9.385   5.373 -0.8538  1.0870 -1.4877
18192THY    HP735577   8.403   9.355   5.212 -1.1545 -0.4691 -0.4159
18192THY    CA335578   8.493   9.165   5.565 -0.4614  0.1595 -0.2502
18192THY    HA335579   8.571   9.226   5.520 -0.3643 -0.6211 -0.9297
18192THY    CA435580   8.503   9.125   5.703  0.0664  0.7942  0.6368
18192THY    HA435581   8.588   9.154   5.765  0.4843 -0.5267  2.4718
18192THY    CA535582   8.401   9.042   5.750 -0.0651  0.0793 -0.2959
18192THY    CM135583   8.410   8.994   5.893  0.2956  0.6284 -0.8502
18192THY    HM135584   8.470   8.903   5.893  0.6684 -0.9361 -0.6314
18192THY    HM235585   8.311   8.991   5.940  1.8560  4.2453 -0.4587
18192THY    HM335586   8.463   9.067   5.956 -2.2786  1.1140  0.7484
18192THY    CA635587   8.299   8.992   5.668  0.1173 -0.2776 -0.6132
18192THY    HA635588   8.223   8.924   5.706 -1.1795  2.8833  2.3105
18193THY      O35589   2.897   7.778   3.067 -0.1483  0.0551  0.2082
18193THY     HO35590   2.858   7.689   3.070 -0.7894  1.7098  0.4949
18193THY    CA135591   2.859   7.830   3.187  0.5359 -0.1244  0.4226
18193THY    CA235592   2.884   7.967   3.213 -0.5398 -0.2905 -0.0238
18193THY    CP135593   2.972   8.052   3.119 -0.1411  0.6242 -0.4467
18193THY    HP135594   2.966   8.009   3.018 -0.9353  0.4258  0.0948
18193THY    CP235595   3.122   8.054   3.160 -0.3575 -0.2733 -0.1854
18193THY    HP235596   3.185   8.104   3.085  1.8527 -0.1709 -2.6180
18193THY    HP335597   3.170   7.961   3.193 -0.5933  0.3303 -0.0986
18193THY    HP435598   3.132   8.118   3.249  0.3878 -0.8771  0.5649
18193THY    CP335599   2.921   8.198   3.102  0.3839  0.0602 -0.7215
18193THY    HP535600   2.820   8.195   3.058 -0.2995  1.5970 -1.7042
18193THY    HP635601   2.988   8.244   3.029 -0.6694 -0.2885  0.3110
18193THY    HP735602   2.920   8.248   3.200 -0.5984 -0.3884  0.1734
18193THY    CA335603   2.847   8.008   3.336  0.4153 -0.0959 -0.1236
18193THY    HA335604   2.846   8.114   3.363 -1.1240 -2.2219  0.4662
18193THY    CA435605   2.777   7.922   3.427  0.0944 -0.0681 -0.3036
18193THY    HA435606   2.739   7.969   3.518 -0.3777 -0.7901  0.7506
18193THY    CA535607   2.759   7.792   3.400  0.5317  0.3423  0.7268
18193THY    CM135608   2.678   7.707   3.499  1.1613 -0.1431 -0.7900
18193THY    HM135609   2.584   7.761   3.515  2.7144  2.5680  1.3424
18193THY    HM235610   2.735   7.692   3.592  2.0304 -0.9625 -2.9535
18193THY    HM335611   2.656   7.603   3.473  0.4222  1.8959 -1.1875
18193THY    CA635612   2.801   7.745   3.282  0.8120  0.6140  0.7015
18193THY    HA635613   2.790   7.638   3.265  1.7681 -2.0471  0.9454
18194THY      O35614   7.508   8.119   5.028 -0.3813  0.0621 -0.5641
18194THY     HO35615   7.430   8.177   5.027  0.6124  0.2218  0.8011
18194THY    CA135616   7.525   8.074   5.154 -0.1290  0.4932  0.3690
18194THY    CA235617   7.583   7.947   5.180  0.6665  0.7059  0.2530
18194THY    CP135618   7.646   7.868   5.065  0.4572 -0.0745 -0.5077
18194THY    HP135619   7.663   7.926   4.973  0.9923 -1.0019 -2.0606
18194THY    CP235620   7.560   7.743   5.031  0.0461 -0.2616  0.5582
18194THY    HP235621   7.542   7.677   5.116 -2.4477 -2.1654 -1.4506
18194THY    HP335622   7.605   7.696   4.942 -1.0232 -1.5909  1.9215
18194THY    HP435623   7.458   7.780   5.016  0.7624 -2.0930  1.9455
18194THY    CP335624   7.784   7.820   5.103  1.0738 -0.6457  0.3665
18194THY    HP535625   7.823   7.753   5.026  0.6616  0.5851 -1.3787
18194THY    HP635626   7.778   7.756   5.192 -0.8925 -3.3135 -3.5762
18194THY    HP735627   7.855   7.901   5.122 -0.0556  0.1398  1.2102
18194THY    CA335628   7.592   7.893   5.309  0.5276  0.3335  0.3013
18194THY    HA335629   7.639   7.798   5.332  0.8948 -0.6887  0.2253
18194THY    CA435630   7.524   7.968   5.410 -0.4028 -1.0022 -0.9621
18194THY    HA435631   7.514   7.940   5.515 -2.2745 -0.3529  1.6602
18194THY    CA535632   7.466   8.095   5.384 -0.1364 -0.3335 -0.1484
18194THY    CM135633   7.395   8.169   5.494  0.2226 -0.5466 -0.9071
18194THY    HM135634   7.451   8.263   5.492 -0.3712 -0.9819 -0.5565
18194THY    HM235635   7.406   8.116   5.590 -0.7147 -0.7764 -1.5529
18194THY    HM335636   7.290   8.191   5.470 -0.1051  2.1271  0.9466
18194THY    CA635637   7.464   8.142   5.257  0.1150 -0.5261 -0.5885
18194THY    HA635638   7.429   8.241   5.228 -0.8359 -1.7386 -1.2660
18195THY      O35639   8.296   8.033   6.036 -0.3082  0.2870 -0.1583
18195THY     HO35640   8.322   8.126   6.021  0.2033  0.0698 -0.3329
18195THY    CA135641   8.261   8.032   6.170  0.1666 -0.0140 -0.9636
18195THY    CA235642   8.212   7.912   6.234 -0.2535  0.2997  0.0825
18195THY    CP135643   8.216   7.782   6.159  0.0409  0.4180  0.2840
18195THY    HP135644   8.225   7.796   6.050  0.5885  0.3848 -0.2980
18195THY    CP235645   8.067   7.727   6.160 -0.0356  0.1397  0.6918
18195THY    HP235646   8.060   7.625   6.120  1.6518 -0.4704  0.7884
18195THY    HP335647   7.993   7.795   6.117 -0.5120  0.1891  0.2191
18195THY    HP435648   8.046   7.726   6.267  0.3384  0.2141  0.0777
18195THY    CP335649   8.307   7.675   6.214  0.1936  0.8334  0.1067
18195THY    HP535650   8.395   7.731   6.249 -0.1306  0.0330  1.1492
18195THY    HP635651   8.342   7.613   6.130  1.4688  0.4881  1.2491
18195THY    HP735652   8.256   7.619   6.293 -0.7038 -0.5253 -1.0818
18195THY    CA335653   8.192   7.916   6.376  0.7985  0.1872  0.8124
18195THY    HA335654   8.166   7.825   6.429 -0.2948  0.6614  1.3731
18195THY    CA435655   8.201   8.039   6.438  0.2648 -0.8618  0.6464
18195THY    HA435656   8.192   8.043   6.546 -1.4435 -0.9727  0.4417
18195THY    CA535657   8.249   8.156   6.379 -0.0542 -0.0755  0.2598
18195THY    CM135658   8.272   8.276   6.465 -0.6862  1.5477  0.0099
18195THY    HM135659   8.219   8.273   6.561  1.7017  2.9378 -0.3119
18195THY    HM235660   8.229   8.365   6.419 -3.3604  1.3768 -1.2476
18195THY    HM335661   8.377   8.296   6.485 -0.0314 -0.1244 -1.4491
18195THY    CA635662   8.285   8.147   6.243  0.2763  0.0866 -0.0274
18195THY    HA635663   8.321   8.241   6.203  2.1961 -0.8234 -1.1019
18196THY      O35664   2.632   9.035   7.203  0.9539  0.0754 -0.0139
18196THY     HO35665   2.594   8.946   7.213  0.3070 -1.1835  0.0951
18196THY    CA135666   2.689   9.073   7.315 -0.5488  0.1701  0.4524
18196THY    CA235667   2.684   9.202   7.356  0.7625 -0.5095  0.1740
18196THY    CP135668   2.593   9.308   7.297  0.3576  0.7966 -0.7517
18196THY    HP135669   2.535   9.252   7.222  0.9212 -2.7351  2.9633
18196THY    CP235670   2.679   9.407   7.226 -0.1331 -1.1603 -0.0637
18196THY    HP235671   2.749   9.340   7.175  0.0475  0.1447 -0.8972
18196THY    HP335672   2.743   9.473   7.285  1.4598 -3.8540  0.9455
18196THY    HP435673   2.616   9.469   7.161 -2.7154  0.2578 -0.9988
18196THY    CP335674   2.506   9.363   7.405  0.7159 -0.6301 -0.8631
18196THY    HP535675   2.420   9.414   7.360  0.9827 -0.0056  0.1753
18196THY    HP635676   2.551   9.448   7.458  0.4895 -1.4024 -0.2413
18196THY    HP735677   2.470   9.290   7.479  0.1244 -0.0478 -0.0041
18196THY    CA335678   2.761   9.236   7.475  0.1841  0.0182 -0.3157
18196THY    HA335679   2.739   9.332   7.519  2.0760  0.5187 -0.0773
18196THY    CA435680   2.856   9.140   7.515  0.0239  0.2831  0.3573
18196THY    HA435681   2.921   9.159   7.600 -0.5054  0.6342  0.6174
18196THY    CA535682   2.870   9.013   7.461 -0.2351 -0.2416  0.0081
18196THY    CM135683   2.951   8.907   7.525 -0.2285 -0.1355  0.0895
18196THY    HM135684   3.016   8.869   7.445  0.4012  0.3396  0.1388
18196THY    HM235685   2.886   8.823   7.552 -1.9577  0.4893  1.5665
18196THY    HM335686   3.004   8.952   7.610  0.6389  0.1638 -1.4273
18196THY    CA635687   2.775   8.981   7.369  1.0602 -0.5555  0.0629
18196THY    HA635688   2.782   8.885   7.318 -1.6803 -0.8554 -0.0793
18197THY      O35689   2.972   7.508   7.592 -0.2618 -0.0373 -0.1061
18197THY     HO35690   2.929   7.513   7.679  1.6486  1.0570 -1.4584
18197THY    CA135691   2.971   7.380   7.566  0.5864  0.4858  0.3443
18197THY    CA235692   3.040   7.323   7.451  0.4677 -0.3382  0.1622
18197THY    CP135693   3.101   7.409   7.337  0.3151 -0.1640 -0.1579
18197THY    HP135694   3.156   7.489   7.388  1.5936  1.1482 -1.7956
18197THY    CP235695   2.979   7.457   7.253  0.3185  0.6770 -0.3965
18197THY    HP235696   2.886   7.400   7.265  0.1542  1.1272 -0.0474
18197THY    HP335697   2.992   7.463   7.145  1.4720  0.8521  0.6996
18197THY    HP435698   2.956   7.562   7.274  0.2990 -2.3400  0.2783
18197THY    CP335699   3.189   7.331   7.240  0.0519 -0.1980  0.0140
18197THY    HP535700   3.136   7.249   7.190 -0.6524 -0.9386  0.8948
18197THY    HP635701   3.284   7.298   7.284  1.5411 -2.5922  0.8393
18197THY    HP735702   3.225   7.396   7.160  2.0342 -0.8466 -1.7690
18197THY    CA335703   3.047   7.181   7.441 -0.0144  0.4194  0.4917
18197THY    HA335704   3.105   7.132   7.364  1.9800  1.9388  0.3446
18197THY    CA435705   2.979   7.096   7.529 -0.1322  0.2228 -0.0637
18197THY    HA435706   2.975   6.988   7.520 -3.4858 -2.4041  0.1138
18197THY    CA535707   2.920   7.155   7.636  0.8036 -0.8730  0.3165
18197THY    CM135708   2.866   7.071   7.748  0.1636  0.8262 -0.1273
18197THY    HM135709   2.822   7.135   7.825  0.2523  0.2501  0.6336
18197THY    HM235710   2.946   7.015   7.800  1.0806  2.2757  2.3800
18197THY    HM335711   2.792   6.997   7.716 -1.2563  1.3191  1.0492
18197THY    CA635712   2.903   7.297   7.651  0.4456 -0.4394  0.1396
18197THY    HA635713   2.849   7.332   7.739  1.5317  0.3975 -0.2041
18198THY      O35714   0.630   7.587   2.923  0.4037  0.2238 -0.0891
18198THY     HO35715   0.689   7.598   2.847 -0.2636 -0.2210  0.5199
18198THY    CA135716   0.697   7.643   3.034 -0.0610  0.0460  0.5570
18198THY    CA235717   0.636   7.735   3.119 -0.6263 -0.3648 -0.1663
18198THY    CP135718   0.494   7.776   3.101  0.5654  1.0066  0.0259
18198THY    HP135719   0.447   7.681   3.072  1.1960 -0.7075  0.1917
18198THY    CP235720   0.493   7.872   2.980 -0.2976  0.4170  0.1786
18198THY    HP235721   0.532   7.971   3.009 -0.7467 -0.2356  0.5615
18198THY    HP335722   0.392   7.901   2.951 -0.4994  0.9049 -0.0285
18198THY    HP435723   0.553   7.832   2.897  0.0937  0.6889  0.1957
18198THY    CP335724   0.413   7.823   3.216 -0.0315 -0.4540  0.1851
18198THY    HP535725   0.315   7.851   3.174 -0.2298  0.7611  1.4437
18198THY    HP635726   0.461   7.906   3.271  1.4753  0.7854 -1.4429
18198THY    HP735727   0.394   7.735   3.278 -0.8255 -1.7066 -0.5462
18198THY    CA335728   0.711   7.778   3.230 -0.0001 -0.0843 -0.8095
18198THY    HA335729   0.672   7.850   3.301  3.6785  1.2352  0.1150
18198THY    CA435730   0.849   7.742   3.239 -0.0003 -0.4906 -0.0629
18198THY    HA435731   0.902   7.782   3.326 -1.8138  0.7517 -0.2288
18198THY    CA535732   0.909   7.649   3.150  0.4364 -0.8229 -0.8412
18198THY    CM135733   1.038   7.608   3.175 -0.4216 -0.0459  0.5570
18198THY    HM135734   1.051   7.502   3.150 -1.0033  0.4865  0.3520
18198THY    HM235735   1.066   7.612   3.281 -0.0965  0.0417 -2.1312
18198THY    HM335736   1.108   7.662   3.109 -0.9548  0.6209  2.1095
18198THY    CA635737   0.828   7.595   3.047  1.2954 -0.2722 -0.2336
18198THY    HA635738   0.866   7.517   2.982 -0.4078 -1.0373 -0.4908
18199THY      O35739   4.582   5.590   2.072 -0.5762  0.1810 -0.0093
18199THY     HO35740   4.533   5.531   2.012  0.0836 -1.3063  0.8918
18199THY    CA135741   4.688   5.517   2.113 -0.2969 -0.2851  0.2734
18199THY    CA235742   4.746   5.537   2.240 -0.4357 -0.0776  0.8768
18199THY    CP135743   4.680   5.629   2.336  0.3524 -0.6138 -0.6002
18199THY    HP135744   4.587   5.674   2.298 -0.1794  0.7476 -0.5194
18199THY    CP235745   4.778   5.749   2.361 -0.4692  0.6817 -0.2448
18199THY    HP235746   4.871   5.705   2.399 -1.1449  1.6326 -0.8825
18199THY    HP335747   4.736   5.822   2.431  0.5800 -0.3088  1.3633
18199THY    HP435748   4.812   5.799   2.270  0.9860  0.4620 -1.5638
18199THY    CP335749   4.654   5.560   2.471  1.1176 -0.0365  0.3549
18199THY    HP535750   4.574   5.616   2.521 -1.1253 -2.8026 -0.1473
18199THY    HP635751   4.748   5.548   2.526  0.6602  0.6024 -0.4379
18199THY    HP735752   4.619   5.459   2.446  0.5369 -2.7876  1.1627
18199THY    CA335753   4.864   5.460   2.265 -0.3301 -0.3793  0.0683
18199THY    HA335754   4.904   5.477   2.365  3.4873 -1.7172 -0.0689
18199THY    CA435755   4.910   5.360   2.171 -0.5636 -0.4189 -0.0255
18199THY    HA435756   4.995   5.293   2.182 -1.1691 -1.5952 -1.0218
18199THY    CA535757   4.839   5.344   2.053  0.7095  0.0058  0.5319
18199THY    CM135758   4.883   5.250   1.952  0.4583 -0.3558  0.2839
18199THY    HM135759   4.821   5.242   1.862  0.3046 -0.3514  1.2574
18199THY    HM235760   4.896   5.150   1.993 -2.2945 -1.6554 -0.7177
18199THY    HM335761   4.981   5.286   1.919  0.1018 -0.7925  0.8733
18199THY    CA635762   4.726   5.416   2.023  0.4073  0.2790  0.2427
18199THY    HA635763   4.677   5.398   1.928  0.8796  0.3686 -1.7429
18200THY      O35764   1.203   2.390   6.205  0.5740 -0.9401 -0.4030
18200THY     HO35765   1.217   2.429   6.292  1.1278 -2.1093  2.2057
18200THY    CA135766   1.297   2.458   6.131  0.2191 -0.0362 -1.0999
18200THY    CA235767   1.366   2.387   6.031  0.1174  0.1688 -0.0809
18200THY    CP135768   1.312   2.250   5.975 -0.4326 -0.1384  0.4978
18200THY    HP135769   1.206   2.246   6.003 -0.1433  0.8795 -0.6931
18200THY    CP235770   1.401   2.145   6.048  0.3878  0.0517  0.6582
18200THY    HP235771   1.506   2.171   6.031  0.1213 -2.5373  0.3579
18200THY    HP335772   1.379   2.049   5.999  0.8018 -0.1306  0.6543
18200THY    HP435773   1.370   2.135   6.152  0.7095  0.0085 -1.1835
18200THY    CP335774   1.330   2.239   5.818 -0.0935 -0.2118  0.8129
18200THY    HP535775   1.278   2.154   5.773 -0.4472  1.5294  0.0564
18200THY    HP635776   1.437   2.243   5.794  0.3294  1.1713 -0.9629
18200THY    HP735777   1.279   2.328   5.778  0.5178 -0.1238  1.2102
18200THY    CA335778   1.482   2.447   5.979 -0.1162  0.7680 -0.7270
18200THY    HA335779   1.542   2.395   5.905 -0.0112  0.4777 -0.1996
18200THY    CA435780   1.522   2.571   6.026 -0.1277  0.4114 -0.3927
18200THY    HA435781   1.603   2.624   5.977 -0.6803 -0.2193 -0.1249
18200THY    CA535782   1.450   2.637   6.120 -0.6402 -0.3149  0.7482
18200THY    CM135783   1.502   2.769   6.169  0.3885  0.3555  0.7271
18200THY    HM135784   1.610   2.770   6.187  0.7161 -1.4142  1.4503
18200THY    HM235785   1.463   2.804   6.265 -0.4500  1.2024 -2.2254
18200THY    HM335786   1.478   2.845   6.094  2.5218 -1.1098  0.0592
18200THY    CA635787   1.342   2.582   6.178  0.5295  0.3083  0.7577
18200THY    HA635788   1.285   2.628   6.257  0.5965 -0.0265  1.4234
18201THY      O35789   8.597   3.054   1.964 -0.4706  0.0995  0.1352
18201THY     HO35790   8.651   3.096   1.896 -2.8961 -1.3460  1.1415
18201THY    CA135791   8.648   3.099   2.081 -0.2504 -0.3119  0.5413
18201THY    CA235792   8.583   3.097   2.210 -0.2926  0.4092 -0.0887
18201THY    CP135793   8.449   3.040   2.227 -0.1256 -0.1374  0.4865
18201THY    HP135794   8.418   3.009   2.126  3.3006 -1.7137  1.6575
18201THY    CP235795   8.344   3.140   2.271  0.8707 -0.2215 -0.0052
18201THY    HP235796   8.342   3.233   2.213 -2.2917 -0.2218  0.0088
18201THY    HP335797   8.372   3.182   2.369  1.7072 -0.4887  0.0807
18201THY    HP435798   8.245   3.095   2.270 -0.8242 -1.2536  3.3932
18201THY    CP335799   8.443   2.918   2.319 -0.3572 -1.1654 -0.1530
18201THY    HP535800   8.505   2.836   2.280  0.4709  0.5657 -0.3799
18201THY    HP635801   8.343   2.879   2.340 -0.1564  0.5690  0.2034
18201THY    HP735802   8.484   2.948   2.416 -0.6849 -1.3664  0.9751
18201THY    CA335803   8.648   3.160   2.322  0.1061 -0.5411 -0.4846
18201THY    HA335804   8.596   3.164   2.418 -2.6324 -1.9613  1.5842
18201THY    CA435805   8.763   3.228   2.304 -0.1363  0.2032 -0.2358
18201THY    HA435806   8.800   3.284   2.389 -0.7345  0.0631  0.3732
18201THY    CA535807   8.819   3.236   2.178 -0.6299 -0.2364  0.0149
18201THY    CM135808   8.945   3.312   2.164  0.4358 -0.0910  0.0718
18201THY    HM135809   9.018   3.257   2.103 -0.1950 -0.3775 -0.4565
18201THY    HM235810   8.992   3.334   2.261  0.8910  0.3040 -2.3235
18201THY    HM335811   8.925   3.405   2.109 -0.7150  0.1470 -0.0301
18201THY    CA635812   8.769   3.168   2.070 -0.5403  0.5572 -0.1587
18201THY    HA635813   8.828   3.175   1.980 -1.5257 -0.0100  1.0206
18202THY      O35814   8.263   8.269   5.641  0.1661 -0.1200  0.1163
18202THY     HO35815   8.253   8.173   5.645 -0.9297  0.6262  0.2459
18202THY    CA135816   8.374   8.298   5.573 -0.5173 -0.5233 -0.0407
18202THY    CA235817   8.396   8.428   5.521 -0.5729  0.2726 -0.1682
18202THY    CP135818   8.300   8.538   5.553  0.2341 -0.2094  0.0312
18202THY    HP135819   8.220   8.502   5.619  0.6197  0.4540  0.3750
18202THY    CP235820   8.230   8.585   5.434 -0.0981 -0.2773  0.1251
18202THY    HP235821   8.182   8.682   5.452  0.2412 -0.4655  0.3299
18202THY    HP335822   8.149   8.514   5.413 -0.8794  3.0596 -0.1533
18202THY    HP435823   8.302   8.600   5.353 -0.2379 -0.4639 -0.1965
18202THY    CP335824   8.369   8.649   5.629  0.4276 -0.3164  0.4367
18202THY    HP535825   8.472   8.615   5.647  0.6137 -0.1932  1.0498
18202THY    HP635826   8.325   8.670   5.727 -0.5104 -0.4574 -0.7765
18202THY    HP735827   8.381   8.737   5.565  0.7182 -1.4661 -0.4089
18202THY    CA335828   8.512   8.449   5.442 -0.5425  0.2959 -0.8052
18202THY    HA335829   8.527   8.547   5.397  0.9269  1.0120 -0.6692
18202THY    CA435830   8.610   8.344   5.430  0.5350  0.0217  0.0770
18202THY    HA435831   8.697   8.350   5.365  0.5438 -0.3493 -2.6260
18202THY    CA535832   8.586   8.220   5.485 -0.3823 -0.5223  0.5437
18202THY    CM135833   8.691   8.117   5.478 -0.9290 -0.0286 -0.5051
18202THY    HM135834   8.699   8.062   5.572  1.2185 -1.7281 -3.4267
18202THY    HM235835   8.790   8.158   5.458 -1.4251 -2.6436 -0.3614
18202THY    HM335836   8.663   8.029   5.419  0.4439 -0.8871 -0.3919
18202THY    CA635837   8.458   8.191   5.552 -0.8904  0.6980  0.6106
18202THY    HA635838   8.446   8.099   5.609 -1.7797 -2.1531 -1.1557
18203THY      O35839   5.712   5.141   1.928  0.5341  0.1898 -0.8501
18203THY     HO35840   5.798   5.160   1.968  0.5465 -0.2372  0.0316
18203THY    CA135841   5.735   5.049   1.833  0.3682 -0.6790 -0.3966
18203THY    CA235842   5.630   5.003   1.756  0.6612 -0.2725  0.0154
18203THY    CP135843   5.478   5.038   1.795 -0.5930 -0.4841  0.0003
18203THY    HP135844   5.479   5.104   1.882  0.6331 -1.9461  2.0285
18203THY    CP235845   5.394   4.921   1.820  0.0842 -0.5105  0.1366
18203THY    HP235846   5.299   4.948   1.868  0.8287  0.0840  1.8801
18203THY    HP335847   5.442   4.846   1.884  0.5288 -0.3493  0.5451
18203THY    HP435848   5.379   4.872   1.724 -0.5266 -0.0253 -0.6528
18203THY    CP335849   5.428   5.114   1.681  0.7551 -1.0817 -0.9697
18203THY    HP535850   5.323   5.138   1.703  1.5496  0.2092  1.8154
18203THY    HP635851   5.422   5.060   1.586 -1.1139 -2.0158  0.7035
18203THY    HP735852   5.493   5.203   1.682 -0.4529  0.3071 -0.0406
18203THY    CA335853   5.659   4.902   1.665 -0.4264 -0.0409 -0.7167
18203THY    HA335854   5.582   4.861   1.601 -1.8794  2.6858 -2.5390
18203THY    CA435855   5.787   4.848   1.655 -0.3193 -0.2421 -0.7719
18203THY    HA435856   5.810   4.779   1.574  0.1073 -2.4109  1.7572
18203THY    CA535857   5.896   4.898   1.729  0.2617 -0.7195  0.8457
18203THY    CM135858   6.034   4.835   1.729  0.0666  0.2169 -0.2760
18203THY    HM135859   6.037   4.771   1.640  0.3823 -1.4824  1.9529
18203THY    HM235860   6.053   4.779   1.821  2.6785  0.2762  0.5927
18203THY    HM335861   6.112   4.912   1.719  1.3499  0.9457 -1.4419
18203THY    CA635862   5.867   4.996   1.820  0.0203 -1.1688 -0.6114
18203THY    HA635863   5.947   5.041   1.879 -1.0761  0.7777 -1.1188
18204THY      O35864   8.273   1.567   5.958 -0.2137  0.2167  0.7390
18204THY     HO35865   8.338   1.537   5.893 -0.5982  0.7769 -1.5078
18204THY    CA135866   8.328   1.574   6.089 -0.0096  0.6529  0.4271
18204THY    CA235867   8.255   1.615   6.199 -0.0759  0.0356 -0.5058
18204THY    CP135868   8.107   1.672   6.187 -0.4310  0.3488  0.3981
18204THY    HP135869   8.065   1.663   6.086  1.6814 -0.5781  0.3867
18204THY    CP235870   8.102   1.816   6.234  0.3614 -0.1919 -0.8620
18204THY    HP235871   8.154   1.829   6.330  0.8739 -0.4703 -0.8238
18204THY    HP335872   7.999   1.848   6.253  0.4714 -0.1094 -0.5574
18204THY    HP435873   8.153   1.876   6.158 -0.8636  0.0586  0.5233
18204THY    CP335874   8.005   1.587   6.264  0.0534  1.0465 -0.0507
18204THY    HP535875   7.907   1.634   6.275 -0.9033 -0.0460 -1.6974
18204THY    HP635876   8.036   1.561   6.365  0.1114  1.9848  3.1521
18204THY    HP735877   7.991   1.495   6.207 -1.7216  1.0202  0.2104
18204THY    CA335878   8.324   1.614   6.323 -0.6380  0.0997  0.1515
18204THY    HA335879   8.271   1.641   6.414  0.4424  0.9775 -0.6113
18204THY    CA435880   8.467   1.583   6.331 -0.0274 -0.6211  0.0289
18204THY    HA435881   8.510   1.574   6.430 -1.0607 -0.3204 -2.3292
18204THY    CA535882   8.536   1.545   6.218  0.5951  0.1417 -0.7467
18204THY    CM135883   8.682   1.514   6.229 -0.3377  0.0763  0.5009
18204THY    HM135884   8.732   1.593   6.286 -0.5427  0.5372  0.3011
18204THY    HM235885   8.734   1.511   6.132  0.0766  0.3145 -0.3223
18204THY    HM335886   8.698   1.416   6.274  0.1215 -0.0360  0.5227
18204THY    CA635887   8.466   1.539   6.098  0.5968  0.0135  0.0158
18204THY    HA635888   8.520   1.513   6.007 -0.5090 -0.3690 -1.0213
18205THY      O35889   1.277   7.035   4.258 -0.2659  0.4298 -0.1857
18205THY     HO35890   1.283   6.987   4.343 -3.0685  0.0735 -1.3596
18205THY    CA135891   1.353   6.976   4.168 -1.2255 -0.0806  0.1300
18205THY    CA235892   1.308   6.963   4.040  0.4137 -0.2381  0.8398
18205THY    CP135893   1.176   7.021   3.998 -0.2098 -0.0281  0.7062
18205THY    HP135894   1.112   7.022   4.088 -0.4765 -0.2180  1.7391
18205THY    CP235895   1.099   6.942   3.888 -0.0259 -0.0441  0.2048
18205THY    HP235896   0.998   6.985   3.883  0.5604 -0.9693  1.5514
18205THY    HP335897   1.074   6.836   3.902 -1.9299  1.1318  0.7423
18205THY    HP435898   1.135   6.960   3.786 -0.7118 -0.2037  0.7426
18205THY    CP335899   1.200   7.161   3.948 -0.0797 -0.1826 -0.1630
18205THY    HP535900   1.105   7.206   3.919  0.8014 -1.4715  0.9733
18205THY    HP635901   1.272   7.156   3.865  0.3394 -0.0586  2.3705
18205THY    HP735902   1.251   7.225   4.021  2.2490 -2.5498  0.8963
18205THY    CA335903   1.389   6.891   3.953 -0.2027  0.5105 -0.0658
18205THY    HA335904   1.355   6.883   3.851  0.9477 -0.2450  3.2432
18205THY    CA435905   1.509   6.834   3.992  0.2880 -0.8235 -0.4795
18205THY    HA435906   1.559   6.781   3.911  0.4972 -1.4996  0.7319
18205THY    CA535907   1.568   6.872   4.112 -0.5078 -0.3043 -0.6710
18205THY    CM135908   1.703   6.833   4.162 -0.0880 -0.1629 -0.3363
18205THY    HM135909   1.687   6.779   4.255 -0.4501 -0.4338 -0.6962
18205THY    HM235910   1.760   6.923   4.190 -1.0886  0.5137  0.1034
18205THY    HM335911   1.759   6.773   4.089 -0.7067  0.1391 -1.2855
18205THY    CA635912   1.488   6.952   4.195  0.6292 -0.0322  0.0306
18205THY    HA635913   1.533   6.989   4.287  0.2725  0.7872 -1.4857
18206THY      O35914   5.576   2.784   2.975 -0.0001 -0.6715 -0.4473
18206THY     HO35915   5.500   2.799   2.916 -0.3478 -0.1330 -0.0536
18206THY    CA135916   5.589   2.900   3.045 -0.1276 -0.8830  0.9686
18206THY    CA235917   5.677   2.907   3.159 -0.0650 -0.6360 -0.1277
18206THY    CP135918   5.738   2.787   3.224 -0.1054 -0.1455  0.6040
18206THY    HP135919   5.713   2.692   3.176 -2.3017  0.6463  0.7119
18206THY    CP235920   5.690   2.769   3.363 -0.0143  0.5208  0.5642
18206THY    HP235921   5.743   2.685   3.410 -0.8373  1.1864  0.4045
18206THY    HP335922   5.583   2.747   3.356  0.2076 -3.3643  0.0673
18206THY    HP435923   5.704   2.855   3.429  0.8575 -0.1184  0.9344
18206THY    CP335924   5.894   2.799   3.219 -0.3129 -0.3287 -0.0252
18206THY    HP535925   5.924   2.816   3.115  0.4924 -0.2908 -1.1143
18206THY    HP635926   5.940   2.703   3.246 -0.6575  0.8732  0.1288
18206THY    HP735927   5.935   2.869   3.293 -1.2747  0.6215 -0.4298
18206THY    CA335928   5.697   3.026   3.223  0.0451  0.9360 -0.5023
18206THY    HA335929   5.767   3.032   3.306  2.4960 -1.1269  0.9868
18206THY    CA435930   5.634   3.147   3.166 -0.1494 -0.1105 -0.1334
18206THY    HA435931   5.657   3.243   3.211 -1.3646 -1.0820  0.6357
18206THY    CA535932   5.566   3.140   3.045  0.0319  0.7912 -0.2887
18206THY    CM135933   5.515   3.259   2.973 -0.2925  0.5371  0.4704
18206THY    HM135934   5.546   3.265   2.868 -0.0215  0.5534 -0.4473
18206THY    HM235935   5.544   3.356   3.015 -0.5076 -0.0632  0.8005
18206THY    HM335936   5.405   3.266   2.971 -0.3776 -0.8796 -0.6348
18206THY    CA635937   5.538   3.013   2.993 -0.1635  0.3973 -0.3064
18206THY    HA635938   5.480   2.993   2.904  0.0209  0.4211 -0.9786
18207THY      O35939   7.282   0.344   2.970 -0.2952 -0.3004  0.3060
18207THY     HO35940   7.214   0.288   3.010  0.8332 -0.8581 -1.5327
18207THY    CA135941   7.373   0.357   3.073 -0.2325 -0.5487  0.2976
18207THY    CA235942   7.511   0.337   3.046 -0.6968 -0.3620  0.0502
18207THY    CP135943   7.564   0.318   2.902  0.1180 -0.5257 -0.3816
18207THY    HP135944   7.483   0.308   2.828 -0.0019 -0.1004 -3.8193
18207THY    CP235945   7.637   0.186   2.884 -0.1106  0.1809  0.6535
18207THY    HP235946   7.736   0.185   2.930  0.9176 -1.8930 -1.5100
18207THY    HP335947   7.654   0.159   2.779 -0.9188  0.5287 -1.3778
18207THY    HP435948   7.573   0.108   2.926  1.2447  0.0952 -0.5267
18207THY    CP335949   7.652   0.437   2.862 -0.1997 -0.1589  0.0672
18207THY    HP535950   7.684   0.423   2.758 -0.0798  0.1472 -2.3540
18207THY    HP635951   7.739   0.431   2.927 -0.2110 -0.2875 -2.0619
18207THY    HP735952   7.601   0.533   2.876 -0.1229  0.4314  0.0244
18207THY    CA335953   7.600   0.356   3.154  1.1498 -0.4048 -0.0749
18207THY    HA335954   7.706   0.334   3.138  1.4287  1.8129 -0.5988
18207THY    CA435955   7.550   0.384   3.282 -0.5552  0.3244 -0.1601
18207THY    HA435956   7.621   0.377   3.364 -1.0615  0.7186 -0.9336
18207THY    CA535957   7.415   0.405   3.305 -0.4062  0.3295  0.3875
18207THY    CM135958   7.371   0.434   3.447 -0.6887  0.6842  0.0863
18207THY    HM135959   7.408   0.526   3.493 -0.0541  0.4019 -0.0189
18207THY    HM235960   7.417   0.357   3.510  2.2034  1.2953  2.1527
18207THY    HM335961   7.262   0.429   3.458 -0.4789  2.6602 -3.3171
18207THY    CA635962   7.324   0.382   3.200  0.4133 -0.3367  0.0175
18207THY    HA635963   7.218   0.399   3.216  0.9781  1.6995  2.2017
18208THY      O35964   5.383   7.190   7.567 -0.2845  0.1599 -0.5537
18208THY     HO35965   5.295   7.223   7.542 -0.4338  3.1837  1.7763
18208THY    CA135966   5.451   7.303   7.595 -0.3115  0.2164  0.3233
18208THY    CA235967   5.579   7.302   7.657 -1.0048  0.6441  1.0816
18208THY    CP135968   5.635   7.169   7.692  0.1146  0.6317 -0.4601
18208THY    HP135969   5.559   7.091   7.683 -1.1369 -0.4830  0.8419
18208THY    CP235970   5.669   7.159   7.837  0.2193 -0.4941  0.5539
18208THY    HP235971   5.585   7.175   7.905  0.1424  0.1116 -2.0030
18208THY    HP335972   5.743   7.234   7.869 -1.0794  1.3914  1.1020
18208THY    HP435973   5.705   7.058   7.858 -1.2870 -0.3245  0.0293
18208THY    CP335974   5.760   7.139   7.605 -0.4426 -0.3529 -0.1947
18208THY    HP535975   5.724   7.111   7.505  1.3104 -0.2569 -3.1415
18208THY    HP635976   5.805   7.044   7.636 -0.2512  0.4921  0.1640
18208THY    HP735977   5.842   7.212   7.598 -0.4530 -1.1847 -0.2495
18208THY    CA335978   5.664   7.417   7.659 -0.9601 -0.2024  0.0994
18208THY    HA335979   5.768   7.420   7.688 -0.7068 -1.1532  0.7866
18208THY    CA435980   5.605   7.539   7.611  0.5842  0.2779 -0.5816
18208THY    HA435981   5.662   7.631   7.608  0.1055 -0.0823 -0.2920
18208THY    CA535982   5.475   7.537   7.564  0.6284 -0.7774 -0.0825
18208THY    CM135983   5.425   7.654   7.497 -0.6385  0.3624  0.4026
18208THY    HM135984   5.321   7.661   7.530 -1.2080 -1.2473 -0.0007
18208THY    HM235985   5.439   7.644   7.389  1.4776  0.7396 -1.9218
18208THY    HM335986   5.482   7.739   7.536  2.8168 -1.2880 -0.9464
18208THY    CA635987   5.399   7.424   7.558  0.2740 -0.2694  0.6984
18208THY    HA635988   5.304   7.427   7.506  0.7814 -1.3161 -0.3673
18209THY      O35989   7.732   0.621   5.204  0.2831 -0.0710 -0.1847
18209THY     HO35990   7.679   0.539   5.206 -0.8368  0.4626  0.5311
18209THY    CA135991   7.786   0.616   5.084 -0.4282  0.1533 -0.4662
18209THY    CA235992   7.797   0.730   5.002 -0.4591 -0.5844  0.4005
18209THY    CP135993   7.761   0.864   5.058  0.2437  0.3819  0.4500
18209THY    HP135994   7.661   0.849   5.102 -0.1607  0.2896  2.5369
18209THY    CP235995   7.757   0.981   4.949  0.0541 -0.0638 -0.5442
18209THY    HP235996   7.684   0.937   4.880  0.4726 -0.8771  0.0176
18209THY    HP335997   7.856   0.983   4.903  0.4910  0.8531 -0.4261
18209THY    HP435998   7.718   1.080   4.974  0.0789 -2.1337  0.0415
18209THY    CP335999   7.856   0.906   5.169 -0.5442 -0.2356 -0.6072
18209THY    HP536000   7.851   0.825   5.243  0.2113  0.9947  0.4519
18209THY    HP636001   7.824   1.005   5.204  1.0708 -1.0127  0.2305
18209THY    HP736002   7.957   0.919   5.128 -0.6345 -1.4488 -3.1601
18209THY    CA336003   7.856   0.713   4.870 -0.7073  0.0494  0.2654
18209THY    HA336004   7.887   0.799   4.812  1.3877  1.6373  0.6660
18209THY    CA436005   7.889   0.585   4.825  0.0399 -0.3389  1.1893
18209THY    HA436006   7.919   0.557   4.725 -0.6236  0.4126 -3.0347
18209THY    CA536007   7.842   0.469   4.904 -0.0485 -0.5746  0.8969
18209THY    CM136008   7.858   0.334   4.854 -0.5433  0.7612  0.0637
18209THY    HM136009   7.876   0.331   4.746  0.4063  0.9310 -2.2770
18209THY    HM236010   7.767   0.274   4.867 -0.4281 -0.6444 -0.4427
18209THY    HM336011   7.941   0.283   4.904  0.4975 -1.9348 -1.0363
18209THY    CA636012   7.795   0.488   5.031  0.4887  0.2729  0.3705
18209THY    HA636013   7.757   0.403   5.088  1.6183  0.0729 -0.2822
18210THY      O36014   3.907   8.644   5.862  0.4078  0.3937 -0.3373
18210THY     HO36015   3.823   8.596   5.849  0.1323 -1.1143  0.4816
18210THY    CA136016   3.991   8.552   5.918 -0.1779  0.3962 -0.0486
18210THY    CA236017   4.105   8.598   5.998  0.4057  0.5173  0.7492
18210THY    CP136018   4.111   8.743   6.041 -0.1228 -0.5775 -0.6709
18210THY    HP136019   4.040   8.807   5.988  0.5970 -0.9270 -0.1441
18210THY    CP236020   4.250   8.813   6.004  0.4337 -0.1605  0.0256
18210THY    HP236021   4.254   8.919   6.032 -0.8775  1.5243 -0.3266
18210THY    HP336022   4.276   8.793   5.899  1.4009 -0.1402  1.0815
18210THY    HP436023   4.329   8.772   6.068  1.6215 -1.0291  0.8621
18210THY    CP336024   4.089   8.759   6.193 -0.2319  0.1921  0.8786
18210THY    HP536025   3.991   8.715   6.216  0.0505  0.0001  0.1241
18210THY    HP636026   4.092   8.861   6.233 -1.9923  0.3710  0.8946
18210THY    HP736027   4.165   8.696   6.241 -1.8078  1.3010 -0.2423
18210THY    CA336028   4.197   8.502   6.036  0.5931  0.2595  0.0407
18210THY    HA336029   4.287   8.538   6.086 -0.7161  0.7050  2.9248
18210THY    CA436030   4.190   8.370   5.985  0.6063 -0.0185  0.3810
18210THY    HA436031   4.257   8.288   6.010 -1.7148  1.0908 -1.3118
18210THY    CA536032   4.092   8.335   5.896  0.8340  0.0862 -0.4816
18210THY    CM136033   4.094   8.204   5.838 -0.5600  0.4574  0.1323
18210THY    HM136034   4.161   8.133   5.887 -0.0754  0.8167  0.8397
18210THY    HM236035   4.131   8.201   5.735  0.3752  0.7734  0.4917
18210THY    HM336036   3.993   8.159   5.834 -0.2993  0.7078 -0.4875
18210THY    CA636037   3.987   8.423   5.871 -0.2335 -0.5424 -0.2892
18210THY    HA636038   3.898   8.397   5.814 -0.7686  0.5577 -0.9246
18211THY      O36039   7.484   7.622   3.866  0.0701  1.0143  0.1775
18211THY     HO36040   7.559   7.591   3.812 -0.2517  0.0663  1.0115
18211THY    CA136041   7.544   7.704   3.949  0.1176 -0.0717  0.0833
18211THY    CA236042   7.492   7.726   4.079 -0.0700  0.2961  0.0229
18211THY    CP136043   7.374   7.642   4.125  0.0505  0.2427  0.7988
18211THY    HP136044   7.354   7.568   4.047  3.6791 -0.2485  0.1774
18211THY    CP236045   7.252   7.735   4.136 -0.2380  0.0950 -0.0892
18211THY    HP236046   7.163   7.692   4.181 -0.0060  0.2197 -0.4370
18211THY    HP336047   7.220   7.761   4.034 -1.5946  0.8334  1.3111
18211THY    HP436048   7.272   7.826   4.194  1.1949 -2.0161  1.0491
18211THY    CP336049   7.382   7.565   4.261 -0.1331 -0.0598 -0.2030
18211THY    HP536050   7.389   7.644   4.337 -0.0942 -0.8923  0.6156
18211THY    HP636051   7.475   7.507   4.260 -0.4065 -2.3001 -0.6877
18211THY    HP736052   7.289   7.513   4.288 -0.9146 -1.0430  0.6395
18211THY    CA336053   7.550   7.824   4.165  0.1372  0.0562  0.3956
18211THY    HA336054   7.520   7.839   4.269 -1.0315 -0.0758 -0.9185
18211THY    CA436055   7.652   7.904   4.113 -0.1399 -0.0916  0.5670
18211THY    HA436056   7.690   7.987   4.172  1.9952  1.2655 -1.2500
18211THY    CA536057   7.696   7.886   3.977 -0.4966 -0.4070 -0.0772
18211THY    CM136058   7.791   7.989   3.922  0.6374  0.0076 -0.5448
18211THY    HM136059   7.855   7.937   3.849 -0.0081  0.3771 -1.9292
18211THY    HM236060   7.855   8.038   3.995  1.2685 -1.6017  1.1304
18211THY    HM336061   7.726   8.066   3.880 -0.9291  0.4876 -1.5501
18211THY    CA636062   7.641   7.784   3.897 -0.3002 -0.3915 -0.0330
18211THY    HA636063   7.675   7.763   3.796 -0.0367 -0.2501 -0.2850
18212THY      O36064   2.588   6.759   2.855  0.7469 -0.5315  0.1243
18212THY     HO36065   2.521   6.767   2.785  0.1118 -0.1013 -1.2395
18212THY    CA136066   2.583   6.866   2.940  0.6607 -0.2256 -0.0771
18212THY    CA236067   2.587   6.844   3.079  0.3135  0.0188 -0.4483
18212THY    CP136068   2.594   6.701   3.149 -0.2630  0.6311 -0.4071
18212THY    HP136069   2.582   6.629   3.067 -0.0429  1.1033 -0.9848
18212THY    CP236070   2.471   6.683   3.231 -0.4200  0.1005 -0.5913
18212THY    HP236071   2.385   6.716   3.173 -1.2258  0.2979 -2.2452
18212THY    HP336072   2.477   6.739   3.325 -1.3598 -0.2274  0.0803
18212THY    HP436073   2.466   6.575   3.253  2.0624  0.0760 -0.7708
18212THY    CP336074   2.730   6.687   3.214 -0.6075  0.4836  0.9414
18212THY    HP536075   2.746   6.595   3.271  0.7494 -1.9765 -0.4474
18212THY    HP636076   2.747   6.773   3.280  0.5016 -1.2119  2.0682
18212THY    HP736077   2.815   6.701   3.148 -0.6729  0.6441  2.2652
18212THY    CA336078   2.574   6.953   3.163 -0.3783 -0.5359  0.2060
18212THY    HA336079   2.585   6.944   3.271 -0.8747 -0.5240 -0.3246
18212THY    CA436080   2.558   7.076   3.103  0.3681  0.1041  0.2451
18212THY    HA436081   2.566   7.161   3.171  2.0403  1.3319 -0.8457
18212THY    CA536082   2.550   7.097   2.972  0.7435  0.8000  0.5749
18212THY    CM136083   2.538   7.235   2.920  0.2237  0.5075 -0.2211
18212THY    HM136084   2.634   7.283   2.939  0.7519 -1.8862 -0.1905
18212THY    HM236085   2.451   7.291   2.954  1.2203  1.4182  0.8236
18212THY    HM336086   2.545   7.234   2.811  1.7441  0.5693  0.5304
18212THY    CA636087   2.558   6.997   2.889  0.1794  0.6401  0.5838
18212THY    HA636088   2.560   7.012   2.782 -3.2207  0.0734 -1.8318
18213THY      O36089   2.170   1.722   7.805  0.1167  0.2887  0.6481
18213THY     HO36090   2.139   1.632   7.822 -3.0980 -0.8997  1.4011
18213THY    CA136091   2.158   1.721   7.671  0.0410 -0.4385 -0.0244
18213THY    CA236092   2.190   1.829   7.589  0.5845 -0.4419 -0.0498
18213THY    CP136093   2.215   1.967   7.649 -0.4378  0.4953 -0.4014
18213THY    HP136094   2.258   1.948   7.748 -1.7113  1.2979  0.7195
18213THY    CP236095   2.092   2.064   7.648 -0.0913  0.0648 -0.3961
18213THY    HP236096   2.002   2.015   7.686 -0.1721 -0.1321 -0.4028
18213THY    HP336097   2.076   2.102   7.546  5.6830 -0.5466  1.5022
18213THY    HP436098   2.110   2.158   7.702  1.2871 -0.0053 -0.5886
18213THY    CP336099   2.335   2.038   7.591  0.3822  0.5607  0.1069
18213THY    HP536100   2.364   2.128   7.646  1.0526  0.6603 -0.1625
18213THY    HP636101   2.304   2.064   7.489  1.2483  0.1897 -0.2480
18213THY    HP736102   2.425   1.974   7.591  0.1921  1.0223 -0.1605
18213THY    CA336103   2.158   1.814   7.453  0.2252  0.5711 -0.7718
18213THY    HA336104   2.185   1.899   7.390  1.0618 -0.0700 -1.4904
18213THY    CA436105   2.112   1.690   7.400  0.2315 -0.4212 -1.2524
18213THY    HA436106   2.087   1.680   7.295  0.8844 -0.9359  1.5706
18213THY    CA536107   2.107   1.582   7.484  0.0740  0.0520  0.2712
18213THY    CM136108   2.081   1.438   7.436 -0.5351 -0.1536 -0.0529
18213THY    HM136109   2.012   1.381   7.500 -0.6530  0.1854  0.4626
18213THY    HM236110   2.177   1.385   7.429  0.0473 -2.9050  1.2102
18213THY    HM336111   2.041   1.432   7.334  1.1448 -0.8201 -0.6291
18213THY    CA636112   2.127   1.596   7.623  0.3178 -0.3570 -0.1003
18213THY    HA636113   2.109   1.509   7.686  0.8053 -1.0900 -0.7498
18214THY      O36114   5.772   1.097   4.218  0.4898  0.1905 -0.1128
18214THY     HO36115   5.683   1.066   4.197  2.0217 -2.8761 -3.0215
18214THY    CA136116   5.839   1.116   4.096 -0.0166 -0.1236  0.2762
18214THY    CA236117   5.978   1.097   4.084 -0.1147 -0.3866  0.7340
18214THY    CP136118   6.065   1.056   4.204  0.0720  0.1398  0.0914
18214THY    HP136119   6.008   1.048   4.298 -2.1181 -1.2003 -1.1492
18214THY    CP236120   6.169   1.168   4.226  0.1483  0.3837 -0.3161
18214THY    HP236121   6.117   1.262   4.247  1.2002 -0.2275  0.4228
18214THY    HP336122   6.232   1.175   4.137 -1.4537 -0.8073 -0.4389
18214THY    HP436123   6.241   1.132   4.300 -0.1096  0.6848 -0.2197
18214THY    CP336124   6.133   0.927   4.198 -0.5269  0.2898 -0.4517
18214THY    HP536125   6.056   0.849   4.190  0.4315 -0.8104 -1.3102
18214THY    HP636126   6.199   0.915   4.285  0.9951 -0.8238 -0.2855
18214THY    HP736127   6.191   0.930   4.106 -1.7587 -0.5523 -1.5788
18214THY    CA336128   6.038   1.129   3.960  0.2797 -0.5935 -0.2208
18214THY    HA336129   6.143   1.130   3.936  0.4343 -0.0903 -2.0175
18214THY    CA436130   5.958   1.164   3.853  0.0799 -0.1946 -0.0084
18214THY    HA436131   6.016   1.172   3.761  0.4783 -0.2119 -2.2603
18214THY    CA536132   5.819   1.159   3.859 -0.0163 -0.1506 -0.7714
18214THY    CM136133   5.749   1.195   3.734 -0.2137  1.1783  0.2087
18214THY    HM136134   5.641   1.178   3.733 -0.2694  2.4596  0.3898
18214THY    HM236135   5.797   1.141   3.652 -1.5954  0.2843  0.3051
18214THY    HM336136   5.774   1.300   3.718  2.3859  0.9725 -0.3683
18214THY    CA636137   5.761   1.137   3.986 -0.3710 -0.2983 -0.3441
18214THY    HA636138   5.654   1.150   3.997 -0.2225  0.5785  0.2077
18215THY      O36139   1.298   6.252   5.690 -0.2051 -0.2450 -0.1422
18215THY     HO36140   1.202   6.262   5.676 -0.7547  1.1662 -2.7332
18215THY    CA136141   1.327   6.139   5.621 -0.0193  0.3092 -0.4784
18215THY    CA236142   1.422   6.039   5.662  0.7457  0.3593 -0.7241
18215THY    CP136143   1.505   6.052   5.790  0.3678 -0.0491 -0.0240
18215THY    HP136144   1.460   6.131   5.852 -0.0514 -1.2290  0.6854
18215THY    CP236145   1.656   6.078   5.765 -0.9479  0.2977  0.0015
18215THY    HP236146   1.690   5.991   5.706  0.4420 -0.5078  1.0424
18215THY    HP336147   1.710   6.086   5.860  0.7294 -0.6009 -0.0844
18215THY    HP436148   1.671   6.165   5.700  0.8454 -0.6904 -0.9544
18215THY    CP336149   1.497   5.925   5.877  0.2949 -0.4398  0.0451
18215THY    HP536150   1.394   5.902   5.905  0.3749  0.3850  0.6595
18215THY    HP636151   1.551   5.950   5.969  1.9087 -0.2765 -3.4907
18215THY    HP736152   1.550   5.841   5.829  2.4614  0.9938  0.5104
18215THY    CA336153   1.439   5.930   5.575 -0.1582 -0.6858 -0.4194
18215THY    HA336154   1.516   5.857   5.601  1.4376  1.0172  1.7545
18215THY    CA436155   1.374   5.917   5.453 -0.1397 -0.6344  0.5140
18215THY    HA436156   1.398   5.828   5.396  1.3140 -0.3960  0.7190
18215THY    CA536157   1.283   6.012   5.416  0.1046 -0.0842 -0.3190
18215THY    CM136158   1.208   5.983   5.289  0.4035  0.3497  0.0700
18215THY    HM136159   1.228   6.064   5.218  0.2727  0.4767  0.2130
18215THY    HM236160   1.099   5.981   5.305  0.5724  1.8322  0.9867
18215THY    HM336161   1.244   5.887   5.252  0.4982  0.7006 -0.0301
18215THY    CA636162   1.256   6.128   5.505  0.2403  1.0221  1.0183
18215THY    HA636163   1.191   6.208   5.473 -0.7310  1.9110  0.6003
18216THY      O36164   3.158   5.480   6.177 -0.0927  0.2281 -0.0034
18216THY     HO36165   3.214   5.556   6.154 -0.4533 -1.3404 -0.1793
18216THY    CA136166   3.109   5.438   6.060  0.0364 -0.2155 -0.3059
18216THY    CA236167   3.013   5.336   6.057 -0.4424 -0.8664 -0.5466
18216THY    CP136168   2.951   5.287   6.191  0.2400  0.8774  0.1807
18216THY    HP136169   2.981   5.353   6.273  0.7499  0.6202  0.2722
18216THY    CP236170   2.978   5.132   6.216  0.1233  0.0630 -0.5368
18216THY    HP236171   2.946   5.104   6.317 -0.8243  0.7241  2.5446
18216THY    HP336172   3.082   5.099   6.207 -0.4148 -3.4874 -1.7492
18216THY    HP436173   2.927   5.072   6.139 -3.4542  0.4653  1.6981
18216THY    CP336174   2.799   5.297   6.203 -0.1896  0.3467 -0.5321
18216THY    HP536175   2.761   5.389   6.159  0.1956 -0.9835 -0.9940
18216THY    HP636176   2.759   5.283   6.304 -0.0479  0.6726  1.1984
18216THY    HP736177   2.740   5.224   6.148 -1.8809 -1.9803  2.3552
18216THY    CA336178   2.961   5.290   5.935 -0.5091  0.6516 -0.0138
18216THY    HA336179   2.880   5.217   5.935 -1.0305  0.3394  0.5475
18216THY    CA436180   3.008   5.335   5.820 -0.0772  0.2365 -0.4670
18216THY    HA436181   2.971   5.300   5.724  0.5380 -0.2440  0.1536
18216THY    CA536182   3.102   5.442   5.822  0.2399  0.3173 -0.4701
18216THY    CM136183   3.151   5.514   5.693  0.0063  0.0064  0.1409
18216THY    HM136184   3.250   5.474   5.667 -0.3786  0.1770 -0.9799
18216THY    HM236185   3.152   5.623   5.696  1.3959  0.0313  0.1409
18216THY    HM336186   3.091   5.490   5.605  2.6633 -2.0804  0.6997
18216THY    CA636187   3.158   5.487   5.941 -0.4125  0.6929  0.3933
18216THY    HA636188   3.229   5.569   5.939 -2.8927  1.0342  2.6667
18217THY      O36189   6.591   5.738   3.749  0.0026 -0.4855 -0.3022
18217THY     HO36190   6.667   5.799   3.755  1.4109 -1.2698 -1.8994
18217THY    CA136191   6.476   5.810   3.742  0.4170  0.1600  0.1350
18217THY    CA236192   6.353   5.753   3.773  0.3333  0.1757  0.1129
18217THY    CP136193   6.349   5.606   3.823 -0.4984  0.4143 -0.1354
18217THY    HP136194   6.446   5.559   3.805  0.9991  1.2220  2.4373
18217THY    CP236195   6.243   5.522   3.757  0.2993  0.0271 -0.2454
18217THY    HP236196   6.239   5.421   3.799  1.6682  1.8287  0.3978
18217THY    HP336197   6.273   5.515   3.652  1.5609  0.4238 -1.1375
18217THY    HP436198   6.144   5.567   3.768 -0.0908 -1.3118 -0.7391
18217THY    CP336199   6.321   5.607   3.973 -0.3379  0.3591 -0.3500
18217THY    HP536200   6.255   5.685   4.011 -0.0393  3.5296 -1.4840
18217THY    HP636201   6.418   5.633   4.018 -0.4744  1.1075 -1.0858
18217THY    HP736202   6.277   5.514   4.010 -1.3582 -1.2166 -0.5379
18217THY    CA336203   6.238   5.838   3.755 -0.4351 -0.3572  0.2367
18217THY    HA336204   6.137   5.808   3.779 -0.0234 -0.0870 -0.9935
18217THY    CA436205   6.256   5.972   3.711 -0.6189 -0.5398  0.0989
18217THY    HA436206   6.166   6.031   3.697 -0.9640  1.6914  0.2027
18217THY    CA536207   6.379   6.018   3.669 -0.2924  0.1030 -0.0208
18217THY    CM136208   6.402   6.158   3.616 -0.0660 -0.2177  0.1278
18217THY    HM136209   6.421   6.156   3.508 -0.6459 -0.3264  0.0286
18217THY    HM236210   6.469   6.223   3.673  0.9905 -2.2765  0.9472
18217THY    HM336211   6.314   6.224   3.616 -0.2509  0.0186 -0.1161
18217THY    CA636212   6.488   5.933   3.683  0.5004 -0.1598 -0.1791
18217THY    HA636213   6.586   5.973   3.659  0.0002  0.2027  1.3353
18218THY      O36214   1.726   4.478   7.563 -0.1008  0.4243 -0.1325
18218THY     HO36215   1.817   4.446   7.576  0.3130 -1.2605  0.2929
18218THY    CA136216   1.732   4.614   7.567 -0.4154  0.5666  0.0671
18218THY    CA236217   1.651   4.705   7.500 -0.6554  0.4700 -0.1666
18218THY    CP136218   1.521   4.662   7.434  0.3762  0.3231  0.8937
18218THY    HP136219   1.463   4.618   7.516 -0.6442  1.2146  3.6592
18218THY    CP236220   1.560   4.552   7.329 -0.6330  0.0555  0.5668
18218THY    HP236221   1.597   4.459   7.372  0.0193 -0.7394  0.4433
18218THY    HP336222   1.626   4.586   7.248  2.3276  1.2636 -1.8588
18218THY    HP436223   1.472   4.515   7.273  0.6758 -1.6286 -0.1330
18218THY    CP336224   1.446   4.768   7.352 -0.4769  0.0089  0.3117
18218THY    HP536225   1.504   4.800   7.264  2.8034  1.6093 -0.7777
18218THY    HP636226   1.416   4.850   7.419 -2.7774 -0.1426 -0.3331
18218THY    HP736227   1.345   4.734   7.325 -0.2675 -0.2605 -0.1070
18218THY    CA336228   1.693   4.839   7.479  0.2206 -0.1778  0.8097
18218THY    HA336229   1.638   4.904   7.411  1.4306 -1.8275  0.1638
18218THY    CA436230   1.811   4.873   7.545 -0.4422  0.6770  0.6212
18218THY    HA436231   1.844   4.976   7.530 -0.7230 -1.9978  0.4130
18218THY    CA536232   1.884   4.789   7.626  0.0156  0.3997 -0.4579
18218THY    CM136233   2.016   4.835   7.685 -0.2166  0.8971  0.5180
18218THY    HM136234   2.002   4.838   7.793  0.0543  0.9286  0.7227
18218THY    HM236235   2.032   4.939   7.653 -2.2878 -2.1225  0.0487
18218THY    HM336236   2.101   4.769   7.663 -0.8809  0.3407 -0.1741
18218THY    CA636237   1.847   4.658   7.629  0.2129 -0.7891 -0.1776
18218THY    HA636238   1.914   4.596   7.688  1.7146 -0.9274  1.2285
18219THY      O36239   2.875   1.886   2.702 -0.5578 -0.0838 -0.3109
18219THY     HO36240   2.851   1.943   2.627 -0.5295  0.1273 -0.0200
18219THY    CA136241   2.782   1.905   2.799  0.5881 -0.3154 -0.6241
18219THY    CA236242   2.769   1.814   2.907  0.1198 -0.0471  0.9683
18219THY    CP136243   2.851   1.689   2.925  0.2409  0.4313 -0.1557
18219THY    HP136244   2.908   1.672   2.834 -0.0379 -0.1098  1.5475
18219THY    CP236245   2.765   1.561   2.947 -0.1284  0.7775  0.6438
18219THY    HP236246   2.684   1.565   2.874 -0.7227  1.3391 -0.4236
18219THY    HP336247   2.723   1.554   3.048  0.9966  1.2335  0.2042
18219THY    HP436248   2.822   1.470   2.922  1.3080 -3.2240  2.4429
18219THY    CP336249   2.942   1.688   3.045 -0.9969  0.1954  0.2125
18219THY    HP536250   3.020   1.766   3.043  0.5673  1.2096 -1.2470
18219THY    HP636251   2.984   1.587   3.055 -0.2570 -0.5637  0.4336
18219THY    HP736252   2.895   1.704   3.143  0.2885  1.1121 -1.2515
18219THY    CA336253   2.674   1.846   3.011  0.3942  0.0976  1.1005
18219THY    HA336254   2.663   1.791   3.105  0.2834 -1.2739 -1.3796
18219THY    CA436255   2.592   1.960   2.994 -0.5560 -0.3946 -0.3944
18219THY    HA436256   2.521   1.991   3.070  0.4153  0.5603 -0.4329
18219THY    CA536257   2.609   2.042   2.884  1.0107  0.7571  0.0255
18219THY    CM136258   2.520   2.149   2.852 -0.2376 -0.0512 -0.6201
18219THY    HM136259   2.419   2.115   2.878 -0.6423  1.3076  1.4609
18219THY    HM236260   2.514   2.180   2.747 -0.5741  0.2020  0.2157
18219THY    HM336261   2.547   2.235   2.914  0.2326  0.1762 -0.9315
18219THY    CA636262   2.696   2.011   2.784  0.0337 -0.2495 -0.3751
18219THY    HA636263   2.710   2.078   2.700  1.1125  0.1182 -0.1320
18220THY      O36264   4.031   9.186   4.557 -0.1331  0.3507  0.1696
18220THY     HO36265   3.976   9.194   4.637 -0.4485 -0.0168  2.1025
18220THY    CA136266   4.103   9.082   4.595 -0.3474 -0.7084 -0.3795
18220THY    CA236267   4.202   9.028   4.513  0.0208  0.1564  0.1003
18220THY    CP136268   4.226   9.095   4.378 -0.2340 -0.3072  0.0045
18220THY    HP136269   4.145   9.157   4.339  0.1200 -0.0969  0.6075
18220THY    CP236270   4.253   8.999   4.262 -0.2663  0.3359 -0.2579
18220THY    HP236271   4.355   8.959   4.266 -0.2180 -0.0172 -0.1749
18220THY    HP336272   4.250   9.048   4.164 -0.6912  0.1248 -0.6986
18220THY    HP436273   4.171   8.930   4.285 -3.2915 -0.6092  2.7534
18220THY    CP336274   4.352   9.180   4.391 -0.4147  0.6309 -0.4561
18220THY    HP536275   4.385   9.216   4.293 -1.3100  0.0076 -1.2800
18220THY    HP636276   4.441   9.132   4.435 -0.6363  1.1617 -0.3825
18220THY    HP736277   4.325   9.264   4.455  0.8162  1.8603 -0.9655
18220THY    CA336278   4.264   8.907   4.554 -0.4928 -0.0934  0.9587
18220THY    HA336279   4.348   8.865   4.498  0.1824  1.2924  0.3987
18220THY    CA436280   4.241   8.857   4.682  0.5652  0.1861  0.0273
18220THY    HA436281   4.292   8.770   4.722 -0.4796  0.6127 -0.4149
18220THY    CA536282   4.146   8.919   4.768  0.0579 -0.8181  0.0313
18220THY    CM136283   4.114   8.864   4.911 -0.2900 -1.0929 -0.3972
18220THY    HM136284   4.100   8.755   4.910  2.7822  1.4376 -0.9696
18220THY    HM236285   4.030   8.912   4.962 -0.5037 -1.7191 -0.0986
18220THY    HM336286   4.201   8.884   4.975 -0.5425 -0.2178 -1.9315
18220THY    CA636287   4.075   9.029   4.721  0.3090  0.1169 -0.6112
18220THY    HA636288   4.002   9.075   4.788 -1.4843  1.9581 -5.4770
18221THY      O36289   5.231   3.242   7.336  0.6081  0.1069 -0.3849
18221THY     HO36290   5.201   3.288   7.256  0.2046  0.6477  0.3095
18221THY    CA136291   5.344   3.308   7.364 -0.1810 -0.5906  0.3293
18221THY    CA236292   5.411   3.286   7.488 -0.6649  0.3783  0.0616
18221THY    CP136293   5.350   3.192   7.592  0.3942  0.2099  0.2061
18221THY    HP136294   5.241   3.201   7.587  0.4510 -0.2791  0.6892
18221THY    CP236295   5.383   3.227   7.739  0.2320  0.2683 -0.6564
18221THY    HP236296   5.347   3.329   7.754  0.7127  1.1406 -0.6077
18221THY    HP336297   5.492   3.242   7.749  0.0680  0.7403  0.2667
18221THY    HP436298   5.348   3.148   7.807 -0.5076  0.9592  0.2525
18221THY    CP336299   5.384   3.044   7.554  0.2829 -0.0259 -0.2994
18221THY    HP536300   5.333   2.972   7.618 -0.1207 -0.0255 -0.0181
18221THY    HP636301   5.491   3.026   7.545 -0.0977 -3.1533 -1.7569
18221THY    HP736302   5.347   3.038   7.451 -1.0531  0.4279 -0.1917
18221THY    CA336303   5.537   3.348   7.513  0.5483  0.3523 -0.0918
18221THY    HA336304   5.603   3.337   7.598 -1.8561  2.2972 -0.2882
18221THY    CA436305   5.585   3.438   7.411 -0.0528 -0.7241 -0.4133
18221THY    HA436306   5.680   3.489   7.425 -0.6885  2.7948  0.0614
18221THY    CA536307   5.523   3.447   7.286 -0.2309  0.4672 -0.2340
18221THY    CM136308   5.566   3.525   7.168  0.6085 -0.9838  0.2001
18221THY    HM136309   5.494   3.606   7.149 -0.4627  2.1072  0.1134
18221THY    HM236310   5.584   3.444   7.097 -0.7042 -1.8266  0.6123
18221THY    HM336311   5.657   3.578   7.199 -0.3390 -0.2109  1.4629
18221THY    CA636312   5.398   3.389   7.272 -0.1956  0.0635 -0.1329
18221THY    HA636313   5.349   3.409   7.177 -1.4622  1.1930  2.6561
18222THY      O36314   1.564   7.059   3.638  0.5369 -0.2654 -0.1317
18222THY     HO36315   1.553   7.125   3.708 -2.5297 -0.7014 -0.0342
18222THY    CA136316   1.682   6.997   3.657  0.1011  1.0277  0.0340
18222THY    CA236317   1.715   6.886   3.575  0.0036 -0.3576  0.5541
18222THY    CP136318   1.609   6.833   3.476  0.2702  0.0431 -0.3570
18222THY    HP136319   1.539   6.915   3.458  0.4359 -2.6262 -0.7287
18222THY    CP236320   1.539   6.709   3.542  0.1123  0.3467  0.0046
18222THY    HP236321   1.438   6.703   3.502  0.1794  0.3091 -1.1240
18222THY    HP336322   1.536   6.722   3.651  2.9709  0.7267 -1.6376
18222THY    HP436323   1.591   6.614   3.529 -1.7188 -2.4222 -0.7303
18222THY    CP336324   1.657   6.804   3.335 -0.4995  0.2000  0.2731
18222THY    HP536325   1.737   6.728   3.334 -0.6325 -0.2057  0.1316
18222THY    HP636326   1.703   6.893   3.291 -1.6761  1.5726  1.5899
18222THY    HP736327   1.570   6.773   3.276  1.0421 -0.9935 -2.1818
18222THY    CA336328   1.834   6.813   3.601  0.7714  0.8042  0.1944
18222THY    HA336329   1.845   6.722   3.543  0.3683 -0.2144  0.7703
18222THY    CA436330   1.909   6.853   3.703  0.0772 -0.5916  0.3474
18222THY    HA436331   2.000   6.794   3.707  0.5971  0.1597  1.1742
18222THY    CA536332   1.873   6.955   3.793  0.0978 -0.9542 -0.1907
18222THY    CM136333   1.964   6.981   3.915 -0.3217  0.3901 -0.5154
18222THY    HM136334   1.911   7.032   3.996 -0.8282 -0.2069 -0.0713
18222THY    HM236335   2.054   7.035   3.883 -1.2499 -1.5572 -0.0486
18222THY    HM336336   2.001   6.888   3.960  1.4824 -1.0275 -0.5434
18222THY    CA636337   1.767   7.041   3.760  1.2159 -0.7496 -0.3076
18222THY    HA636338   1.747   7.121   3.831  0.8029 -0.6136 -0.5330
18223THY      O36339   3.415   6.931   4.794 -0.0077 -0.6638 -0.0650
18223THY     HO36340   3.464   6.941   4.711 -1.9903 -1.6665  2.5677
18223THY    CA136341   3.302   6.994   4.769 -0.5528  0.1733 -0.1032
18223THY    CA236342   3.190   6.978   4.856 -0.1079  0.0633 -0.0581
18223THY    CP136343   3.199   6.905   4.989 -0.1864 -0.8703 -0.0302
18223THY    HP136344   3.283   6.835   4.988  1.0163  0.3683  1.3438
18223THY    CP236345   3.080   6.808   5.011  0.0888 -0.2825 -0.5179
18223THY    HP236346   2.993   6.872   5.028  0.8308 -3.0009  1.3900
18223THY    HP336347   3.104   6.747   5.099  0.3464 -0.5375 -0.7875
18223THY    HP436348   3.078   6.750   4.918  1.3606 -0.8904  0.3599
18223THY    CP336349   3.223   6.998   5.112 -0.2932 -0.7221 -0.7577
18223THY    HP536350   3.160   7.087   5.120  1.4431  0.1005  0.4643
18223THY    HP636351   3.332   7.011   5.118 -0.1845  0.0629 -1.9147
18223THY    HP736352   3.197   6.951   5.207  1.6317  0.0053 -0.4535
18223THY    CA336353   3.065   7.037   4.814 -0.2362 -0.4080  0.2381
18223THY    HA336354   2.985   7.044   4.887  0.1852  0.1160 -0.3115
18223THY    CA436355   3.061   7.115   4.694  0.1151  0.1849  0.1469
18223THY    HA436356   2.970   7.162   4.659  1.3049 -1.3065  1.4337
18223THY    CA536357   3.180   7.130   4.612 -0.0430  0.5503  1.1462
18223THY    CM136358   3.155   7.205   4.491 -0.3692  0.5000 -0.2468
18223THY    HM136359   3.063   7.165   4.446 -1.3074  2.8193 -0.8653
18223THY    HM236360   3.239   7.192   4.422  0.2922  1.3742 -0.6946
18223THY    HM336361   3.128   7.310   4.511 -0.5799 -0.0162 -0.1995
18223THY    CA636362   3.302   7.074   4.654  0.1662 -0.3287  0.5596
18223THY    HA636363   3.386   7.071   4.585 -0.9143 -1.6353 -1.0777
18224THY      O36364   1.800   0.122   3.106 -0.0011  0.1741  0.3507
18224THY     HO36365   1.882   0.093   3.150  0.4296  0.1757  1.5033
18224THY    CA136366   1.838   0.221   3.021 -0.6070  0.7977  0.0172
18224THY    CA236367   1.754   0.331   2.997 -0.4934  0.1369 -0.3505
18224THY    CP136368   1.614   0.332   3.045  0.6684 -0.2190  0.8210
18224THY    HP136369   1.607   0.274   3.138 -1.2332 -0.9360 -0.2311
18224THY    CP236370   1.535   0.256   2.938  0.6291 -0.0357 -0.8473
18224THY    HP236371   1.575   0.156   2.917 -0.4293 -0.0923 -1.2708
18224THY    HP336372   1.528   0.309   2.842  0.3782 -1.7296 -3.7108
18224THY    HP436373   1.435   0.253   2.982  1.0639  1.2006  1.0458
18224THY    CP336374   1.558   0.465   3.065  0.2304 -0.3963  0.1743
18224THY    HP536375   1.532   0.528   2.979  0.9332 -1.3754 -0.8384
18224THY    HP636376   1.633   0.512   3.130  0.7823 -1.1353  0.3196
18224THY    HP736377   1.462   0.466   3.120  0.6471  0.3464  0.5094
18224THY    CA336378   1.809   0.445   2.926  0.3337  0.6487  0.3904
18224THY    HA336379   1.752   0.537   2.916  1.4783 -1.0116  0.9734
18224THY    CA436380   1.937   0.436   2.872  0.5503  0.2703 -0.2687
18224THY    HA436381   1.983   0.523   2.827  1.4450  1.1350 -0.2785
18224THY    CA536382   2.016   0.321   2.899 -0.7632  0.4812 -0.3656
18224THY    CM136383   2.154   0.307   2.837  0.1003 -0.2504  0.2070
18224THY    HM136384   2.196   0.212   2.872  0.8106  0.3138  0.7149
18224THY    HM236385   2.225   0.378   2.883  0.4189  1.9088 -1.4161
18224THY    HM336386   2.172   0.316   2.729 -0.0358 -0.2331  0.7199
18224THY    CA636387   1.975   0.215   2.974  0.1536  0.3698  0.1651
18224THY    HA636388   2.044   0.132   2.986  1.0765 -2.0144  0.4971
18225THY      O36389   8.021   0.810   4.337 -0.4818  0.4109 -0.0654
18225THY     HO36390   8.104   0.859   4.350  0.3339  0.1904 -1.3428
18225THY    CA136391   7.922   0.860   4.416 -0.1857 -1.0741  0.0776
18225THY    CA236392   7.810   0.788   4.455 -0.6133 -0.4044 -0.9575
18225THY    CP136393   7.803   0.644   4.417 -0.3896  1.4850  0.0542
18225THY    HP136394   7.902   0.597   4.426 -0.0858 -0.6317  0.1862
18225THY    CP236395   7.766   0.611   4.272 -0.2568  0.1654 -0.0894
18225THY    HP236396   7.664   0.649   4.258 -0.1593  3.2252  1.6677
18225THY    HP336397   7.774   0.504   4.250 -0.1827  1.4437 -0.3621
18225THY    HP436398   7.832   0.663   4.202  1.9231  2.8931  1.0806
18225THY    CP336399   7.720   0.550   4.505  0.0863 -0.2909 -0.1460
18225THY    HP536400   7.612   0.543   4.488  0.2616 -0.9690 -1.5823
18225THY    HP636401   7.734   0.596   4.604  0.4815  0.1109 -1.1056
18225THY    HP736402   7.765   0.450   4.509  1.2461 -3.3933  0.1291
18225THY    CA336403   7.706   0.851   4.532  0.1039  0.8352 -0.3197
18225THY    HA336404   7.620   0.806   4.581  0.1716  2.0610  0.7997
18225THY    CA436405   7.731   0.992   4.557 -0.3471 -0.7178  0.1519
18225THY    HA436406   7.662   1.048   4.620  0.0026 -0.8223  0.7030
18225THY    CA536407   7.843   1.063   4.515 -0.6145  0.0261  0.2817
18225THY    CM136408   7.869   1.207   4.545 -0.2633  0.6924 -0.2461
18225THY    HM136409   7.793   1.261   4.487  0.0025 -0.6116 -1.2106
18225THY    HM236410   7.973   1.227   4.518 -0.1824  0.0436 -1.4459
18225THY    HM336411   7.852   1.223   4.652 -0.9919  0.4358  0.8215
18225THY    CA636412   7.940   0.993   4.446 -0.1428  0.0323 -0.4657
18225THY    HA636413   8.027   1.047   4.411 -1.3419  1.2355  2.5400
18226THY      O36414   6.742   2.840   3.397  0.4123  0.2963  0.3150
18226THY     HO36415   6.666   2.829   3.456  0.5319  0.3260 -0.4063
18226THY    CA136416   6.699   2.786   3.282 -0.0422 -0.1952 -0.1639
18226THY    CA236417   6.783   2.725   3.179  0.1729  0.3867 -0.2406
18226THY    CP136418   6.933   2.750   3.174  0.4997  0.0619  0.0703
18226THY    HP136419   6.963   2.797   3.268 -1.5916  1.2429 -0.7623
18226THY    CP236420   6.980   2.840   3.053  0.4622  0.0283 -0.5914
18226THY    HP236421   6.913   2.927   3.050  2.6713  2.8712  1.3689
18226THY    HP336422   6.972   2.793   2.954 -0.7146 -1.7687  2.9924
18226THY    HP436423   7.078   2.889   3.055 -0.6509  0.2008  1.7958
18226THY    CP336424   7.007   2.614   3.163 -0.5947  0.4100 -0.6279
18226THY    HP536425   6.988   2.568   3.066 -0.4929 -1.0303  2.1911
18226THY    HP636426   6.996   2.546   3.249  2.7269  0.6548 -0.9895
18226THY    HP736427   7.116   2.616   3.159 -0.6080 -0.8761 -1.5078
18226THY    CA336428   6.724   2.669   3.066 -0.0411 -0.1045  0.1872
18226THY    HA336429   6.784   2.619   2.990 -0.1860  0.1803 -0.4372
18226THY    CA436430   6.584   2.656   3.071 -0.1565  0.5157 -0.2333
18226THY    HA436431   6.537   2.599   2.992  0.4512  0.8498 -1.2095
18226THY    CA536432   6.504   2.712   3.167 -0.0791 -0.1623 -0.1370
18226THY    CM136433   6.357   2.697   3.157 -0.4442  0.5483 -0.1706
18226THY    HM136434   6.310   2.776   3.097  0.1906  0.3676  0.0833
18226THY    HM236435   6.309   2.708   3.254 -0.4392  0.3367  2.4900
18226THY    HM336436   6.333   2.602   3.109 -1.4166  0.8269 -0.0763
18226THY    CA636437   6.561   2.771   3.282 -0.0032  0.7123 -0.3443
18226THY    HA636438   6.502   2.808   3.365 -1.6246  0.2182 -1.6886
18227THY      O36439   1.984   3.721   5.575 -0.9932 -0.0926 -0.0014
18227THY     HO36440   2.002   3.700   5.482  0.2060  0.4029 -1.3140
18227THY    CA136441   2.058   3.632   5.641 -0.1574 -0.0788  0.1440
18227THY    CA236442   1.997   3.560   5.741 -0.1677 -0.2413 -0.4443
18227THY    CP136443   1.848   3.583   5.776  0.7405 -0.2093 -0.9305
18227THY    HP136444   1.785   3.606   5.689  1.1787 -0.2965 -0.0134
18227THY    CP236445   1.848   3.701   5.863 -0.0655 -0.3642 -0.5411
18227THY    HP236446   1.886   3.784   5.803  1.0968  1.3681  0.2506
18227THY    HP336447   1.916   3.679   5.946 -0.2692 -0.3138 -0.9986
18227THY    HP436448   1.748   3.720   5.906 -0.9496 -2.2477 -0.7577
18227THY    CP336449   1.768   3.470   5.843 -0.2403  0.0615 -0.2585
18227THY    HP536450   1.746   3.402   5.760 -2.0944 -1.0118  1.5568
18227THY    HP636451   1.673   3.502   5.887 -0.2809  0.3705 -0.7925
18227THY    HP736452   1.832   3.429   5.922  1.8871 -0.9309  0.9819
18227THY    CA336453   2.073   3.454   5.797  0.4203  0.0426 -0.4795
18227THY    HA336454   2.034   3.378   5.865  3.0514  0.9737 -1.1147
18227THY    CA436455   2.202   3.435   5.762 -0.4975  0.4868  0.4565
18227THY    HA436456   2.258   3.346   5.790  0.9865 -0.8460  0.9194
18227THY    CA536457   2.263   3.510   5.662  0.4701 -0.0195 -0.0010
18227THY    CM136458   2.405   3.494   5.624 -0.0991  0.0141 -1.0168
18227THY    HM136459   2.432   3.391   5.648  1.2354 -1.7444 -1.1321
18227THY    HM236460   2.471   3.573   5.662 -2.7502  1.3963  0.6858
18227THY    HM336461   2.418   3.499   5.515  0.9648  0.0224 -2.7099
18227THY    CA636462   2.184   3.602   5.591  0.4741 -0.6704  0.4632
18227THY    HA636463   2.221   3.663   5.510  0.6225 -0.3131  0.8607
18228THY      O36464   4.779   4.700   2.278  0.8086  0.3032 -0.4093
18228THY     HO36465   4.715   4.684   2.349 -2.7103 -2.3641  0.4705
18228THY    CA136466   4.726   4.629   2.179  0.4020  0.5189  0.0285
18228THY    CA236467   4.675   4.696   2.065 -0.0216  0.1610  0.6529
18228THY    CP136468   4.693   4.844   2.040  0.3612  0.3740 -0.0995
18228THY    HP136469   4.789   4.878   2.080  1.0629 -0.5504 -0.9209
18228THY    CP236470   4.575   4.919   2.113  0.1160 -0.2660  0.0975
18228THY    HP236471   4.476   4.890   2.075  0.1802  0.0836 -0.5994
18228THY    HP336472   4.592   5.027   2.104  1.8573  0.5053 -0.0921
18228THY    HP436473   4.596   4.885   2.215 -0.8818 -0.0829 -0.0007
18228THY    CP336474   4.694   4.893   1.892  0.0276  0.0209  0.4697
18228THY    HP536475   4.596   4.874   1.848  1.0201 -1.6535 -1.2143
18228THY    HP636476   4.769   4.834   1.837  0.2808  0.4733  0.3648
18228THY    HP736477   4.711   5.000   1.877 -0.0721 -2.2694  0.2276
18228THY    CA336478   4.606   4.611   1.976 -0.4511 -0.0912 -0.3258
18228THY    HA336479   4.567   4.656   1.885  0.5107 -2.1322 -3.3283
18228THY    CA436480   4.599   4.474   1.987  0.3433  0.5628 -1.2061
18228THY    HA436481   4.536   4.420   1.917  0.6115 -1.2663  0.7511
18228THY    CA536482   4.657   4.412   2.097 -0.3275 -0.3680 -0.6263
18228THY    CM136483   4.627   4.263   2.114 -0.0198 -0.9049  0.9069
18228THY    HM136484   4.544   4.228   2.053 -0.4024  0.3138 -0.4261
18228THY    HM236485   4.599   4.245   2.219  2.7859 -0.3407 -0.8428
18228THY    HM336486   4.724   4.215   2.093 -0.4187 -2.5255  0.7498
18228THY    CA636487   4.712   4.490   2.200  0.4062  0.8857  0.0183
18228THY    HA636488   4.750   4.453   2.295  2.2579  0.7074  1.3373
18229THY      O36489   3.903   6.168   7.847 -0.0965 -0.0372 -0.7195
18229THY     HO36490   3.840   6.139   7.780  0.8529 -0.9455 -0.7514
18229THY    CA136491   3.834   6.256   7.922  0.1309 -0.9743 -0.2428
18229THY    CA236492   3.889   6.382   7.959  0.1166  0.0161 -0.0113
18229THY    CP136493   4.025   6.424   7.891 -0.3594 -0.0402 -0.6361
18229THY    HP136494   4.099   6.344   7.880 -1.3167  0.7971 -1.6705
18229THY    CP236495   4.090   6.533   7.982  0.4876 -0.1028  0.0256
18229THY    HP236496   4.103   6.498   8.085 -0.6634  0.0568  0.0228
18229THY    HP336497   4.032   6.626   7.970 -0.5217 -0.3736 -0.6183
18229THY    HP436498   4.181   6.561   7.927 -0.7818 -1.2417  2.2535
18229THY    CP336499   3.984   6.479   7.754 -0.8725  0.4195 -0.2814
18229THY    HP536500   3.936   6.404   7.690 -0.7102 -1.6675  1.2987
18229THY    HP636501   4.069   6.515   7.694  1.1557  3.6443  0.6817
18229THY    HP736502   3.922   6.568   7.770  0.9330  1.3204  0.8743
18229THY    CA336503   3.823   6.463   8.055  0.3534  0.7630  0.5071
18229THY    HA336504   3.860   6.560   8.089 -1.8521 -1.8194  2.4056
18229THY    CA436505   3.688   6.436   8.084 -0.5598 -0.6183  1.2829
18229THY    HA436506   3.623   6.509   8.131  1.0040  0.9229  1.7503
18229THY    CA536507   3.633   6.322   8.040 -0.2004 -0.0612 -0.0602
18229THY    CM136508   3.489   6.298   8.069 -0.3976 -0.5720  0.1763
18229THY    HM136509   3.423   6.378   8.033  1.5491 -1.0184  1.6480
18229THY    HM236510   3.484   6.288   8.178 -0.2978 -0.6850 -1.2517
18229THY    HM336511   3.465   6.198   8.031 -0.2802  1.7807 -0.8027
18229THY    CA636512   3.702   6.230   7.957  0.1086 -0.0432  0.0012
18229THY    HA636513   3.652   6.139   7.925  1.2240 -1.0371 -0.2769
18230THY      O36514   7.955   6.275   6.230  0.7088  0.3425 -0.5937
18230THY     HO36515   7.969   6.186   6.195  1.0584  0.6739 -0.6744
18230THY    CA136516   7.836   6.315   6.178 -0.1950  0.5023  0.0189
18230THY    CA236517   7.777   6.438   6.211  0.3713 -0.1056  0.4668
18230THY    CP136518   7.834   6.523   6.319 -0.1427  0.2553  0.0216
18230THY    HP136519   7.943   6.507   6.323 -0.1140 -0.3756  0.0616
18230THY    CP236520   7.779   6.473   6.449  0.3883 -1.1278 -0.7638
18230THY    HP236521   7.671   6.458   6.438  0.2698 -1.0489 -0.0019
18230THY    HP336522   7.804   6.539   6.533 -0.6945  0.5607 -2.4130
18230THY    HP436523   7.818   6.375   6.477  2.4788  3.0127  0.9939
18230THY    CP336524   7.827   6.676   6.297 -0.1607  0.5716  0.3473
18230THY    HP536525   7.858   6.701   6.194  2.3392 -0.5976 -5.6530
18230THY    HP636526   7.880   6.737   6.371 -1.8153 -0.4411  3.2128
18230THY    HP736527   7.730   6.722   6.317  0.8561 -0.0264  2.8986
18230THY    CA336528   7.646   6.465   6.164 -0.3445  0.5551  0.2486
18230THY    HA336529   7.583   6.550   6.188 -0.4993 -2.2515  0.9946
18230THY    CA436530   7.585   6.379   6.075 -0.0396  0.1525 -0.0719
18230THY    HA436531   7.486   6.384   6.031 -0.1467  0.2106 -1.3814
18230THY    CA536532   7.654   6.264   6.035  0.6123 -0.2706 -1.2448
18230THY    CM136533   7.582   6.164   5.948 -0.0315  0.2717 -0.4037
18230THY    HM136534   7.512   6.103   6.006  0.2770  1.6812  0.5405
18230THY    HM236535   7.651   6.087   5.912 -0.3080 -0.0862 -0.4848
18230THY    HM336536   7.537   6.214   5.861  0.8255  0.4897  0.7861
18230THY    CA636537   7.779   6.234   6.079 -0.2820  0.2174 -0.3476
18230THY    HA636538   7.836   6.148   6.046  0.3543  1.1108 -0.2832
18231THY      O36539   4.279   5.399   5.228 -0.1845  0.0242  0.3132
18231THY     HO36540   4.223   5.353   5.164  0.2934 -0.3523  0.2441
18231THY    CA136541   4.198   5.451   5.320 -0.1250  0.2336  0.0074
18231THY    CA236542   4.227   5.456   5.461 -0.0750  0.7298 -0.4368
18231THY    CP136543   4.359   5.405   5.514  0.1113  0.2171  0.3699
18231THY    HP136544   4.401   5.319   5.462 -0.1106  1.4889 -0.5359
18231THY    CP236545   4.342   5.351   5.659 -0.0018  0.3571 -0.5088
18231THY    HP236546   4.338   5.425   5.740 -0.2587 -0.1830  0.0789
18231THY    HP336547   4.428   5.284   5.671  2.0323  0.0862  1.8737
18231THY    HP436548   4.250   5.292   5.664 -0.5322 -1.5927  0.0606
18231THY    CP336549   4.470   5.511   5.497 -0.2134 -0.7606 -0.6298
18231THY    HP536550   4.566   5.468   5.529 -0.5410 -1.9435 -2.3555
18231THY    HP636551   4.440   5.605   5.545  0.7893 -1.1500 -0.0863
18231THY    HP736552   4.474   5.533   5.389 -0.7391 -0.6607  0.0033
18231THY    CA336553   4.130   5.532   5.538  0.3926 -0.3128  0.1617
18231THY    HA336554   4.144   5.520   5.645 -0.9380 -0.2871 -1.6389
18231THY    CA436555   4.023   5.616   5.478 -0.2608 -0.1092  0.3351
18231THY    HA436556   3.953   5.676   5.536  1.0815  0.0951  1.7666
18231THY    CA536557   4.005   5.604   5.333  0.0563  0.1658 -0.4352
18231THY    CM136558   3.896   5.682   5.262  0.3524 -0.5088  0.9885
18231THY    HM136559   3.807   5.618   5.269  0.0116  1.4629  1.6098
18231THY    HM236560   3.915   5.698   5.156  2.3523 -0.7631 -2.1961
18231THY    HM336561   3.882   5.774   5.320  3.9463  0.1182  1.2826
18231THY    CA636562   4.092   5.525   5.261 -0.2178  0.0302 -0.0987
18231THY    HA636563   4.085   5.524   5.152 -1.9670  0.0747 -2.5288
18232THY      O36564   7.504   8.575   6.028  0.2524 -0.2291  0.2194
18232THY     HO36565   7.461   8.656   5.996  0.0431 -1.6807 -0.4257
18232THY    CA136566   7.560   8.599   6.140 -0.8660 -0.3881  0.2050
18232THY    CA236567   7.556   8.507   6.251  0.2757  0.3400 -0.3965
18232THY    CP136568   7.495   8.363   6.232 -0.1705 -0.4677  0.4976
18232THY    HP136569   7.528   8.333   6.131  0.1926 -1.0049  2.5184
18232THY    CP236570   7.349   8.374   6.246  0.1432 -0.5490  0.5908
18232THY    HP236571   7.307   8.447   6.176 -1.8297 -0.1975 -0.1554
18232THY    HP336572   7.326   8.413   6.346 -0.6275  0.5262 -2.4158
18232THY    HP436573   7.304   8.278   6.220 -2.2597 -0.1853  1.5598
18232THY    CP336574   7.551   8.252   6.323  0.5944 -0.7118  0.0159
18232THY    HP536575   7.507   8.288   6.417  0.7406 -1.5641  2.6610
18232THY    HP636576   7.661   8.253   6.326  0.6816 -2.5865  0.0150
18232THY    HP736577   7.512   8.156   6.290 -0.4876 -1.7559  0.7899
18232THY    CA336578   7.621   8.551   6.370  0.2682  0.3328 -0.6162
18232THY    HA336579   7.623   8.484   6.456 -1.8367  1.3706  0.5529
18232THY    CA436580   7.678   8.678   6.379 -0.2443 -0.3580 -0.0859
18232THY    HA436581   7.705   8.721   6.476 -0.7208 -0.4963  0.5403
18232THY    CA536582   7.690   8.758   6.269 -0.1345 -0.3667 -0.0024
18232THY    CM136583   7.729   8.898   6.288  0.2462  0.1776 -0.2083
18232THY    HM136584   7.662   8.945   6.360 -0.6944 -1.0964  0.4727
18232THY    HM236585   7.727   8.955   6.194  1.0252 -0.6092 -1.4098
18232THY    HM336586   7.827   8.912   6.336  0.2427 -0.4354  2.5031
18232THY    CA636587   7.637   8.718   6.148  0.6704 -0.2054  0.6762
18232THY    HA636588   7.646   8.786   6.064  2.7827 -0.8905 -0.3370
18233THY      O36589   8.238   8.562   4.242  0.3439  0.1760  0.0798
18233THY     HO36590   8.206   8.643   4.284 -0.4702 -0.0075 -0.1303
18233THY    CA136591   8.192   8.578   4.116 -0.8881  0.9970  0.6054
18233THY    CA236592   8.185   8.466   4.029  0.4533  0.1531  0.0963
18233THY    CP136593   8.230   8.325   4.082 -0.7352 -0.0134 -0.2745
18233THY    HP136594   8.244   8.341   4.189 -2.5121 -0.1823  3.1934
18233THY    CP236595   8.362   8.273   4.013 -0.0153  0.4954  0.1924
18233THY    HP236596   8.397   8.182   4.064  1.0597 -1.7791 -0.7528
18233THY    HP336597   8.430   8.354   4.040 -0.6824  0.7193  0.6870
18233THY    HP436598   8.362   8.257   3.904 -0.1478  0.3716  0.9891
18233THY    CP336599   8.130   8.215   4.067  0.0275  0.1992  1.1629
18233THY    HP536600   8.166   8.133   4.130 -0.7770  2.1385  2.2271
18233THY    HP636601   8.133   8.171   3.967  0.8804  1.4312 -1.8177
18233THY    HP736602   8.028   8.237   4.103  0.3039  3.1837 -1.8117
18233THY    CA336603   8.135   8.489   3.895  0.0764 -0.0261  0.3330
18233THY    HA336604   8.153   8.409   3.825 -0.2346  0.5884 -0.2800
18233THY    CA436605   8.097   8.623   3.865 -0.5919  0.4034  0.6395
18233THY    HA436606   8.071   8.639   3.761  0.5722 -0.0560 -0.2829
18233THY    CA536607   8.095   8.727   3.956  0.0385  0.0915 -0.3455
18233THY    CM136608   8.052   8.863   3.907 -0.7790  0.7031 -0.4858
18233THY    HM136609   8.079   8.871   3.801  0.1269  0.8558 -1.3013
18233THY    HM236610   8.094   8.950   3.958 -0.0713  1.3704 -1.2027
18233THY    HM336611   7.942   8.872   3.909 -0.6201  2.2358  1.9513
18233THY    CA636612   8.141   8.704   4.084  0.1478  0.1306  0.1297
18233THY    HA636613   8.150   8.782   4.159 -1.8960  0.2385  0.3287
18234THY      O36614   5.223   3.779   3.249  0.3701 -0.1867 -0.5484
18234THY     HO36615   5.291   3.797   3.315  0.9693 -1.1097  0.7152
18234THY    CA136616   5.138   3.881   3.264  0.3647 -0.3064  0.4471
18234THY    CA236617   4.995   3.860   3.250  0.1431  0.0188 -0.1255
18234THY    CP136618   4.936   3.730   3.188  0.4215  0.1828 -0.3870
18234THY    HP136619   4.994   3.640   3.210 -0.3853  0.8265 -0.7595
18234THY    CP236620   4.937   3.750   3.037 -0.6874 -0.3552 -0.2049
18234THY    HP236621   4.920   3.652   2.992  0.9507 -1.6086  0.0412
18234THY    HP336622   5.040   3.772   3.007 -0.0445  0.3489 -2.0787
18234THY    HP436623   4.873   3.833   3.005 -0.5804  1.8502  0.8194
18234THY    CP336624   4.794   3.705   3.247  0.3738 -0.4117 -0.2438
18234THY    HP536625   4.765   3.601   3.227 -0.0767 -0.8619 -0.0321
18234THY    HP636626   4.723   3.768   3.193  1.9350 -2.9185 -0.4770
18234THY    HP736627   4.796   3.710   3.357 -0.4829 -0.2395 -2.3115
18234THY    CA336628   4.914   3.976   3.263  0.3484 -1.0367 -0.1576
18234THY    HA336629   4.807   3.969   3.244  0.0590 -0.1345  1.3961
18234THY    CA436630   4.971   4.102   3.293  0.4331 -0.7192  0.4923
18234THY    HA436631   4.903   4.187   3.301 -0.7182 -0.4613 -0.4295
18234THY    CA536632   5.114   4.110   3.310 -0.6103  0.0722 -0.7661
18234THY    CM136633   5.173   4.241   3.352  0.0605  0.8417 -0.2435
18234THY    HM136634   5.252   4.263   3.279  1.3197  1.2692 -2.9530
18234THY    HM236635   5.224   4.230   3.448 -1.0759  1.7319  1.8140
18234THY    HM336636   5.104   4.324   3.368  0.2146  2.8773 -0.4613
18234THY    CA636637   5.197   4.000   3.294 -0.0259 -0.4055  0.7325
18234THY    HA636638   5.304   4.009   3.313  0.1090 -0.6761 -0.1854
18235THY      O36639   2.158   3.376   6.606  0.4956 -0.3020  0.0237
18235THY     HO36640   2.090   3.438   6.638  0.5970 -2.1338  1.1578
18235THY    CA136641   2.158   3.389   6.474 -0.4271  0.0179  0.1332
18235THY    CA236642   2.276   3.370   6.401  0.2309  0.2111  0.0615
18235THY    CP136643   2.405   3.323   6.478 -0.7383  0.1340  0.0254
18235THY    HP136644   2.375   3.266   6.567 -3.8444 -1.3951 -0.9424
18235THY    CP236645   2.491   3.443   6.527 -0.0202 -0.3223  0.4264
18235THY    HP236646   2.523   3.507   6.444 -0.2482  0.8477  2.1174
18235THY    HP336647   2.576   3.412   6.589 -1.0525  0.7354 -0.3843
18235THY    HP436648   2.424   3.514   6.577 -2.3824 -1.7283 -0.6948
18235THY    CP336649   2.494   3.247   6.380  0.1038 -0.6594  0.2046
18235THY    HP536650   2.541   3.322   6.316  0.6240  0.9887  1.3474
18235THY    HP636651   2.438   3.173   6.323  0.4564  1.1507 -1.5591
18235THY    HP736652   2.575   3.192   6.430 -0.6048  0.0405 -0.2245
18235THY    CA336653   2.271   3.387   6.263 -0.5788 -0.4012  0.2555
18235THY    HA336654   2.360   3.373   6.201  0.1076  0.6897 -0.3278
18235THY    CA436655   2.147   3.408   6.196 -0.3276 -0.7388 -0.4689
18235THY    HA436656   2.145   3.413   6.087  1.7141 -0.8265 -0.5898
18235THY    CA536657   2.035   3.445   6.272  0.7868  0.3930  0.3429
18235THY    CM136658   1.903   3.468   6.198  0.5561  0.5715 -0.1385
18235THY    HM136659   1.886   3.378   6.138  0.9072  0.0211  0.1547
18235THY    HM236660   1.915   3.553   6.129 -0.3025  0.8813  0.2554
18235THY    HM336661   1.811   3.466   6.257  0.0002 -0.2816 -1.1846
18235THY    CA636662   2.038   3.426   6.411 -0.4389  0.1703 -0.0208
18235THY    HA636663   1.950   3.440   6.472 -0.6695 -0.5933  2.1429
18236THY      O36664   7.753   4.823   6.365  0.3372  0.0364  0.1709
18236THY     HO36665   7.846   4.845   6.345 -0.7058 -3.4390  2.2842
18236THY    CA136666   7.715   4.753   6.261 -0.6040  0.1157 -0.9649
18236THY    CA236667   7.633   4.640   6.272 -0.0327  0.1779  0.6523
18236THY    CP136668   7.599   4.584   6.406  0.1147  0.3636 -0.2826
18236THY    HP136669   7.587   4.663   6.481  3.3012  1.2246 -0.5124
18236THY    CP236670   7.714   4.492   6.461 -0.4129  0.1320  0.0320
18236THY    HP236671   7.741   4.402   6.405 -1.6483  0.3174 -0.4740
18236THY    HP336672   7.680   4.454   6.558  0.9142  0.6136  0.0470
18236THY    HP436673   7.806   4.548   6.480 -0.2624  3.4746 -1.1148
18236THY    CP336674   7.466   4.500   6.409  0.4290 -0.2745  0.5250
18236THY    HP536675   7.484   4.392   6.401 -1.5253  1.6679 -0.0147
18236THY    HP636676   7.397   4.543   6.335  0.8644  0.8895  3.4655
18236THY    HP736677   7.410   4.510   6.503  0.4719 -0.0787 -0.8827
18236THY    CA336678   7.605   4.569   6.155 -0.0961  0.2996 -0.9772
18236THY    HA336679   7.545   4.480   6.167 -0.3490  0.5974 -0.7683
18236THY    CA436680   7.649   4.620   6.026 -0.6844  0.2247  0.2618
18236THY    HA436681   7.618   4.559   5.941 -3.5544  2.5407 -1.8195
18236THY    CA536682   7.725   4.736   6.011 -0.7068 -0.1786 -0.5125
18236THY    CM136683   7.761   4.785   5.872  0.1227 -0.5129  0.8622
18236THY    HM136684   7.818   4.709   5.817 -0.0928 -1.8880  1.6707
18236THY    HM236685   7.825   4.874   5.867 -0.1853 -0.4606  1.0871
18236THY    HM336686   7.665   4.791   5.820 -0.2665  0.1111  0.1973
18236THY    CA636687   7.768   4.804   6.133 -0.0681 -0.5495 -0.5559
18236THY    HA636688   7.841   4.885   6.133 -0.6332  0.4369 -0.0210
18237THY      O36689   2.069   8.822   4.448  0.4932  0.4239  0.0518
18237THY     HO36690   2.032   8.829   4.359 -0.0026  0.6176 -0.0908
18237THY    CA136691   1.967   8.874   4.521 -0.1432 -0.0189  0.0794
18237THY    CA236692   1.949   8.849   4.659  0.0982  0.6380  0.1542
18237THY    CP136693   2.051   8.771   4.736  0.0736 -0.3619  0.4660
18237THY    HP136694   2.128   8.723   4.675 -0.6592 -0.6491 -0.3537
18237THY    CP236695   1.992   8.651   4.819  0.3715  0.1376 -0.1759
18237THY    HP236696   1.957   8.565   4.761  0.2713  1.7638 -1.2892
18237THY    HP336697   1.910   8.672   4.889 -0.1521 -0.0234 -1.5518
18237THY    HP436698   2.072   8.621   4.888 -0.8739  1.7787  0.1592
18237THY    CP336699   2.110   8.868   4.840  0.2523 -0.1044 -0.2935
18237THY    HP536700   2.029   8.897   4.908  0.3630  0.2983 -0.9103
18237THY    HP636701   2.145   8.962   4.796 -1.2146  1.6495  1.1567
18237THY    HP736702   2.189   8.821   4.900 -0.3420  0.0726 -1.1082
18237THY    CA336703   1.839   8.904   4.729  0.2613  0.1434 -0.1711
18237THY    HA336704   1.817   8.875   4.831  3.5381  0.2643 -2.9676
18237THY    CA436705   1.761   9.001   4.665 -0.0034 -0.7949  0.2388
18237THY    HA436706   1.688   9.053   4.726 -0.2292 -1.2467  0.4521
18237THY    CA536707   1.772   9.022   4.529  0.2370 -0.0349  0.5268
18237THY    CM136708   1.681   9.116   4.451 -0.0128  0.2984 -0.1333
18237THY    HM136709   1.613   9.174   4.515 -0.6197 -1.3866  1.0744
18237THY    HM236710   1.624   9.063   4.374  1.2751  0.8977 -2.5787
18237THY    HM336711   1.741   9.198   4.410  0.2775  1.0394  0.0405
18237THY    CA636712   1.873   8.949   4.456  0.2392  0.1695  0.0822
18237THY    HA636713   1.875   8.958   4.348 -2.6580 -0.1500 -1.6335
18238THY      O36714   2.833   7.811   2.795 -0.0349  0.0556 -0.6027
18238THY     HO36715   2.868   7.859   2.873  2.0056 -0.7516 -0.6752
18238THY    CA136716   2.699   7.850   2.783 -0.2784  0.8789  0.6637
18238THY    CA236717   2.622   7.823   2.668 -0.4095 -0.2909  0.6326
18238THY    CP136718   2.675   7.730   2.551  0.0628 -0.1090 -0.2917
18238THY    HP136719   2.775   7.696   2.579  0.4315 -2.9349 -1.8069
18238THY    CP236720   2.685   7.805   2.425 -0.6555 -0.2462 -0.7562
18238THY    HP236721   2.743   7.897   2.438 -3.5603  0.6440  1.0966
18238THY    HP336722   2.588   7.852   2.406 -0.9902  0.1903 -1.2681
18238THY    HP436723   2.728   7.752   2.339  1.4867  1.4197 -1.8665
18238THY    CP336724   2.593   7.601   2.529 -0.2277 -0.3329 -0.5250
18238THY    HP536725   2.611   7.526   2.607  0.8117  0.7925  0.8572
18238THY    HP636726   2.617   7.564   2.428  1.3372 -0.0633 -0.3293
18238THY    HP736727   2.485   7.618   2.532 -0.2638 -0.8270 -0.6479
18238THY    CA336728   2.488   7.874   2.658 -0.3379  0.0974 -0.2023
18238THY    HA336729   2.428   7.837   2.576 -2.3708  0.1991  2.5140
18238THY    CA436730   2.434   7.946   2.762  0.1480  0.4421  0.2413
18238THY    HA436731   2.329   7.971   2.773  0.6395  4.9458  1.0899
18238THY    CA536732   2.513   7.978   2.867  0.0572  0.2774 -0.7122
18238THY    CM136733   2.456   8.069   2.969 -0.5844  0.4784  0.7193
18238THY    HM136734   2.423   8.164   2.925 -1.9610 -1.1775 -0.4582
18238THY    HM236735   2.524   8.081   3.055 -1.2530  1.4620 -1.8271
18238THY    HM336736   2.366   8.024   3.013 -1.6242  0.2037  2.4459
18238THY    CA636737   2.641   7.926   2.882 -0.0270  0.3507 -0.1908
18238THY    HA636738   2.698   7.953   2.971 -2.3019  0.9162  3.3270
18239THY      O36739   1.254   5.249   5.470  0.8623 -0.3170 -0.0856
18239THY     HO36740   1.231   5.163   5.433  1.1066 -0.2863 -0.1648
18239THY    CA136741   1.345   5.228   5.564  0.3505  0.3165 -0.5629
18239THY    CA236742   1.360   5.323   5.672 -0.1778  0.5865 -0.0882
18239THY    CP136743   1.272   5.449   5.690  0.1145 -0.5007 -0.0150
18239THY    HP136744   1.225   5.469   5.593 -2.2210  0.3512 -1.0319
18239THY    CP236745   1.340   5.575   5.745 -0.4837  0.0959 -0.1556
18239THY    HP236746   1.266   5.654   5.726 -0.0061  0.8104  0.4758
18239THY    HP336747   1.432   5.599   5.691 -1.6429 -1.1890  1.6656
18239THY    HP436748   1.359   5.571   5.853 -0.1390  0.0044 -0.9697
18239THY    CP336749   1.152   5.430   5.783  0.0919 -1.0021  0.4662
18239THY    HP536750   1.077   5.508   5.769  0.8518 -0.2980  1.3470
18239THY    HP636751   1.189   5.430   5.886  0.2089 -1.0280 -0.7891
18239THY    HP736752   1.108   5.331   5.766 -0.0603  2.5228 -0.1883
18239THY    CA336753   1.463   5.308   5.759 -0.5265  0.0121  0.0822
18239THY    HA336754   1.486   5.381   5.837 -1.2708 -0.7635  1.1746
18239THY    CA436755   1.549   5.195   5.747  0.4793 -0.4166 -0.9281
18239THY    HA436756   1.628   5.187   5.821  2.8958 -2.6241  0.8253
18239THY    CA536757   1.532   5.105   5.643  0.2572 -0.0248  1.0491
18239THY    CM136758   1.631   4.983   5.630 -0.3729  0.2877 -0.6534
18239THY    HM136759   1.721   5.007   5.572 -0.6586  0.5074  1.0617
18239THY    HM236760   1.591   4.890   5.587  1.6530 -1.7885 -0.6609
18239THY    HM336761   1.674   4.965   5.729 -2.4996  1.1224 -1.3803
18239THY    CA636762   1.430   5.126   5.552  0.4814  0.3795  0.0115
18239THY    HA636763   1.435   5.063   5.463 -0.4540  1.6606 -1.9958
18240THY      O36764   4.687   7.233   4.580  0.3295 -0.1167 -0.3276
18240THY     HO36765   4.599   7.193   4.591 -1.1983 -0.4005  2.6354
18240THY    CA136766   4.706   7.299   4.699  0.0515 -0.3364  0.0491
18240THY    CA236767   4.748   7.434   4.710 -0.4136  0.9992 -0.7249
18240THY    CP136768   4.779   7.516   4.587 -0.1076 -0.0073  0.1826
18240THY    HP136769   4.804   7.448   4.505 -0.8637  0.2876 -0.4579
18240THY    CP236770   4.906   7.595   4.608 -0.5088  0.3858 -0.0254
18240THY    HP236771   4.896   7.680   4.676 -0.5286 -1.5550  1.6047
18240THY    HP336772   4.947   7.633   4.513 -0.3438  0.1351 -0.8216
18240THY    HP436773   4.987   7.529   4.642 -0.4345  0.6677  0.2071
18240THY    CP336774   4.654   7.599   4.563 -0.4611 -0.3924  0.8510
18240THY    HP536775   4.658   7.667   4.477  1.4596 -2.1898 -1.3631
18240THY    HP636776   4.622   7.661   4.648  0.3550  0.2811  0.3710
18240THY    HP736777   4.571   7.529   4.547 -0.0213  1.1251 -0.0621
18240THY    CA336778   4.743   7.493   4.836 -0.6616 -0.3296  0.2763
18240THY    HA336779   4.769   7.597   4.849  0.1944 -0.6115  0.1081
18240THY    CA436780   4.700   7.414   4.946 -0.1408  0.5151 -0.3720
18240THY    HA436781   4.688   7.462   5.042 -3.6242  0.7972 -1.5064
18240THY    CA536782   4.681   7.275   4.933  0.1725  0.0570  0.1310
18240THY    CM136783   4.643   7.187   5.045  0.6786  0.3774 -0.3338
18240THY    HM136784   4.700   7.224   5.131 -1.1268  1.7104 -0.4949
18240THY    HM236785   4.662   7.081   5.026 -0.7915 -2.6248 -0.1715
18240THY    HM336786   4.538   7.210   5.067  0.4315 -1.3630  0.3410
18240THY    CA636787   4.677   7.212   4.808  0.3285 -0.6014 -0.7041
18240THY    HA636788   4.652   7.107   4.802  0.7761  2.5329 -1.0906
18241THY      O36789   7.316   3.843   7.482  0.5985 -0.5443  0.2837
18241THY     HO36790   7.395   3.879   7.527  1.3248 -1.5024 -0.0724
18241THY    CA136791   7.348   3.830   7.356 -0.3205 -0.0737  0.5033
18241THY    CA236792   7.260   3.780   7.264  0.3646  0.1577 -0.3082
18241THY    CP136793   7.123   3.724   7.308  0.1016  0.3101 -0.6010
18241THY    HP136794   7.102   3.762   7.408  0.4756 -0.6842  2.6042
18241THY    CP236795   7.124   3.573   7.301 -0.0216 -0.1778 -0.5677
18241THY    HP236796   7.028   3.534   7.339 -0.7765 -0.7953  0.6307
18241THY    HP336797   7.201   3.541   7.372  1.2626 -1.1236  0.3143
18241THY    HP436798   7.127   3.535   7.198  2.3710 -0.2952 -0.2078
18241THY    CP336799   7.004   3.781   7.227 -0.0314  0.0720 -0.0944
18241THY    HP536800   7.011   3.759   7.120 -0.9560 -0.1918  0.8616
18241THY    HP636801   7.014   3.889   7.236  1.2790 -1.3874 -0.0647
18241THY    HP736802   6.917   3.731   7.272  0.0995 -0.2089 -0.5818
18241THY    CA336803   7.294   3.777   7.127  0.0879  0.3047  0.0772
18241THY    HA336804   7.228   3.731   7.054 -1.1207 -0.0895  2.3121
18241THY    CA436805   7.409   3.838   7.082 -0.8834  0.6306 -0.7883
18241THY    HA436806   7.444   3.839   6.979  0.4804  1.0681  0.2552
18241THY    CA536807   7.482   3.911   7.174 -0.2461  0.7537 -0.3867
18241THY    CM136808   7.603   3.991   7.131  0.4103 -0.1475 -0.2211
18241THY    HM136809   7.592   4.033   7.031 -0.1675 -0.6007 -1.3977
18241THY    HM236810   7.687   3.921   7.120 -0.0822  1.1958 -1.0658
18241THY    HM336811   7.631   4.074   7.197  0.6421  1.4154 -1.4863
18241THY    CA636812   7.455   3.907   7.307 -0.5009  0.0881  0.8142
18241THY    HA636813   7.528   3.954   7.373  1.4525 -1.0473 -0.4658
18242THY      O36814   2.845   2.061   2.474  0.0695 -0.2268  0.2845
18242THY     HO36815   2.853   2.157   2.460  1.8029  1.8826  0.5208
18242THY    CA136816   2.730   2.033   2.410 -0.4055 -0.7391  0.6278
18242THY    CA236817   2.709   1.899   2.363 -0.5050 -0.4575  0.0053
18242THY    CP136818   2.835   1.810   2.344  0.0390 -0.2062  0.6934
18242THY    HP136819   2.922   1.845   2.400  0.6329  0.0285 -1.0819
18242THY    CP236820   2.879   1.805   2.193  0.4200  0.2102 -0.1066
18242THY    HP236821   2.974   1.752   2.181 -0.0267  0.6311 -1.0162
18242THY    HP336822   2.900   1.897   2.136 -0.0127  0.6762  0.2862
18242THY    HP436823   2.796   1.755   2.142  0.4724 -0.4204  0.4290
18242THY    CP336824   2.805   1.667   2.396  0.1141  1.0611  0.6353
18242THY    HP536825   2.788   1.685   2.502 -0.4810  1.5445 -2.3600
18242THY    HP636826   2.890   1.599   2.390 -0.7502 -0.1082 -0.3845
18242THY    HP736827   2.712   1.615   2.370 -0.6687  2.0108  1.5207
18242THY    CA336828   2.576   1.849   2.332  0.4881  0.4424 -0.0768
18242THY    HA336829   2.556   1.757   2.278 -1.1017 -0.1201  0.5702
18242THY    CA436830   2.467   1.934   2.353 -0.4406 -0.2129 -0.3157
18242THY    HA436831   2.362   1.906   2.344 -1.0168  2.3081  0.7132
18242THY    CA536832   2.494   2.063   2.410 -0.4462  0.8000  0.1356
18242THY    CM136833   2.383   2.161   2.417  0.9535  0.6134 -0.2181
18242THY    HM136834   2.302   2.143   2.345  1.4935  0.2129 -1.1517
18242THY    HM236835   2.425   2.262   2.407  2.4522 -1.6864 -0.9628
18242THY    HM336836   2.326   2.146   2.509 -0.3896 -0.1446  0.0597
18242THY    CA636837   2.624   2.119   2.427  0.0713  0.2068 -0.1143
18242THY    HA636838   2.641   2.217   2.470 -0.4910 -0.6855  0.3959
18243THY      O36839   1.622   2.155   4.150 -0.1141 -0.2249 -0.3070
18243THY     HO36840   1.620   2.251   4.162  0.2877 -1.3327 -0.1517
18243THY    CA136841   1.505   2.119   4.094  0.2834 -0.4411 -0.4845
18243THY    CA236842   1.446   2.002   4.145 -0.0030 -0.3204 -0.3453
18243THY    CP136843   1.521   1.910   4.251  0.2702  0.1923 -0.0805
18243THY    HP136844   1.575   1.977   4.320  0.8944 -0.7194  0.3748
18243THY    CP236845   1.615   1.810   4.184  0.2731 -0.0658  0.1477
18243THY    HP236846   1.632   1.744   4.269 -3.0192  3.2339  3.1035
18243THY    HP336847   1.706   1.864   4.156 -0.8437  0.2354  2.2781
18243THY    HP436848   1.572   1.766   4.093  0.5051  0.2426 -0.7370
18243THY    CP336849   1.422   1.837   4.343 -0.0031 -0.7765  0.0177
18243THY    HP536850   1.482   1.799   4.427 -1.5048  0.1792 -0.3477
18243THY    HP636851   1.368   1.759   4.288 -0.6403  0.4671 -0.4436
18243THY    HP736852   1.363   1.919   4.384  1.1405 -1.4608  1.2319
18243THY    CA336853   1.314   1.973   4.101  0.1621  0.1663 -1.0894
18243THY    HA336854   1.264   1.884   4.140  0.0454 -0.4879 -1.3253
18243THY    CA436855   1.254   2.059   4.003 -0.2817  0.1086 -0.7895
18243THY    HA436856   1.149   2.050   3.976 -0.1879  0.0033 -1.6783
18243THY    CA536857   1.313   2.177   3.959 -0.0462 -0.2188 -0.5953
18243THY    CM136858   1.232   2.265   3.870 -0.3679 -0.5991  0.0163
18243THY    HM136859   1.165   2.328   3.929 -0.6558 -0.0738 -0.7607
18243THY    HM236860   1.168   2.212   3.798 -3.0081  1.8232 -0.2967
18243THY    HM336861   1.300   2.340   3.828 -1.6493  0.1667  1.6618
18243THY    CA636862   1.439   2.208   4.010 -0.5561  0.2121 -0.4997
18243THY    HA636863   1.486   2.296   3.968 -2.2237 -0.4362  0.1315
18244THY      O36864   5.284   2.415   1.877  0.4598  0.2205  0.2551
18244THY     HO36865   5.261   2.320   1.877 -2.3487 -0.9946  0.8294
18244THY    CA136866   5.186   2.476   1.944 -1.3223 -0.0977  0.5459
18244THY    CA236867   5.217   2.574   2.044  0.1705 -0.0768 -0.3489
18244THY    CP136868   5.364   2.607   2.070  0.2215  0.8233  0.1771
18244THY    HP136869   5.417   2.513   2.049 -0.4983  0.1841 -0.0935
18244THY    CP236870   5.389   2.613   2.223 -0.0002  0.4568 -0.3099
18244THY    HP236871   5.341   2.701   2.267  1.2844  0.3934  0.4447
18244THY    HP336872   5.495   2.626   2.248  0.2207 -0.5334 -0.1088
18244THY    HP436873   5.362   2.518   2.269 -0.9853  0.7694  0.1085
18244THY    CP336874   5.418   2.719   1.984  0.5004 -0.3116  0.6345
18244THY    HP536875   5.439   2.682   1.883  0.1980 -0.4224  0.7544
18244THY    HP636876   5.513   2.760   2.019  0.9702  0.0764 -0.7478
18244THY    HP736877   5.347   2.802   1.976  1.3037 -0.0562  1.3590
18244THY    CA336878   5.110   2.633   2.115 -0.1504  0.4452  0.4532
18244THY    HA336879   5.122   2.712   2.188 -1.3996  0.0938  0.9924
18244THY    CA436880   4.979   2.590   2.091 -0.3324 -0.0358 -0.5967
18244THY    HA436881   4.899   2.615   2.160  0.4316  0.5637  0.2862
18244THY    CA536882   4.955   2.493   1.996  0.2566  0.1193  0.8484
18244THY    CM136883   4.821   2.426   1.988 -0.9409  0.5956 -0.6976
18244THY    HM136884   4.742   2.491   2.028  1.3568  0.0339  2.6739
18244THY    HM236885   4.810   2.333   2.045 -3.7791 -0.2628 -0.9709
18244THY    HM336886   4.798   2.405   1.883  0.2225  0.1249  0.2506
18244THY    CA636887   5.058   2.433   1.919  0.4310 -0.2565 -0.2072
18244THY    HA636888   5.040   2.352   1.848 -0.9514 -1.4381  1.0506
18245THY      O36889   6.996   8.012   5.955  0.0463  0.1416  0.3708
18245THY     HO36890   7.037   7.924   5.957 -0.8480 -0.4160 -0.0763
18245THY    CA136891   7.091   8.108   5.942  0.0077 -0.6248  0.1434
18245THY    CA236892   7.059   8.242   5.960  0.9237  0.0640 -0.1823
18245THY    CP136893   6.908   8.281   5.985 -0.3375  0.1927  0.3004
18245THY    HP136894   6.859   8.205   6.048 -0.0494 -0.0469 -0.0888
18245THY    CP236895   6.820   8.292   5.856  0.1341 -0.4274  0.6332
18245THY    HP236896   6.844   8.383   5.800  0.4537 -0.9202  0.2453
18245THY    HP336897   6.714   8.279   5.880  0.0029 -0.0318  2.2425
18245THY    HP436898   6.836   8.206   5.790  2.0610 -1.0080  1.3890
18245THY    CP336899   6.908   8.426   6.041  0.4334  0.5158 -0.3508
18245THY    HP536900   6.924   8.496   5.959 -0.5776  0.7546  0.1800
18245THY    HP636901   6.986   8.431   6.118 -0.1590  1.0455  1.1244
18245THY    HP736902   6.813   8.450   6.089 -1.2699 -2.4128 -0.6908
18245THY    CA336903   7.163   8.340   5.944  0.5043 -0.0391  0.1026
18245THY    HA336904   7.139   8.446   5.951  0.5806 -3.0103  0.4054
18245THY    CA436905   7.292   8.296   5.917 -0.3845 -1.3333  0.3216
18245THY    HA436906   7.364   8.378   5.917 -1.5613 -1.0058  1.3906
18245THY    CA536907   7.320   8.157   5.899 -0.0917 -0.0524 -0.8008
18245THY    CM136908   7.465   8.107   5.886  0.0777 -0.2630 -1.2979
18245THY    HM136909   7.536   8.185   5.855 -0.2240 -0.4510 -1.0919
18245THY    HM236910   7.469   8.031   5.808 -0.6413 -1.8568  0.2283
18245THY    HM336911   7.500   8.071   5.983  0.6659 -0.1370 -0.4379
18245THY    CA636912   7.215   8.063   5.911 -0.0188 -0.1951 -0.2590
18245THY    HA636913   7.230   7.961   5.877 -1.8661 -0.7812 -0.3778
18246THY      O36914   0.331   3.809   4.140 -0.4035  0.3139 -0.1331
18246THY     HO36915   0.346   3.881   4.077 -0.8766  1.1320  0.7004
18246THY    CA136916   0.441   3.786   4.222 -0.1479  0.8643  1.2980
18246THY    CA236917   0.450   3.669   4.305  0.4386  0.3734 -0.4709
18246THY    CP136918   0.348   3.559   4.294 -0.4091 -0.5036  0.4718
18246THY    HP136919   0.263   3.575   4.227 -0.1811 -0.8168  0.3801
18246THY    CP236920   0.300   3.518   4.435  0.1102 -0.6456  0.7226
18246THY    HP236921   0.251   3.603   4.484  0.1825 -0.4541  0.6528
18246THY    HP336922   0.388   3.500   4.497 -0.3636 -0.1484  0.0640
18246THY    HP436923   0.244   3.424   4.436  0.6874  3.6499  0.2390
18246THY    CP336924   0.414   3.429   4.235  0.3690  0.2287 -0.3180
18246THY    HP536925   0.471   3.448   4.144 -0.7734 -0.6464 -0.9143
18246THY    HP636926   0.338   3.355   4.205  0.3289 -3.0680  0.9244
18246THY    HP736927   0.485   3.375   4.299 -1.2434  1.2137 -1.3628
18246THY    CA336928   0.573   3.657   4.372 -0.0314  0.5767 -0.3827
18246THY    HA336929   0.598   3.559   4.413  0.3250 -1.3319 -1.1249
18246THY    CA436930   0.663   3.761   4.374 -0.3594 -0.0024  0.8444
18246THY    HA436931   0.760   3.755   4.423 -0.1292 -0.3941  1.2813
18246THY    CA536932   0.645   3.886   4.309  0.1395  0.2867  0.1948
18246THY    CM136933   0.749   3.995   4.321 -0.0495  0.1618 -0.0751
18246THY    HM136934   0.700   4.089   4.348  1.5695  2.3872  0.2208
18246THY    HM236935   0.800   4.009   4.225 -1.0243 -0.1293  1.7586
18246THY    HM336936   0.814   3.983   4.409  2.4329 -1.4819  0.5853
18246THY    CA636937   0.533   3.892   4.234  0.2019  0.5179  0.3206
18246THY    HA636938   0.504   3.987   4.191 -1.1309  2.9076  1.0740
18247THY      O36939   6.791   0.370   4.460  0.2194  0.0449  0.2026
18247THY     HO36940   6.726   0.392   4.530  2.5554  2.2141  0.7358
18247THY    CA136941   6.903   0.442   4.497  0.9005  0.3927  0.1507
18247THY    CA236942   7.026   0.409   4.445  0.3388 -0.3451 -0.7887
18247THY    CP136943   7.045   0.295   4.328 -0.2321 -0.2481  0.3122
18247THY    HP136944   6.964   0.304   4.255 -0.2428 -0.3758 -0.6964
18247THY    CP236945   7.034   0.159   4.398  0.1449 -0.2787  0.1167
18247THY    HP236946   6.931   0.131   4.424  0.5492 -0.4493 -1.6513
18247THY    HP336947   7.097   0.160   4.488  0.6737 -0.3732 -4.4970
18247THY    HP436948   7.076   0.076   4.340  0.2514  2.0239 -1.5442
18247THY    CP336949   7.184   0.305   4.258  0.1063  0.3328 -0.5786
18247THY    HP536950   7.258   0.287   4.337 -1.9284  2.7225  0.9175
18247THY    HP636951   7.193   0.406   4.217  0.4602  0.0560 -0.7186
18247THY    HP736952   7.201   0.244   4.168 -0.1104 -1.2446  1.5655
18247THY    CA336953   7.141   0.466   4.517  0.2613  0.6334 -0.4001
18247THY    HA336954   7.240   0.430   4.488  0.3177  0.7366 -0.3259
18247THY    CA436955   7.121   0.564   4.617 -0.0459 -0.0682 -0.2703
18247THY    HA436956   7.206   0.606   4.669 -0.5503 -1.5544  2.8633
18247THY    CA536957   6.998   0.604   4.644  0.2868  0.4500 -0.7070
18247THY    CM136958   6.976   0.696   4.761  0.1561  0.0319 -0.0612
18247THY    HM136959   6.944   0.651   4.855  1.7196  0.3921 -0.4895
18247THY    HM236960   6.898   0.766   4.730 -0.1688  1.8478  0.4205
18247THY    HM336961   7.067   0.752   4.785  0.3456  0.0045 -0.3537
18247THY    CA636962   6.889   0.547   4.588 -0.3018 -0.2654 -0.1033
18247THY    HA636963   6.792   0.590   4.613 -0.5260 -2.6545  0.9542
18248THY      O36964   7.472   3.751   4.244  1.0505 -1.1404  0.3893
18248THY     HO36965   7.519   3.813   4.185  2.1736  1.7196  2.4874
18248THY    CA136966   7.475   3.631   4.182  0.5289  0.2211  0.4827
18248THY    CA236967   7.377   3.528   4.209 -0.3527  0.4203 -0.0485
18248THY    CP136968   7.283   3.533   4.330  0.1542 -0.1100  0.7602
18248THY    HP136969   7.254   3.636   4.357 -0.3526  0.8879  0.3698
18248THY    CP236970   7.350   3.479   4.458 -0.3478 -0.4333 -0.0229
18248THY    HP236971   7.286   3.498   4.545  0.2323 -0.3259  1.5952
18248THY    HP336972   7.449   3.524   4.475 -1.3010 -1.5733  2.7134
18248THY    HP436973   7.366   3.371   4.457 -1.9721  0.5229 -0.3065
18248THY    CP336974   7.142   3.455   4.314  0.8452  0.2865  0.1813
18248THY    HP536975   7.091   3.494   4.225 -0.4695  0.6732 -0.6060
18248THY    HP636976   7.078   3.484   4.398 -1.3057 -1.2314  0.0519
18248THY    HP736977   7.158   3.346   4.310  2.4811  2.1825  0.3026
18248THY    CA336978   7.379   3.416   4.128 -0.4547 -0.2764 -0.0822
18248THY    HA336979   7.311   3.333   4.145 -1.2642 -1.1170  0.3889
18248THY    CA436980   7.477   3.401   4.026  0.1194 -0.0055 -0.1660
18248THY    HA436981   7.473   3.310   3.966  2.5193  0.2698 -0.4975
18248THY    CA536982   7.560   3.505   3.992  0.7595  0.2970  0.0318
18248THY    CM136983   7.655   3.492   3.882 -0.0601  0.0831 -0.7985
18248THY    HM136984   7.589   3.470   3.797 -0.8846  0.2320  0.8952
18248THY    HM236985   7.728   3.412   3.893  0.0719  0.6495 -0.6044
18248THY    HM336986   7.688   3.595   3.867 -3.2709  0.6947  0.4648
18248THY    CA636987   7.557   3.625   4.069 -0.0449 -0.0658  0.2571
18248THY    HA636988   7.616   3.713   4.044  1.1266  2.2158  0.1838
18249THY      O36989   8.121   2.503   6.552 -0.0101  0.2565  1.1395
18249THY     HO36990   8.208   2.465   6.530 -0.4039 -0.3981  0.5997
18249THY    CA136991   8.129   2.617   6.481 -0.0003 -0.4326 -0.2540
18249THY    CA236992   8.025   2.711   6.485  0.4625 -0.0398 -0.5479
18249THY    CP136993   7.894   2.677   6.555  0.0260  0.5117 -0.1054
18249THY    HP136994   7.896   2.587   6.617 -1.2625 -1.4528 -1.5637
18249THY    CP236995   7.784   2.664   6.451  0.2303  0.5894  0.4457
18249THY    HP236996   7.686   2.699   6.486  0.2278  3.1706 -1.8053
18249THY    HP336997   7.759   2.560   6.428 -0.2795 -1.2195  0.9355
18249THY    HP436998   7.817   2.712   6.358  0.2517 -0.4942 -1.5523
18249THY    CP336999   7.863   2.792   6.649  0.8750 -0.6115 -0.1317
18249THY    HP537000   7.842   2.880   6.587  2.2100 -1.3755 -0.3202
18249THY    HP637001   7.943   2.810   6.721 -2.0361  2.3080  2.1656
18249THY    HP737002   7.776   2.757   6.706  1.5718  1.1050  0.8235
18249THY    CA337003   8.034   2.837   6.414  1.0376  0.1641  0.3139
18249THY    HA337004   7.952   2.907   6.405 -0.3054 -0.7863 -1.2961
18249THY    CA437005   8.154   2.856   6.345  0.0234  0.0831 -0.9755
18249THY    HA437006   8.164   2.944   6.283 -3.3248 -0.6427 -0.9869
18249THY    CA537007   8.251   2.763   6.342  0.1554  0.4775 -0.6486
18249THY    CM137008   8.378   2.791   6.260  0.1837 -0.0490  0.2305
18249THY    HM137009   8.373   2.887   6.208  1.0006 -1.6298 -0.5468
18249THY    HM237010   8.389   2.713   6.184 -2.6519  1.8165 -2.2330
18249THY    HM337011   8.469   2.777   6.320  0.3088 -0.4998 -1.0411
18249THY    CA637012   8.243   2.646   6.410  0.5515  0.2412  0.6472
18249THY    HA637013   8.321   2.571   6.422 -0.3462  1.1671 -0.1689
18250THY      O37014   6.700   2.575   6.268 -0.1832 -0.1012 -0.0974
18250THY     HO37015   6.690   2.484   6.234 -3.2969 -0.1288  0.1410
18250THY    CA137016   6.713   2.553   6.400 -0.0646  0.0138 -0.6467
18250THY    CA237017   6.773   2.658   6.480 -0.0186 -0.1716  0.0384
18250THY    CP137018   6.809   2.800   6.425 -0.6488  0.0282  0.4056
18250THY    HP137019   6.819   2.793   6.316 -1.8677 -0.0793  0.0246
18250THY    CP237020   6.943   2.851   6.479 -0.4200 -1.1426 -0.1112
18250THY    HP237021   7.013   2.767   6.487  0.2516  2.0945  0.6441
18250THY    HP337022   6.939   2.878   6.585  0.5365 -0.2181 -3.1526
18250THY    HP437023   6.986   2.929   6.415  0.8255  0.1661  0.3106
18250THY    CP337024   6.694   2.898   6.449  0.1345  0.1664  0.3621
18250THY    HP537025   6.677   2.884   6.556  1.1563  0.1755 -0.9873
18250THY    HP637026   6.610   2.888   6.378 -1.7782  2.1061  1.7157
18250THY    HP737027   6.729   3.000   6.434 -1.2174 -1.2131  0.6668
18250THY    CA337028   6.806   2.624   6.616  0.5181 -0.5205 -0.6319
18250THY    HA337029   6.846   2.694   6.689  2.7380 -1.2951 -0.9888
18250THY    CA437030   6.750   2.504   6.668 -0.7064  0.4591  0.6970
18250THY    HA437031   6.761   2.469   6.770 -1.8451 -0.3407 -2.3151
18250THY    CA537032   6.679   2.412   6.589  0.1232  1.1190  0.3253
18250THY    CM137033   6.631   2.275   6.654 -0.2853  0.2855 -0.6596
18250THY    HM137034   6.701   2.226   6.724 -0.3239  0.1711 -0.8819
18250THY    HM237035   6.614   2.205   6.571  0.5892  0.2842 -0.8820
18250THY    HM337036   6.535   2.286   6.705  0.8268  1.9921  2.2243
18250THY    CA637037   6.672   2.429   6.449  0.3390  0.2841  0.2498
18250THY    HA637038   6.620   2.355   6.389 -0.7729  2.4911 -0.8499
18251THY      O37039   8.270   5.334   6.447 -0.4983 -0.3261  0.0817
18251THY     HO37040   8.197   5.392   6.422  1.0855 -0.8391  1.9501
18251THY    CA137041   8.358   5.347   6.345 -0.1317 -0.3935 -0.0508
18251THY    CA237042   8.491   5.309   6.356 -0.6351 -0.1729  0.0134
18251THY    CP137043   8.538   5.254   6.493 -0.0737  0.0946  0.7379
18251THY    HP137044   8.465   5.197   6.551 -0.3331  1.4942  2.4049
18251THY    CP237045   8.587   5.367   6.581  0.6357 -0.0037  0.2504
18251THY    HP237046   8.498   5.429   6.596 -0.3423  1.4306 -1.4000
18251THY    HP337047   8.675   5.410   6.532  0.1867  0.0569  1.2668
18251THY    HP437048   8.618   5.337   6.682  0.8376  0.2228  1.2032
18251THY    CP337049   8.655   5.153   6.488  0.1934  0.3018  0.8115
18251THY    HP537050   8.751   5.191   6.450  0.9461  0.5478 -0.7537
18251THY    HP637051   8.637   5.070   6.419  0.4779  2.9674 -1.5768
18251THY    HP737052   8.666   5.103   6.584 -1.6040  0.6444  1.0372
18251THY    CA337053   8.576   5.313   6.248 -0.6547  0.1194  0.1382
18251THY    HA337054   8.682   5.293   6.263 -1.2031  0.6817 -2.8185
18251THY    CA437055   8.530   5.369   6.129 -0.0698 -0.1275 -0.1825
18251THY    HA437056   8.596   5.388   6.044 -1.4153 -0.6833  2.3620
18251THY    CA537057   8.392   5.398   6.119  0.2347  0.4552  0.3179
18251THY    CM137058   8.338   5.445   5.987 -0.0487  0.3868  0.7939
18251THY    HM137059   8.335   5.370   5.907 -1.1256  0.6916  0.4893
18251THY    HM237060   8.390   5.533   5.947  0.1741 -1.9230 -0.3292
18251THY    HM337061   8.235   5.475   6.011 -0.5310  1.5096 -1.5854
18251THY    CA637062   8.309   5.392   6.227 -0.4881 -0.5165 -0.3810
18251THY    HA637063   8.206   5.425   6.213 -0.3433 -2.9349 -0.7582
18252THY      O37064   6.337   7.892   2.505 -0.3907 -0.4302  0.3324
18252THY     HO37065   6.265   7.840   2.544 -1.7218 -1.5012  1.3013
18252THY    CA137066   6.311   8.023   2.534  0.8055  0.4906 -0.0537
18252THY    CA237067   6.338   8.126   2.446 -0.0680 -0.1220 -0.2948
18252THY    CP137068   6.424   8.102   2.320 -0.0506  0.4386  0.4561
18252THY    HP137069   6.403   7.998   2.292  1.3352  2.3962 -0.3930
18252THY    CP237070   6.572   8.132   2.352 -0.0224  0.1562  0.2410
18252THY    HP237071   6.629   8.090   2.268 -0.1462  0.0106  0.3680
18252THY    HP337072   6.620   8.086   2.439  1.2066 -1.5780 -1.9424
18252THY    HP437073   6.587   8.240   2.344 -0.1170  1.6104  0.3903
18252THY    CP337074   6.382   8.183   2.192  0.0538  0.4056 -0.0344
18252THY    HP537075   6.279   8.156   2.167  0.1239  0.3245 -0.2340
18252THY    HP637076   6.443   8.148   2.107 -0.8153 -1.1952  2.0828
18252THY    HP737077   6.404   8.290   2.206 -0.6899 -2.1421  0.5249
18252THY    CA337078   6.307   8.253   2.480 -0.5524 -0.5732 -0.6585
18252THY    HA337079   6.327   8.335   2.412  0.7070 -0.4599 -0.8561
18252THY    CA437080   6.247   8.280   2.602 -0.0786  1.2463 -0.3006
18252THY    HA437081   6.238   8.382   2.640  1.8802 -0.2057  0.4793
18252THY    CA537082   6.224   8.176   2.691  0.2712 -0.1055 -0.5660
18252THY    CM137083   6.154   8.212   2.826  0.4601 -0.6041  0.0715
18252THY    HM137084   6.149   8.141   2.909  2.0291 -2.3267 -2.2006
18252THY    HM237085   6.048   8.224   2.803  0.8374 -4.1263 -2.0087
18252THY    HM337086   6.194   8.309   2.860 -0.1180 -0.0828  0.1323
18252THY    CA637087   6.253   8.043   2.659  0.1646  0.7836 -0.2296
18252THY    HA637088   6.243   7.965   2.734 -0.3622 -0.5676 -1.5086
18253THY      O37089   1.982   2.654   2.660 -0.0437  0.4650  0.5221
18253THY     HO37090   1.971   2.749   2.640 -1.9242  1.1440  0.4809
18253THY    CA137091   1.868   2.598   2.678  0.1191 -0.4265 -0.6285
18253THY    CA237092   1.841   2.469   2.628  0.4032 -0.6067  0.1701
18253THY    CP137093   1.946   2.387   2.558  0.1344 -0.1240 -0.5383
18253THY    HP137094   2.046   2.428   2.576  1.0180 -1.3776 -1.9962
18253THY    CP237095   1.925   2.402   2.415  0.0790  0.0308 -0.3283
18253THY    HP237096   1.830   2.358   2.383  0.2295 -0.0424 -0.6084
18253THY    HP337097   2.002   2.354   2.353 -1.4971 -1.6065 -0.8602
18253THY    HP437098   1.940   2.506   2.385 -0.9261  1.7340  0.3382
18253THY    CP337099   1.952   2.237   2.597 -0.4144 -0.1621 -0.1899
18253THY    HP537100   2.044   2.186   2.565 -0.1681 -0.1375  0.2333
18253THY    HP637101   1.863   2.182   2.563  0.1483  0.8162 -1.7765
18253THY    HP737102   1.941   2.228   2.706 -0.8361 -0.2006 -0.1930
18253THY    CA337103   1.711   2.427   2.642  0.3365 -1.1472  0.0518
18253THY    HA337104   1.685   2.326   2.609 -0.7910 -1.8740  0.5611
18253THY    CA437105   1.607   2.519   2.681 -0.8006 -0.0583  0.4964
18253THY    HA437106   1.501   2.494   2.682 -1.6893 -1.7443  3.5885
18253THY    CA537107   1.642   2.644   2.734 -0.2236  0.3222 -0.4697
18253THY    CM137108   1.537   2.733   2.796 -0.2331 -0.3572  0.0149
18253THY    HM137109   1.479   2.784   2.719  2.1401 -2.5171 -0.2954
18253THY    HM237110   1.588   2.806   2.860  1.9684 -0.9111 -0.9528
18253THY    HM337111   1.473   2.676   2.864 -1.4555  0.0953  1.8519
18253THY    CA637112   1.775   2.686   2.732 -0.0931 -0.2335  0.4467
18253THY    HA637113   1.811   2.778   2.776 -1.1105  0.5368  0.4923
18254THY      O37114   6.276   4.421   2.862 -0.1546 -0.4929  0.3884
18254THY     HO37115   6.228   4.375   2.792 -1.0458  0.0696  0.4335
18254THY    CA137116   6.295   4.543   2.820 -0.1078  0.8629 -0.7734
18254THY    CA237117   6.402   4.620   2.860 -0.5043 -0.1203 -0.1958
18254THY    CP137118   6.506   4.558   2.965 -0.0787  0.3206  0.5166
18254THY    HP137119   6.451   4.511   3.048 -1.1076  0.0765  1.2450
18254THY    CP237120   6.590   4.663   3.045 -0.2592 -0.4346 -0.3859
18254THY    HP237121   6.673   4.699   2.982  0.4776 -0.2687 -1.7299
18254THY    HP337122   6.630   4.621   3.137 -1.7190 -0.1714 -1.2537
18254THY    HP437123   6.533   4.753   3.070  0.5064  0.0349 -0.0207
18254THY    CP337124   6.609   4.464   2.893 -0.7232 -0.3380 -0.1648
18254THY    HP537125   6.675   4.415   2.965 -0.4021  0.4942  1.4275
18254THY    HP637126   6.682   4.525   2.838  0.1640  0.7015 -0.2583
18254THY    HP737127   6.576   4.389   2.820  1.4767  0.5015 -2.0704
18254THY    CA337128   6.414   4.753   2.821 -0.2657  0.3577 -0.6642
18254THY    HA337129   6.495   4.814   2.861 -0.7282  0.7421 -0.3021
18254THY    CA437130   6.331   4.796   2.715  0.5018  0.1041 -0.1813
18254THY    HA437131   6.348   4.894   2.671  1.8743 -0.7125 -0.7550
18254THY    CA537132   6.223   4.715   2.667  0.9142 -0.5434 -0.2363
18254THY    CM137133   6.121   4.768   2.567 -0.2526 -0.0566  0.3583
18254THY    HM137134   6.046   4.816   2.631  0.9444  1.7954 -0.1341
18254THY    HM237135   6.081   4.686   2.506  2.3723 -0.0164 -1.0736
18254THY    HM337136   6.165   4.837   2.494  1.2086  0.1439 -0.3217
18254THY    CA637137   6.195   4.592   2.729 -0.6194  0.0144 -0.5942
18254THY    HA637138   6.107   4.532   2.712 -1.3131  1.3386 -0.0130
18255THY      O37139   1.111   3.389   5.828  0.6556 -0.2148  0.1633
18255THY     HO37140   1.120   3.309   5.774  1.1888 -0.8655  0.6550
18255THY    CA137141   1.218   3.457   5.805  0.5450 -0.0105 -0.3150
18255THY    CA237142   1.229   3.587   5.858 -0.4856  0.5187  0.1320
18255THY    CP137143   1.137   3.635   5.974 -0.8636 -0.0708 -0.0713
18255THY    HP137144   1.072   3.556   6.012  0.7666  1.4511 -0.7514
18255THY    CP237145   1.044   3.745   5.911  0.0238 -0.0920  0.7342
18255THY    HP237146   1.092   3.806   5.835 -0.1545 -0.4824  0.3924
18255THY    HP337147   0.990   3.795   5.992 -0.6381  0.7406 -1.1988
18255THY    HP437148   0.971   3.689   5.851  1.4575  0.8452 -2.4179
18255THY    CP337149   1.220   3.687   6.094  0.4195 -0.2289  0.2553
18255THY    HP537150   1.311   3.626   6.104  0.2742 -1.1954 -0.1406
18255THY    HP637151   1.169   3.673   6.190  0.9682  0.2025  1.1105
18255THY    HP737152   1.252   3.791   6.082  1.6350  0.4814 -0.0249
18255THY    CA337153   1.343   3.665   5.813  0.2774 -0.1578  0.2670
18255THY    HA337154   1.367   3.761   5.858 -0.7141  0.8733  0.0482
18255THY    CA437155   1.431   3.616   5.713 -0.1170 -0.5907 -0.2569
18255THY    HA437156   1.519   3.673   5.685 -0.3937  1.1547  1.1237
18255THY    CA537157   1.408   3.497   5.653 -1.1486 -0.6170  0.1919
18255THY    CM137158   1.499   3.430   5.558 -0.4338  0.4024  0.4557
18255THY    HM137159   1.479   3.465   5.456  2.2241  0.4771  2.5035
18255THY    HM237160   1.495   3.321   5.553  0.6501  1.0344  0.3721
18255THY    HM337161   1.602   3.453   5.586  0.2986 -0.9803 -0.9811
18255THY    CA637162   1.305   3.414   5.706 -0.3753  0.0937  0.1129
18255THY    HA637163   1.299   3.310   5.675 -1.7859  0.6309  0.0091
18256THY      O37164   1.240   8.876   5.693 -0.1755  0.6490 -0.0024
18256THY     HO37165   1.218   8.821   5.771 -0.6353 -0.2548 -1.1409
18256THY    CA137166   1.131   8.952   5.681 -0.5291  0.6906  0.4144
18256THY    CA237167   1.133   9.057   5.592 -0.7722  0.0553  0.3530
18256THY    CP137168   1.256   9.076   5.498 -0.7451 -0.0579  0.4856
18256THY    HP137169   1.342   9.018   5.532  0.4835 -1.3808  1.4620
18256THY    CP237170   1.297   9.225   5.490 -0.1760 -0.3466  0.2537
18256THY    HP237171   1.390   9.230   5.432 -0.5670 -0.9979  0.1087
18256THY    HP337172   1.304   9.278   5.586 -0.9022  0.5856 -1.2657
18256THY    HP437173   1.216   9.276   5.437  0.2229 -0.8212  0.4036
18256THY    CP337174   1.223   9.033   5.354 -0.0787 -0.4520  0.1901
18256THY    HP537175   1.310   9.030   5.287  1.5157  1.5422 -0.0438
18256THY    HP637176   1.152   9.107   5.315  1.5704 -1.8839  1.1030
18256THY    HP737177   1.166   8.940   5.366  1.6341  3.9174 -0.5402
18256THY    CA337178   1.011   9.123   5.568  0.1292  0.2535  0.7662
18256THY    HA337179   0.996   9.194   5.487  0.5297  1.7453  2.6218
18256THY    CA437180   0.906   9.101   5.647  0.3235  0.0860  0.7058
18256THY    HA437181   0.811   9.151   5.628  1.4708 -2.0973  2.1820
18256THY    CA537182   0.905   9.007   5.751 -0.4122  0.4331  1.0762
18256THY    CM137183   0.785   8.995   5.846  0.5919  0.1135  0.2992
18256THY    HM137184   0.793   8.903   5.905 -0.8511  0.1670  0.1870
18256THY    HM237185   0.688   8.981   5.796  0.2034  1.0563 -0.4394
18256THY    HM337186   0.788   9.075   5.921  0.3486  1.0767 -0.5846
18256THY    CA637187   1.025   8.931   5.766  0.6030  0.0071  1.3342
18256THY    HA637188   1.029   8.856   5.844 -1.8418 -0.9168  0.1459
18257THY      O37189   3.071   5.784   2.476 -0.3853  0.2027 -0.0956
18257THY     HO37190   3.104   5.872   2.501  0.9070 -0.4665 -0.3483
18257THY    CA137191   3.162   5.703   2.529  0.4827 -0.4047  0.5350
18257THY    CA237192   3.148   5.563   2.512 -0.3127  0.6238 -0.1040
18257THY    CP137193   3.072   5.499   2.397 -0.4465  0.3178  0.0432
18257THY    HP137194   3.041   5.565   2.314 -1.2454  0.7078  0.1647
18257THY    CP237195   2.948   5.434   2.466 -0.7030  0.2465 -0.2636
18257THY    HP237196   2.968   5.372   2.554 -1.3150  1.4258  1.1467
18257THY    HP337197   2.879   5.388   2.394 -4.2628  1.7341  2.2694
18257THY    HP437198   2.881   5.512   2.505  0.9693  1.5060  0.5899
18257THY    CP337199   3.149   5.395   2.313  0.3914  0.0247 -0.8195
18257THY    HP537200   3.188   5.311   2.373 -0.2661  0.5449 -0.7648
18257THY    HP637201   3.238   5.442   2.270  1.5256  1.8247 -1.2059
18257THY    HP737202   3.083   5.366   2.230  0.3267 -0.0701 -0.3969
18257THY    CA337203   3.212   5.475   2.605 -0.1100 -0.6898  1.0590
18257THY    HA337204   3.188   5.369   2.602 -1.9065  0.2837  1.3898
18257THY    CA437205   3.297   5.531   2.706 -0.5273  0.2045 -0.2962
18257THY    HA437206   3.351   5.458   2.766  1.1915 -0.3150  0.4888
18257THY    CA537207   3.311   5.668   2.717  0.0923 -0.0421 -0.6825
18257THY    CM137208   3.397   5.724   2.827  0.5995  0.0414 -0.3077
18257THY    HM137209   3.394   5.656   2.912 -0.0588 -0.5711 -1.0532
18257THY    HM237210   3.359   5.820   2.864 -1.4433 -0.1668 -0.9808
18257THY    HM337211   3.502   5.729   2.796  0.7745  0.6613  0.0268
18257THY    CA637212   3.242   5.750   2.631 -0.2697 -1.3175 -0.3377
18257THY    HA637213   3.252   5.857   2.647 -3.0339  0.1206 -0.2180
18258THY      O37214   9.326   1.907   3.949  0.2232  0.2361 -0.3169
18258THY     HO37215   9.368   1.868   3.870 -0.7274 -0.1808 -0.5348
18258THY    CA137216   9.208   1.947   3.914 -0.6636  0.7721  0.5244
18258THY    CA237217   9.128   2.025   3.997 -0.2180 -0.1501 -0.2271
18258THY    CP137218   9.176   2.057   4.141 -0.0978  0.8854 -0.5107
18258THY    HP137219   9.281   2.026   4.155  0.3532 -1.4102 -0.1805
18258THY    CP237220   9.089   1.984   4.247  0.8972 -0.6239 -0.6088
18258THY    HP237221   9.010   2.047   4.290  0.7995 -0.3326 -0.9226
18258THY    HP337222   9.167   1.966   4.322  1.0687 -0.5001  0.5533
18258THY    HP437223   9.042   1.898   4.198  0.5430 -2.3790  0.5289
18258THY    CP337224   9.168   2.207   4.159  0.0219 -0.9762 -0.5679
18258THY    HP537225   9.221   2.266   4.083  1.4796 -0.8666 -1.6944
18258THY    HP637226   9.222   2.230   4.252 -0.2258 -0.2431 -2.7683
18258THY    HP737227   9.071   2.252   4.186 -0.2991 -1.8796 -0.7147
18258THY    CA337228   9.003   2.067   3.941  1.0191  0.1219 -0.7485
18258THY    HA337229   8.935   2.120   4.008 -0.4618  0.0932 -2.5281
18258THY    CA437230   8.962   2.023   3.813 -0.2650 -0.4263  0.4198
18258THY    HA437231   8.861   2.049   3.783 -1.8987  1.7390 -2.7538
18258THY    CA537232   9.040   1.942   3.735  0.4198 -0.4820  0.0019
18258THY    CM137233   8.983   1.889   3.601 -0.2340 -0.2550  0.5346
18258THY    HM137234   8.929   1.969   3.549 -0.5755  2.4157  2.1680
18258THY    HM237235   8.917   1.804   3.621 -0.4703  1.6873  1.1326
18258THY    HM337236   9.063   1.851   3.536  0.8392  0.5928  1.2745
18258THY    CA637237   9.163   1.901   3.785  0.4600 -0.1224 -0.2560
18258THY    HA637238   9.224   1.837   3.721 -0.3997 -0.3583 -0.8629
18259THY      O37239   8.903   8.480   2.257  0.0716  0.3802  0.1621
18259THY     HO37240   8.995   8.498   2.231  0.8344  2.6114 -0.2620
18259THY    CA137241   8.839   8.594   2.294  0.1270 -0.0684  0.0217
18259THY    CA237242   8.699   8.597   2.298  0.3694  0.0264 -0.2754
18259THY    CP137243   8.614   8.479   2.263  0.0205  0.4649 -0.3357
18259THY    HP137244   8.675   8.397   2.223 -1.1227 -0.6356 -0.6826
18259THY    CP237245   8.530   8.510   2.140  0.6838  0.0843  0.0702
18259THY    HP237246   8.495   8.409   2.114  1.5339  0.0419 -0.2198
18259THY    HP337247   8.591   8.544   2.056  0.3267  0.2325  1.1138
18259THY    HP437248   8.442   8.572   2.162 -0.0250 -0.8624 -0.5806
18259THY    CP337249   8.526   8.429   2.370  0.1774 -1.0056  0.5567
18259THY    HP537250   8.590   8.403   2.454  0.3928 -1.1436  0.6425
18259THY    HP637251   8.461   8.344   2.344  2.4827  2.4306 -2.5539
18259THY    HP737252   8.466   8.515   2.402  0.2842 -1.1886  0.7018
18259THY    CA337253   8.639   8.718   2.346  0.5845  0.5612 -0.0463
18259THY    HA337254   8.531   8.721   2.355  0.7344  2.4091  1.7378
18259THY    CA437255   8.718   8.829   2.380 -0.0671 -0.5381  0.1533
18259THY    HA437256   8.672   8.916   2.425 -0.9650  1.9536 -1.5313
18259THY    CA537257   8.856   8.828   2.363 -0.3116  1.0166 -0.2030
18259THY    CM137258   8.937   8.943   2.406  0.2163  0.3922 -0.1830
18259THY    HM137259   8.929   8.969   2.512 -1.1004 -0.0017  1.1061
18259THY    HM237260   8.916   9.032   2.346 -1.0789  2.1776  0.7464
18259THY    HM337261   9.043   8.920   2.386  0.2676  0.2903  0.1307
18259THY    CA637262   8.919   8.705   2.321 -0.3595  0.5222  0.2684
18259THY    HA637263   9.025   8.685   2.309 -0.7306 -1.4691 -0.7478
18260THY      O37264   1.076   6.939   7.001 -0.5386 -0.2618  0.0971
18260THY     HO37265   1.023   6.906   7.075  1.2575  0.3537 -1.6153
18260THY    CA137266   1.180   6.857   6.990  0.3484  0.1618 -0.1861
18260THY    CA237267   1.301   6.892   6.931  0.3342 -0.1997 -0.5048
18260THY    CP137268   1.316   7.035   6.877 -0.6186 -0.1580 -0.0982
18260THY    HP137269   1.227   7.098   6.886 -0.3869 -1.0308  0.3842
18260THY    CP237270   1.349   7.042   6.730  0.3385  0.4372 -0.0620
18260THY    HP237271   1.451   7.009   6.707  0.9778  0.6011  1.6870
18260THY    HP337272   1.345   7.147   6.697  1.6231  0.0647 -0.1040
18260THY    HP437273   1.268   6.982   6.687  0.0255  2.9118 -1.5374
18260THY    CP337274   1.421   7.113   6.951  0.0608 -0.4809 -0.0206
18260THY    HP537275   1.379   7.132   7.050 -0.0067 -0.4711 -0.2191
18260THY    HP637276   1.452   7.205   6.900  0.2918  3.9370  2.6303
18260THY    HP737277   1.513   7.055   6.969  0.1152  0.0772  0.2329
18260THY    CA337278   1.404   6.796   6.927  0.0798  0.2813  1.0769
18260THY    HA337279   1.503   6.822   6.890  0.7037  1.0043 -0.1960
18260THY    CA437280   1.385   6.661   6.974  0.2207 -0.3337  0.0475
18260THY    HA437281   1.475   6.600   6.976  1.3735 -0.6299  1.6705
18260THY    CA537282   1.258   6.622   7.020 -0.5116 -0.1439 -0.3924
18260THY    CM137283   1.243   6.491   7.079  0.3649  0.0103  0.9725
18260THY    HM137284   1.273   6.414   7.007  0.8173  0.8655  0.3401
18260THY    HM237285   1.136   6.481   7.103  0.6223  0.9219  0.3345
18260THY    HM337286   1.312   6.483   7.163  0.6045 -0.2521  0.3039
18260THY    CA637287   1.160   6.721   7.025  0.4602  0.1182  0.3996
18260THY    HA637288   1.063   6.693   7.066  0.2473  0.6251  1.7962
18261THY      O37289   9.120   3.214   3.866 -0.2535 -0.0181  0.2287
18261THY     HO37290   9.109   3.229   3.961 -0.8471  0.2219 -1.4505
18261THY    CA137291   9.226   3.276   3.818  0.6087 -0.1854  0.3407
18261THY    CA237292   9.272   3.237   3.692  0.0425 -0.0559 -0.3684
18261THY    CP137293   9.224   3.102   3.631 -0.2730 -0.2678 -0.2271
18261THY    HP137294   9.125   3.076   3.672  0.0606  1.0212  0.4924
18261THY    CP237295   9.330   2.992   3.637 -0.1630 -0.2843 -0.1892
18261THY    HP237296   9.373   2.969   3.735  0.8302 -0.5646  0.4085
18261THY    HP337297   9.419   3.014   3.577  1.9093  2.8323  0.6798
18261THY    HP437298   9.278   2.900   3.608 -0.3523 -0.1002 -0.1422
18261THY    CP337299   9.198   3.121   3.480 -0.4954 -0.3430  0.7785
18261THY    HP537300   9.175   3.028   3.427 -2.4763  0.6938  0.6213
18261THY    HP637301   9.286   3.167   3.433 -0.3858 -0.0062  0.9219
18261THY    HP737302   9.110   3.183   3.460  0.5087  0.1055  2.4201
18261THY    CA337303   9.379   3.316   3.634 -0.4588  0.0349  0.5315
18261THY    HA337304   9.424   3.282   3.541 -1.3021 -0.2311  0.0992
18261THY    CA437305   9.427   3.427   3.700 -0.9349 -0.4437 -0.1478
18261THY    HA437306   9.506   3.489   3.658 -2.2409 -2.5536  0.1670
18261THY    CA537307   9.394   3.451   3.834  0.6165  0.6256 -0.1514
18261THY    CM137308   9.453   3.570   3.902 -0.3996  0.4536  0.0201
18261THY    HM137309   9.426   3.557   4.007 -2.9221 -0.0725  0.4422
18261THY    HM237310   9.407   3.663   3.866 -1.7376  1.2195 -0.3193
18261THY    HM337311   9.562   3.562   3.893 -0.5087 -0.7868 -0.2703
18261THY    CA637312   9.292   3.376   3.891  0.0593  0.6246 -0.4925
18261THY    HA637313   9.264   3.391   3.995 -0.8269  0.4082 -0.6191
18262THY      O37314   8.733   2.186   4.997 -0.1327 -0.1587  0.2051
18262THY     HO37315   8.756   2.091   5.003  0.6891 -1.2231  0.3194
18262THY    CA137316   8.755   2.196   4.862  0.4273 -0.6091 -1.0293
18262THY    CA237317   8.719   2.309   4.788  0.1401  0.1858 -0.2366
18262THY    CP137318   8.662   2.427   4.863 -0.0329  0.0989 -0.9956
18262THY    HP137319   8.643   2.411   4.970  0.2813  0.1103 -1.3060
18262THY    CP237320   8.533   2.467   4.800  0.2559  0.3125  0.4792
18262THY    HP237321   8.460   2.385   4.794  2.3731 -0.8393 -1.4350
18262THY    HP337322   8.542   2.491   4.694  0.5390 -0.1234 -1.4554
18262THY    HP437323   8.472   2.541   4.854  0.5394  0.2005  0.7946
18262THY    CP337324   8.752   2.555   4.863 -0.7156 -0.1053 -0.2501
18262THY    HP537325   8.700   2.651   4.869  0.7564  1.5674  0.5054
18262THY    HP637326   8.805   2.564   4.767 -2.3674 -1.1981 -1.5256
18262THY    HP737327   8.822   2.556   4.948 -0.2881 -0.4563  0.0976
18262THY    CA337328   8.746   2.298   4.645  0.0227 -0.4227 -0.1164
18262THY    HA337329   8.740   2.392   4.590 -1.1280  0.1576  0.1767
18262THY    CA437330   8.801   2.179   4.586 -0.0826 -0.1933  0.4254
18262THY    HA437331   8.831   2.182   4.482  0.4611 -0.0148  1.8652
18262THY    CA537332   8.844   2.078   4.666 -0.8965 -0.1390 -0.6816
18262THY    CM137333   8.918   1.963   4.610 -0.4684  0.6447 -0.4463
18262THY    HM137334   9.011   1.993   4.559 -0.2016  1.5001  0.2198
18262THY    HM237335   8.860   1.927   4.524 -1.0552  0.8733 -0.0669
18262THY    HM337336   8.935   1.873   4.669  0.8082 -1.7481 -1.8728
18262THY    CA637337   8.816   2.085   4.807  0.0789  0.3733  0.1090
18262THY    HA637338   8.846   1.995   4.861 -0.3756 -1.3713 -1.1435
18263THY      O37339   4.927   5.404   4.553  0.5783 -0.0594 -0.4669
18263THY     HO37340   4.899   5.312   4.543 -2.9985 -1.9332  0.6513
18263THY    CA137341   5.059   5.406   4.564  0.0498 -0.0595 -0.2780
18263THY    CA237342   5.136   5.526   4.590 -0.2626 -0.8196  0.1332
18263THY    CP137343   5.063   5.653   4.618  0.1929 -0.9216  0.3663
18263THY    HP137344   4.963   5.659   4.572  0.2198 -0.9956  0.2435
18263THY    CP237345   5.130   5.783   4.566 -0.9492  0.3222 -0.3062
18263THY    HP237346   5.235   5.789   4.597 -0.6721 -0.6720  0.1004
18263THY    HP337347   5.090   5.876   4.609 -1.4113  0.2034 -0.4445
18263THY    HP437348   5.119   5.776   4.457 -0.8699  0.3505 -0.9406
18263THY    CP337349   5.042   5.679   4.766  0.7065 -0.0992  0.1169
18263THY    HP537350   5.142   5.677   4.811  0.8163 -0.3363  0.2172
18263THY    HP637351   4.983   5.602   4.816  1.3349  1.6899  0.7529
18263THY    HP737352   4.991   5.774   4.782  1.4028  0.2647  0.4371
18263THY    CA337353   5.274   5.518   4.607 -0.1109 -0.4376  0.4584
18263THY    HA337354   5.333   5.603   4.639 -1.8980 -0.4988  1.7718
18263THY    CA437355   5.336   5.393   4.593 -0.0264  0.5712  0.2700
18263THY    HA437356   5.443   5.387   4.612  0.5650 -1.7374  1.9608
18263THY    CA537357   5.267   5.280   4.566  0.3396  0.4286 -0.1242
18263THY    CM137358   5.346   5.144   4.556  0.3621  0.5243  0.4592
18263THY    HM137359   5.451   5.157   4.528  0.4261 -0.7759 -2.2734
18263THY    HM237360   5.298   5.094   4.471  0.8988  0.6329 -0.2466
18263THY    HM337361   5.330   5.094   4.653  0.1215 -0.2424 -1.0110
18263THY    CA637362   5.129   5.284   4.546  0.5228 -0.2146  0.3146
18263THY    HA637363   5.073   5.195   4.519  0.4729 -2.5397  0.9977
18264THY      O37364   0.248   2.197   6.848  0.1143 -0.1000 -0.3925
18264THY     HO37365   0.216   2.156   6.766  2.2544 -0.7434 -0.8835
18264THY    CA137366   0.220   2.334   6.842  0.1412 -0.8001 -0.1829
18264THY    CA237367   0.222   2.418   6.959  0.1341  0.0099 -0.0430
18264THY    CP137368   0.227   2.362   7.097 -0.4943 -0.9387 -0.5306
18264THY    HP137369   0.229   2.253   7.102  0.6058  0.6652 -0.4729
18264THY    CP237370   0.093   2.400   7.170  0.7749 -0.0680 -0.4177
18264THY    HP237371   0.020   2.348   7.106  2.1807 -1.6249 -0.5797
18264THY    HP337372   0.075   2.508   7.167  0.0295 -0.1611 -0.5330
18264THY    HP437373   0.105   2.361   7.271  3.4093 -0.2984 -0.3568
18264THY    CP337374   0.339   2.424   7.183 -0.1329  0.4162  0.2592
18264THY    HP537375   0.326   2.533   7.194 -1.0879 -1.9362  0.4316
18264THY    HP637376   0.435   2.409   7.133 -1.2052 -1.6050 -0.1996
18264THY    HP737377   0.351   2.382   7.284  0.8808 -0.0959 -0.7453
18264THY    CA337378   0.195   2.553   6.939 -0.1175  0.4829 -0.0278
18264THY    HA337379   0.194   2.626   7.019  1.1726  0.1375  0.3953
18264THY    CA437380   0.186   2.603   6.807 -0.1124 -0.6958  0.2260
18264THY    HA437381   0.189   2.707   6.776 -1.0644 -2.2690 -0.1785
18264THY    CA537382   0.185   2.518   6.698  0.5079  0.2004  0.5865
18264THY    CM137383   0.181   2.579   6.562 -0.1551 -0.5630 -0.0614
18264THY    HM137384   0.198   2.688   6.566  0.2060  0.2180 -0.1405
18264THY    HM237385   0.084   2.558   6.516  0.4262 -0.8014 -2.4182
18264THY    HM337386   0.265   2.549   6.498 -0.5192 -0.5056 -1.2550
18264THY    CA637387   0.208   2.383   6.714 -0.4173  0.6286 -0.1564
18264THY    HA637388   0.222   2.322   6.625 -1.2414  0.2118  0.2487
18265THY      O37389   6.962   1.919   5.418 -0.3618 -0.1459 -0.1882
18265THY     HO37390   7.025   1.927   5.492 -0.6626 -0.0811  2.9318
18265THY    CA137391   7.036   1.940   5.314  0.0834  0.6158 -0.6539
18265THY    CA237392   6.992   1.921   5.184 -0.2003  0.8135 -0.0296
18265THY    CP137393   6.849   1.887   5.161 -0.3631 -0.3677  0.3679
18265THY    HP137394   6.798   1.858   5.254  1.0648  1.0285  2.1231
18265THY    CP237395   6.826   1.762   5.081  0.0610  0.2082 -0.0941
18265THY    HP237396   6.890   1.764   4.992  2.5347  1.8898  0.7112
18265THY    HP337397   6.720   1.751   5.055 -0.1546  0.9551  0.1567
18265THY    HP437398   6.856   1.673   5.138  3.3095 -0.6188  0.3661
18265THY    CP337399   6.781   2.007   5.094 -0.5098 -0.5023 -0.4298
18265THY    HP537400   6.676   1.984   5.070 -1.5062  1.1427  1.9851
18265THY    HP637401   6.826   2.038   4.999 -2.0922 -1.7274 -1.6795
18265THY    HP737402   6.790   2.091   5.164 -0.1689  1.2355 -1.8662
18265THY    CA337403   7.082   1.939   5.074 -0.1861 -0.0171 -0.1953
18265THY    HA337404   7.049   1.913   4.974 -0.4307 -0.0398  0.1892
18265THY    CA437405   7.211   1.984   5.096 -0.2936 -0.9675 -0.2083
18265THY    HA437406   7.286   1.991   5.018  0.4828 -0.4176 -1.9203
18265THY    CA537407   7.251   2.009   5.229  0.3547  0.6547  0.0326
18265THY    CM137408   7.393   2.041   5.266  0.1081 -0.3284  0.2363
18265THY    HM137409   7.465   2.000   5.194  0.7566  0.4627 -0.0586
18265THY    HM237410   7.424   1.995   5.361  3.3481 -0.8119  1.2026
18265THY    HM337411   7.410   2.149   5.272 -1.1548 -0.0549  0.4387
18265THY    CA637412   7.162   1.986   5.329 -0.7391 -0.3546  0.3675
18265THY    HA637413   7.196   2.008   5.430  0.9710 -1.1721  1.6758
18266THY      O37414   7.005   6.660   6.665  0.7015 -0.3543 -0.0697
18266THY     HO37415   6.959   6.682   6.748  2.3581  0.7240 -0.4767
18266THY    CA137416   7.050   6.533   6.677 -0.5650  0.8243 -0.7993
18266THY    CA237417   7.115   6.477   6.567 -0.5441  0.2466  0.1302
18266THY    CP137418   7.132   6.557   6.434  0.2437  0.0327  0.8890
18266THY    HP137419   7.096   6.660   6.447 -2.2441  1.6199 -0.0802
18266THY    CP237420   7.043   6.493   6.320 -0.4818 -0.4545  0.2429
18266THY    HP237421   7.058   6.385   6.312 -1.2598 -0.3435  0.1216
18266THY    HP337422   7.045   6.542   6.222 -0.8051 -0.6907 -0.2068
18266THY    HP437423   6.941   6.499   6.361  0.7303  2.6384  2.1243
18266THY    CP337424   7.282   6.539   6.383  0.8909  0.1855 -0.2099
18266THY    HP537425   7.355   6.576   6.455  1.1740  1.5292 -3.0837
18266THY    HP637426   7.285   6.591   6.287 -0.8607  0.5404  0.5912
18266THY    HP737427   7.310   6.434   6.369  0.2594 -0.8167 -0.2576
18266THY    CA337428   7.143   6.343   6.579  0.5463  0.6609  0.5817
18266THY    HA337429   7.185   6.291   6.493 -1.8495 -0.6013  0.5912
18266THY    CA437430   7.130   6.272   6.696  0.3631  0.3461  0.1783
18266THY    HA437431   7.169   6.171   6.707  2.0617  0.0182  0.7824
18266THY    CA537432   7.064   6.332   6.807  0.2609 -0.3959  0.5546
18266THY    CM137433   7.052   6.256   6.940  0.1076 -0.1453 -0.2337
18266THY    HM137434   6.958   6.289   6.987  1.1154  3.2128 -1.6705
18266THY    HM237435   7.127   6.287   7.013 -1.7503  2.2595 -1.0505
18266THY    HM337436   7.039   6.147   6.943  0.9151  2.7320 -0.3484
18266THY    CA637437   7.036   6.469   6.797 -0.5742 -0.4390  0.0859
18266THY    HA637438   7.004   6.530   6.881  1.2414  0.9653 -0.8356
18267THY      O37439   7.241   4.087   2.011  0.2619 -0.1382  0.2503
18267THY     HO37440   7.218   4.057   1.921  0.8493 -0.4050  0.5921
18267THY    CA137441   7.266   4.217   2.002 -0.0851 -0.4726 -0.5148
18267THY    CA237442   7.299   4.293   2.120  0.4222 -0.4346 -0.3535
18267THY    CP137443   7.285   4.230   2.259 -0.5004 -0.6226  0.4110
18267THY    HP137444   7.266   4.122   2.254  1.2755  0.3474  0.0151
18267THY    CP237445   7.163   4.275   2.335  0.1563  0.1915  0.8288
18267THY    HP237446   7.181   4.379   2.367 -1.3851 -1.8847  1.8294
18267THY    HP337447   7.141   4.208   2.419 -0.7573 -0.5800  0.1473
18267THY    HP437448   7.074   4.282   2.271  0.8648 -0.8096  0.9026
18267THY    CP337449   7.416   4.248   2.348 -0.4263  0.1473 -0.3467
18267THY    HP537450   7.406   4.191   2.441 -0.5972  1.1083  1.2066
18267THY    HP637451   7.435   4.352   2.376 -0.8093  1.6420 -0.6640
18267THY    HP737452   7.509   4.207   2.305 -0.2077  0.5548 -0.2822
18267THY    CA337453   7.343   4.428   2.101 -0.3641  0.3639  0.2794
18267THY    HA337454   7.364   4.494   2.185  1.4634 -0.2993  0.6272
18267THY    CA437455   7.330   4.482   1.974 -0.0434  0.8712  0.5775
18267THY    HA437456   7.343   4.589   1.956 -4.0369  0.1131  1.1213
18267THY    CA537457   7.294   4.407   1.866  0.5644  0.1519  1.1253
18267THY    CM137458   7.283   4.473   1.730  0.0885  0.1374  0.2889
18267THY    HM137459   7.375   4.528   1.709 -0.0745 -1.5712 -0.0212
18267THY    HM237460   7.203   4.546   1.717  1.2015  2.3711  2.0106
18267THY    HM337461   7.285   4.393   1.655  0.2939 -0.5591  0.9345
18267THY    CA637462   7.261   4.270   1.875 -0.1376 -0.1774  0.3986
18267THY    HA637463   7.239   4.208   1.789 -1.0539  1.5923 -1.8781
18268THY      O37464   2.642   0.512   4.514 -0.1219  0.2034 -0.4045
18268THY     HO37465   2.604   0.469   4.436  0.4125  0.0267 -0.5707
18268THY    CA137466   2.551   0.612   4.542 -0.7915 -0.2779  0.3380
18268THY    CA237467   2.564   0.694   4.652 -0.7866 -0.1754  0.5726
18268THY    CP137468   2.685   0.676   4.748 -0.1263  0.0268 -0.3460
18268THY    HP137469   2.732   0.580   4.725  0.4869 -0.3710  0.0428
18268THY    CP237470   2.646   0.673   4.898  0.0184  0.1501  0.0312
18268THY    HP237471   2.613   0.774   4.928 -0.3777  0.2230 -0.1167
18268THY    HP337472   2.719   0.637   4.971 -0.4432 -0.1734 -1.6154
18268THY    HP437473   2.566   0.598   4.909 -0.7839 -1.9477  0.5131
18268THY    CP337474   2.798   0.778   4.716 -0.0121 -0.2041 -0.0095
18268THY    HP537475   2.758   0.874   4.752 -1.9192 -2.3293  0.0866
18268THY    HP637476   2.815   0.802   4.610  2.8487 -0.1312 -1.3589
18268THY    HP737477   2.891   0.749   4.765 -0.6961  0.0588 -1.8994
18268THY    CA337478   2.473   0.807   4.675 -0.3591 -0.3053 -0.2194
18268THY    HA337479   2.501   0.890   4.739 -0.6598  0.2699 -0.5609
18268THY    CA437480   2.357   0.811   4.598  0.5548  0.5289  0.4074
18268THY    HA437481   2.276   0.883   4.608 -0.9476  1.7149 -1.3592
18268THY    CA537482   2.343   0.725   4.485 -0.4128  0.0998  0.4785
18268THY    CM137483   2.219   0.734   4.387 -0.0841  0.5025  0.5986
18268THY    HM137484   2.237   0.683   4.292  0.2812 -2.0358  4.9591
18268THY    HM237485   2.186   0.835   4.360 -1.3567  1.3218  0.4296
18268THY    HM337486   2.134   0.690   4.440  0.7263 -0.2761 -2.1088
18268THY    CA637487   2.444   0.630   4.453  0.0030 -0.4490 -0.3393
18268THY    HA637488   2.422   0.549   4.384  1.7347 -1.4818  0.0221
18269THY      O37489   4.152   4.121   7.293  0.0415  0.1509  0.1401
18269THY     HO37490   4.130   4.145   7.201 -3.3670  1.1013  1.1681
18269THY    CA137491   4.070   4.216   7.359 -0.3169  0.5572 -0.0653
18269THY    CA237492   3.978   4.172   7.454  0.8523  0.3730 -0.5993
18269THY    CP137493   3.951   4.030   7.490  0.0796 -0.8611  0.5173
18269THY    HP137494   4.003   3.955   7.429  1.1598  1.7226 -0.9625
18269THY    CP237495   3.804   3.995   7.487 -0.0403 -0.4046 -0.3841
18269THY    HP237496   3.758   4.043   7.399  0.0443  0.9425  2.3780
18269THY    HP337497   3.750   4.043   7.569  0.2691 -1.5261  2.0569
18269THY    HP437498   3.788   3.887   7.496 -0.0144  0.7176 -0.3047
18269THY    CP337499   3.999   4.014   7.632 -0.1067 -0.0181  0.4908
18269THY    HP537500   4.097   4.064   7.633 -0.0657 -0.9770  0.4498
18269THY    HP637501   4.006   3.909   7.661  0.0422  2.0690  1.0434
18269THY    HP737502   3.930   4.051   7.708 -0.1652  0.6247 -0.8797
18269THY    CA337503   3.916   4.268   7.533 -0.1845 -0.5577 -0.2160
18269THY    HA337504   3.869   4.241   7.627 -0.8691 -1.3796 -2.0336
18269THY    CA437505   3.924   4.403   7.499 -0.1320  0.3299  0.1484
18269THY    HA437506   3.864   4.476   7.554  1.0007  1.7073  0.0832
18269THY    CA537507   4.000   4.441   7.387  0.5990 -0.8419 -0.1418
18269THY    CM137508   4.013   4.586   7.362 -0.4092 -0.0348 -0.2344
18269THY    HM137509   4.017   4.612   7.255  2.1957  0.2637  0.9782
18269THY    HM237510   4.097   4.637   7.412  1.4267 -0.5459 -2.5733
18269THY    HM337511   3.927   4.651   7.380 -0.8143 -3.3360  0.3481
18269THY    CA637512   4.081   4.348   7.321  0.8997 -0.2001  0.1239
18269THY    HA637513   4.135   4.389   7.236 -1.9601 -0.3240  4.2970
18270THY      O37514   5.506   9.148   1.987  0.4503 -0.1219 -0.1320
18270THY     HO37515   5.470   9.229   2.026  0.1943 -1.0221  0.2040
18270THY    CA137516   5.614   9.186   1.914  0.1898 -0.2938  0.1603
18270THY    CA237517   5.726   9.106   1.893  0.8093 -1.0157 -0.6240
18270THY    CP137518   5.730   8.965   1.947 -0.0002  0.2125  0.7477
18270THY    HP137519   5.630   8.937   1.981 -0.5074 -1.4474  0.4782
18270THY    CP237520   5.831   8.946   2.062 -0.2442 -0.1620 -0.5109
18270THY    HP237521   5.805   8.877   2.143  1.3937 -0.3900 -1.4565
18270THY    HP337522   5.864   9.041   2.107 -2.9306  1.2892 -0.1689
18270THY    HP437523   5.922   8.903   2.020  1.6788 -0.3222  3.2749
18270THY    CP337524   5.747   8.863   1.832  0.3794  0.0182  0.8312
18270THY    HP537525   5.677   8.886   1.751  1.3226 -0.9013  0.5517
18270THY    HP637526   5.725   8.761   1.866  0.1634  0.9285  1.1654
18270THY    HP737527   5.849   8.858   1.794  0.2085 -0.2728 -1.5539
18270THY    CA337528   5.836   9.164   1.816 -0.5472 -0.4642  0.1445
18270THY    HA337529   5.930   9.110   1.807 -0.7302 -1.4976 -0.0118
18270THY    CA437530   5.830   9.295   1.777 -0.2701  0.1427  0.0035
18270THY    HA437531   5.911   9.338   1.720 -0.0336  0.4789  0.0015
18270THY    CA537532   5.714   9.369   1.796 -0.8727 -0.0993  0.4771
18270THY    CM137533   5.703   9.502   1.728  0.0220  0.4139 -0.2512
18270THY    HM137534   5.768   9.505   1.640 -0.5502 -0.1327 -2.0817
18270THY    HM237535   5.729   9.586   1.793 -0.1229 -0.8430  0.7966
18270THY    HM337536   5.606   9.517   1.679  0.5990 -0.5941  0.2725
18270THY    CA637537   5.608   9.311   1.862  0.1006 -0.0835 -0.4851
18270THY    HA637538   5.512   9.363   1.871  0.3237 -1.0210  0.1199
18271THY      O37539   3.819   6.791   7.348  0.0172  0.4739  0.2962
18271THY     HO37540   3.796   6.877   7.385 -0.9920  2.3636 -0.7127
18271THY    CA137541   3.933   6.773   7.419  0.2551 -0.3261  0.3824
18271THY    CA237542   4.033   6.681   7.368 -0.5060 -0.6469 -0.2350
18271THY    CP137543   4.017   6.630   7.224 -0.2486 -0.1537 -0.1018
18271THY    HP137544   3.914   6.637   7.189  0.1051 -0.9907  1.1758
18271THY    CP237545   4.062   6.481   7.224 -0.3592  0.2116 -0.5101
18271THY    HP237546   4.170   6.467   7.218 -0.4079 -0.5783 -0.6206
18271THY    HP337547   4.021   6.436   7.133  1.2390 -0.5386 -0.5101
18271THY    HP437548   4.020   6.432   7.312  0.0154  0.2959 -0.6741
18271THY    CP337549   4.107   6.719   7.131  0.3731 -0.6571 -0.2396
18271THY    HP537550   4.202   6.748   7.177 -0.5061  0.9619  0.2098
18271THY    HP637551   4.056   6.812   7.104 -0.5904  0.0710 -0.5422
18271THY    HP737552   4.130   6.670   7.036  1.4403  0.4466 -2.0275
18271THY    CA337553   4.154   6.664   7.440 -0.4254  1.3195  0.2019
18271THY    HA337554   4.230   6.604   7.391 -1.1895 -2.2906  1.9031
18271THY    CA437555   4.167   6.724   7.557  0.3689  0.1650 -0.8881
18271THY    HA437556   4.257   6.700   7.613  1.3288 -0.3695  1.1988
18271THY    CA537557   4.068   6.810   7.615 -0.3161  0.0344 -0.0947
18271THY    CM137558   4.100   6.862   7.751 -0.5446  1.2006  0.0843
18271THY    HM137559   4.078   6.969   7.754  2.1140 -1.1915  0.8321
18271THY    HM237560   4.206   6.845   7.773  0.0591 -1.6033 -0.3239
18271THY    HM337561   4.045   6.818   7.835 -1.3574  0.3663 -0.5245
18271THY    CA637562   3.956   6.836   7.539  0.1576  0.3215 -0.7296
18271THY    HA637563   3.875   6.898   7.577 -0.0097  0.3137 -0.9426
18272THY      O37564   1.832   6.569   2.606  0.5803 -0.1473 -0.1269
18272THY     HO37565   1.923   6.536   2.594  0.8189  0.0070  0.4483
18272THY    CA137566   1.775   6.473   2.678 -0.0438  1.1263 -0.7482
18272THY    CA237567   1.677   6.506   2.770  1.2479  0.1191  0.7796
18272THY    CP137568   1.624   6.649   2.790  0.7944 -0.3278 -0.3718
18272THY    HP137569   1.657   6.709   2.704  1.1362 -0.7386 -1.1478
18272THY    CP237570   1.678   6.695   2.922 -0.0677  0.5985  0.1136
18272THY    HP237571   1.787   6.699   2.929 -0.1226  1.4709  0.5095
18272THY    HP337572   1.634   6.638   3.005 -0.3276  0.5093  0.1810
18272THY    HP437573   1.633   6.795   2.934  0.1141 -0.7091  0.3654
18272THY    CP337574   1.469   6.659   2.784 -0.1433  0.1214 -0.2966
18272THY    HP537575   1.423   6.614   2.874 -2.4013  0.4328  2.3589
18272THY    HP637576   1.435   6.610   2.692  0.4250  0.0677 -0.6019
18272THY    HP737577   1.442   6.765   2.795  1.9978 -0.6973  0.3676
18272THY    CA337578   1.614   6.400   2.845 -0.2129 -0.1528 -0.5572
18272THY    HA337579   1.538   6.425   2.919  0.0086 -0.3184  0.6861
18272THY    CA437580   1.657   6.269   2.829 -0.1574  0.3791  0.2146
18272THY    HA437581   1.609   6.190   2.886  1.0929 -1.1418 -1.7212
18272THY    CA537582   1.775   6.247   2.748  0.0090  0.1546 -0.0856
18272THY    CM137583   1.812   6.103   2.734  0.6565  0.6269 -0.1845
18272THY    HM137584   1.896   6.089   2.665 -0.8455 -1.0663 -1.1285
18272THY    HM237585   1.727   6.040   2.707  1.6010 -2.5592 -0.2397
18272THY    HM337586   1.836   6.061   2.832 -0.4405  1.6577  1.4665
18272THY    CA637587   1.826   6.343   2.662 -0.3616  0.5930 -1.1748
18272THY    HA637588   1.907   6.330   2.591  0.3686  1.3123 -0.5764
18273THY      O37589   7.450   2.764   4.131 -0.1140 -0.1139  0.3808
18273THY     HO37590   7.470   2.698   4.062 -0.0224  1.0358 -0.8307
18273THY    CA137591   7.522   2.872   4.099 -0.1770 -0.3478 -0.5752
18273THY    CA237592   7.548   2.974   4.191 -0.4963 -0.7626 -0.4930
18273THY    CP137593   7.499   2.976   4.337 -0.8350 -0.3899 -0.3123
18273THY    HP137594   7.425   2.898   4.358 -0.3591 -2.2145 -1.3089
18273THY    CP237595   7.414   3.104   4.358 -0.5659 -0.0378 -0.4058
18273THY    HP237596   7.455   3.193   4.310 -1.0789 -2.7508 -1.5490
18273THY    HP337597   7.409   3.126   4.465 -0.8788 -0.1794  0.2117
18273THY    HP437598   7.320   3.085   4.305 -0.5501 -0.1354 -0.2059
18273THY    CP337599   7.607   2.967   4.442 -0.2851  0.2140 -0.9772
18273THY    HP537600   7.661   3.062   4.429 -1.8023 -1.6830 -0.3059
18273THY    HP637601   7.673   2.881   4.428  1.1426 -0.6663  0.2035
18273THY    HP737602   7.569   2.969   4.545  1.1937  0.8815  3.1882
18273THY    CA337603   7.636   3.077   4.148 -0.2940  0.4357 -0.1261
18273THY    HA337604   7.657   3.163   4.211 -2.6319  0.3592  0.5593
18273THY    CA437605   7.688   3.077   4.019  0.0202  0.1091 -0.3058
18273THY    HA437606   7.768   3.147   3.996 -0.4965  0.7340  0.4994
18273THY    CA537607   7.658   2.976   3.929  0.3524 -0.1818 -0.5520
18273THY    CM137608   7.711   2.977   3.786  0.8011 -0.2624 -0.2110
18273THY    HM137609   7.820   2.971   3.781  1.0380  1.1214  1.9325
18273THY    HM237610   7.691   3.072   3.734  5.3989  2.0258  2.3078
18273THY    HM337611   7.666   2.900   3.722 -1.2885 -2.9039  2.9258
18273THY    CA637612   7.576   2.872   3.963  0.8162  0.5289  0.0894
18273THY    HA637613   7.544   2.798   3.890 -1.4761  0.0956  1.4021
18274THY      O37614   1.127   5.435   7.258 -0.4449 -0.1445 -0.4406
18274THY     HO37615   1.093   5.525   7.269 -0.9474 -2.2772 -0.3134
18274THY    CA137616   1.025   5.350   7.259 -0.1406 -0.7688  0.4473
18274THY    CA237617   1.027   5.232   7.187  0.3324 -0.1601  0.8896
18274THY    CP137618   1.138   5.205   7.089  0.2565  0.3606  0.3414
18274THY    HP137619   1.205   5.290   7.074 -0.7943 -0.3863  1.0643
18274THY    CP237620   1.090   5.187   6.951 -0.3677  0.5646 -0.1859
18274THY    HP237621   1.174   5.147   6.893 -0.2360 -0.7490  1.8537
18274THY    HP337622   1.061   5.283   6.906 -1.9274  1.9987  0.0639
18274THY    HP437623   1.008   5.114   6.939 -0.1590 -0.1613 -0.3115
18274THY    CP337624   1.223   5.097   7.143  0.2151 -0.2984 -0.3038
18274THY    HP537625   1.161   5.007   7.152  0.9723 -1.2687 -0.9443
18274THY    HP637626   1.256   5.120   7.245  2.0079 -0.8326 -0.3130
18274THY    HP737627   1.310   5.084   7.078  1.6077  0.5895  3.3757
18274THY    CA337628   0.915   5.146   7.203 -0.6860  0.0953 -0.1774
18274THY    HA337629   0.911   5.057   7.141 -1.1204  0.0994 -0.1633
18274THY    CA437630   0.816   5.168   7.292  0.4857 -0.2979 -0.6538
18274THY    HA437631   0.736   5.098   7.312  0.6615  2.7850 -0.0862
18274THY    CA537632   0.817   5.282   7.369  0.8556  0.3932 -0.0296
18274THY    CM137633   0.719   5.308   7.470 -0.0840  0.2845 -0.5426
18274THY    HM137634   0.739   5.262   7.567  3.5028 -0.1958 -0.2413
18274THY    HM237635   0.622   5.261   7.450 -0.8686 -0.1841  1.1888
18274THY    HM337636   0.696   5.415   7.470 -0.0322  1.9833 -0.5154
18274THY    CA637637   0.918   5.376   7.347  0.4507  0.0454  0.0848
18274THY    HA637638   0.912   5.456   7.420 -1.4858  2.0716 -1.7533
18275THY      O37639   4.507   8.647   3.363 -0.8098 -0.1567  0.1411
18275THY     HO37640   4.561   8.614   3.289 -1.3431  0.5349 -2.5054
18275THY    CA137641   4.460   8.537   3.428  0.2037 -0.3410 -0.5002
18275THY    CA237642   4.337   8.539   3.500 -0.2893 -0.5312 -0.2548
18275THY    CP137643   4.258   8.669   3.521 -0.3770 -0.6465  0.3769
18275THY    HP137644   4.253   8.728   3.428 -0.1114 -0.9243 -0.0349
18275THY    CP237645   4.325   8.752   3.623  0.4288  0.5330 -0.2079
18275THY    HP237646   4.261   8.836   3.653  0.0798 -1.3630  0.2491
18275THY    HP337647   4.412   8.795   3.573  2.7031  2.3276 -2.4226
18275THY    HP437648   4.349   8.685   3.706 -2.3635 -0.1697 -2.2775
18275THY    CP337649   4.110   8.649   3.562 -0.5836  0.4261  0.8487
18275THY    HP537650   4.098   8.600   3.660 -1.3888  1.3189  2.7218
18275THY    HP637651   4.069   8.581   3.487  0.5771 -0.1880  0.7924
18275THY    HP737652   4.063   8.748   3.570  0.4917  1.1435  1.3292
18275THY    CA337653   4.292   8.420   3.567  0.3851 -0.4300 -0.2726
18275THY    HA337654   4.203   8.417   3.630  0.5888 -0.0952  0.3399
18275THY    CA437655   4.367   8.310   3.565  0.2962  1.0199 -0.0222
18275THY    HA437656   4.345   8.216   3.614  0.3046 -1.8843 -1.6601
18275THY    CA537657   4.480   8.307   3.480 -0.5267  0.4021 -0.3956
18275THY    CM137658   4.558   8.189   3.457 -0.2051  0.4573 -0.3480
18275THY    HM137659   4.513   8.124   3.381 -3.5142  0.5350  1.6144
18275THY    HM237660   4.556   8.121   3.543  0.6868 -1.8727 -3.5755
18275THY    HM337661   4.662   8.210   3.429 -0.1775  1.0603  0.3514
18275THY    CA637662   4.528   8.419   3.414  0.0046 -0.2183 -0.8151
18275THY    HA637663   4.618   8.412   3.353  0.7876  0.9351 -1.0693
18276THY      O37664   0.824   8.133   1.884 -0.0944 -0.2926 -0.0461
18276THY     HO37665   0.910   8.170   1.857  0.1941 -0.1990 -0.6386
18276THY    CA137666   0.847   8.012   1.943 -0.8265 -0.2780  0.4664
18276THY    CA237667   0.744   7.919   1.927  0.1731 -0.4332  0.5485
18276THY    CP137668   0.628   7.945   1.830  0.1641  0.3594  0.2758
18276THY    HP137669   0.661   8.006   1.745 -0.2632 -1.1754 -1.5527
18276THY    CP237670   0.522   8.012   1.919  0.2403 -0.1029  0.2396
18276THY    HP237671   0.432   8.051   1.870  0.9712  0.9094  3.5196
18276THY    HP337672   0.570   8.097   1.968  2.1423 -0.3661 -0.6258
18276THY    HP437673   0.481   7.956   2.004 -0.8086  1.3909  3.0816
18276THY    CP337674   0.563   7.827   1.763 -0.4068  0.1816 -0.2126
18276THY    HP537675   0.500   7.872   1.685 -0.4217  1.9477  3.1880
18276THY    HP637676   0.495   7.768   1.826  0.5970 -0.4611 -2.1525
18276THY    HP737677   0.634   7.758   1.716 -1.0477  0.1102 -0.8374
18276THY    CA337678   0.751   7.804   2.009  0.0294 -0.6253  0.1551
18276THY    HA337679   0.672   7.730   1.998  0.1175  2.2185 -0.4582
18276THY    CA437680   0.865   7.787   2.101 -0.3395  0.9827  0.4169
18276THY    HA437681   0.862   7.699   2.165 -1.4457  0.4940  0.0842
18276THY    CA537682   0.974   7.877   2.100  0.2996 -0.6245  0.3149
18276THY    CM137683   1.092   7.863   2.182 -0.8767 -0.1032 -0.3579
18276THY    HM137684   1.111   7.935   2.263  0.9753  0.2454 -1.1734
18276THY    HM237685   1.181   7.868   2.117 -0.6078 -0.0728 -3.1965
18276THY    HM337686   1.093   7.764   2.227 -0.7312 -1.2754 -0.9090
18276THY    CA637687   0.963   7.991   2.017  0.7649  0.2849  0.0710
18276THY    HA637688   1.044   8.063   2.016  0.5565  1.5522  0.3470
18277THY      O37689   6.654   5.742   3.442 -0.0448  0.4271  0.6166
18277THY     HO37690   6.606   5.732   3.526 -1.0574 -0.3287 -1.5518
18277THY    CA137691   6.582   5.676   3.351 -0.2094  0.4264 -0.0959
18277THY    CA237692   6.631   5.618   3.235 -0.5597  0.2890 -0.2151
18277THY    CP137693   6.785   5.614   3.208  0.6678  0.7472  0.0596
18277THY    HP137694   6.836   5.689   3.268  1.3527 -1.0972  1.1375
18277THY    CP237695   6.817   5.648   3.064  0.3600 -0.7123 -0.4798
18277THY    HP237696   6.745   5.719   3.023 -0.4091 -0.8576 -1.3248
18277THY    HP337697   6.824   5.562   2.997  2.6206  0.4003 -1.2550
18277THY    HP437698   6.917   5.693   3.057  2.2291  2.0428 -3.6890
18277THY    CP337699   6.838   5.475   3.246 -0.1201 -0.3115 -0.4548
18277THY    HP537700   6.772   5.397   3.206 -0.5808 -0.9166  0.2265
18277THY    HP637701   6.847   5.473   3.355 -0.0774 -0.2624  1.2513
18277THY    HP737702   6.937   5.449   3.207  0.4512  1.8525 -1.8018
18277THY    CA337703   6.539   5.560   3.143  0.3737 -0.0318 -0.3447
18277THY    HA337704   6.573   5.519   3.048 -1.9455 -0.5115 -1.3290
18277THY    CA437705   6.398   5.571   3.163 -0.7933  0.5688  1.0077
18277THY    HA437706   6.327   5.533   3.091  0.3066 -0.0827  0.1118
18277THY    CA537707   6.357   5.619   3.286 -0.9405 -0.1206 -0.3338
18277THY    CM137708   6.214   5.613   3.332  0.6751  0.1469 -0.6332
18277THY    HM137709   6.137   5.667   3.276  2.1193  0.3068  1.7400
18277THY    HM237710   6.195   5.659   3.430 -1.6974 -1.0011  1.0056
18277THY    HM337711   6.174   5.511   3.329 -0.1020  0.1981 -0.3321
18277THY    CA637712   6.451   5.676   3.377 -0.3262 -0.1182 -0.1190
18277THY    HA637713   6.421   5.737   3.462  1.0926  0.3829 -0.0717
18278THY      O37714   6.239   6.973   3.305  0.0236 -0.2888 -0.2479
18278THY     HO37715   6.206   6.883   3.289  0.8664  0.4828 -0.7141
18278THY    CA137716   6.360   6.947   3.352 -0.5350  0.3902  0.0624
18278THY    CA237717   6.463   7.039   3.351 -0.5835  0.4087  0.0522
18278THY    CP137718   6.461   7.148   3.250  0.7815 -0.3828 -0.1381
18278THY    HP137719   6.366   7.159   3.196  2.3496 -3.1380  1.0626
18278THY    CP237720   6.558   7.114   3.142 -0.2908 -0.4034 -0.0482
18278THY    HP237721   6.662   7.096   3.173 -0.6913  0.6011 -0.6864
18278THY    HP337722   6.558   7.190   3.063 -1.7107  0.0644  0.4660
18278THY    HP437723   6.514   7.024   3.097 -0.6060  1.1876 -0.7245
18278THY    CP337724   6.477   7.286   3.314  0.3979  0.0712  0.1252
18278THY    HP537725   6.579   7.300   3.349 -0.0483  0.9186  1.4419
18278THY    HP637726   6.407   7.292   3.399  0.0453 -0.0682 -1.3643
18278THY    HP737727   6.449   7.364   3.242 -0.5513  0.0272 -0.2390
18278THY    CA337728   6.582   7.002   3.419  0.6438  0.1636 -0.0570
18278THY    HA337729   6.671   7.064   3.409  0.3532 -0.1664  0.3114
18278THY    CA437730   6.596   6.882   3.485  0.2898 -0.4382 -0.1658
18278THY    HA437731   6.690   6.860   3.534  0.3536 -1.1337 -1.6016
18278THY    CA537732   6.498   6.786   3.482  0.1384 -0.2950 -0.0159
18278THY    CM137733   6.516   6.657   3.555 -0.6343 -0.3740 -0.6038
18278THY    HM137734   6.522   6.688   3.660 -0.8975 -1.1156  2.2445
18278THY    HM237735   6.610   6.612   3.522 -0.2073  1.8827 -1.5429
18278THY    HM337736   6.435   6.583   3.546 -1.0988 -0.2877 -0.1165
18278THY    CA637737   6.375   6.821   3.418 -0.2122  0.2412  0.7778
18278THY    HA637738   6.297   6.746   3.412  1.4370 -0.5055 -0.9622
18279THY      O37739   5.446   6.922   7.501  0.0151  0.3246 -0.2698
18279THY     HO37740   5.414   7.012   7.519 -0.4110 -0.8009 -0.1801
18279THY    CA137741   5.371   6.839   7.582  0.4011  0.0016  0.1235
18279THY    CA237742   5.365   6.699   7.554 -0.2701  0.3614 -0.4494
18279THY    CP137743   5.430   6.643   7.427 -0.0104  0.2500 -0.0950
18279THY    HP137744   5.523   6.700   7.414 -0.2214  2.5210  0.8656
18279THY    CP237745   5.341   6.674   7.298  0.6919  0.9978  0.2610
18279THY    HP237746   5.389   6.664   7.200  2.4658  1.8419  0.2535
18279THY    HP337747   5.318   6.781   7.303  2.1759  0.8512  0.6048
18279THY    HP437748   5.250   6.612   7.300  1.6164  1.0384 -1.1321
18279THY    CP337749   5.467   6.498   7.429 -0.1194  0.1185  0.4726
18279THY    HP537750   5.543   6.479   7.505  0.9393 -0.9884  0.1792
18279THY    HP637751   5.513   6.466   7.335 -1.9462 -0.5514 -0.3590
18279THY    HP737752   5.377   6.435   7.443 -0.5036 -1.3046  0.6675
18279THY    CA337753   5.292   6.615   7.641 -0.6408  0.1452 -0.0334
18279THY    HA337754   5.293   6.506   7.639  0.6477  2.1857 -0.0998
18279THY    CA437755   5.222   6.672   7.747  0.4355  0.6532 -0.0120
18279THY    HA437756   5.168   6.605   7.813  0.5208 -0.7029 -1.4705
18279THY    CA537757   5.220   6.810   7.771  0.0715  0.0533 -0.3044
18279THY    CM137758   5.147   6.866   7.896 -0.1969  0.4879 -0.3110
18279THY    HM137759   5.199   6.825   7.984 -1.3910  1.5955  0.4727
18279THY    HM237760   5.050   6.815   7.902 -0.7575  0.2999  0.6995
18279THY    HM337761   5.134   6.974   7.904  0.1631  2.3420 -0.3683
18279THY    CA637762   5.294   6.893   7.682 -0.0074  0.0791  0.5761
18279THY    HA637763   5.279   7.000   7.700 -0.8441  0.7440  0.3600
18280THY      O37764   3.785   3.399   3.145  0.7950  0.2754 -0.1808
18280THY     HO37765   3.835   3.336   3.090 -1.0039 -1.2881 -0.3138
18280THY    CA137766   3.785   3.499   3.058  0.5610  0.2369 -0.1041
18280THY    CA237767   3.674   3.590   3.041  1.0282 -0.3769  0.2906
18280THY    CP137768   3.558   3.566   3.129  0.5672  0.7106  0.2456
18280THY    HP137769   3.598   3.534   3.226  1.9735  0.6724  1.7774
18280THY    CP237770   3.465   3.457   3.082  0.8116  0.2469  0.1568
18280THY    HP237771   3.378   3.439   3.147  0.5952 -0.5339 -1.8584
18280THY    HP337772   3.514   3.360   3.067 -0.5185  0.3634 -0.5614
18280THY    HP437773   3.421   3.487   2.987  1.2330  0.6084  2.0349
18280THY    CP337774   3.482   3.694   3.163  0.0879  0.2663 -0.1068
18280THY    HP537775   3.436   3.662   3.257  0.7253 -0.3641 -3.2421
18280THY    HP637776   3.406   3.726   3.090 -0.1780  0.0064 -1.2965
18280THY    HP737777   3.560   3.769   3.181  0.1420 -1.7723  0.3870
18280THY    CA337778   3.686   3.689   2.945  1.2028 -0.0552  0.4580
18280THY    HA337779   3.597   3.748   2.927  0.2777  1.2658 -0.4434
18280THY    CA437780   3.802   3.700   2.871 -0.8358  0.3788 -0.5764
18280THY    HA437781   3.824   3.778   2.799 -1.9015 -0.9574 -1.4674
18280THY    CA537782   3.912   3.612   2.896  0.5589 -0.2588 -0.2621
18280THY    CM137783   4.051   3.632   2.829 -0.2501 -0.7664 -0.1591
18280THY    HM137784   4.052   3.588   2.729 -0.8805 -0.9816  0.3080
18280THY    HM237785   4.124   3.573   2.884 -1.1478  0.9009  0.2197
18280THY    HM337786   4.092   3.734   2.828 -1.7913  1.9081  0.5862
18280THY    CA637787   3.904   3.509   2.990 -0.0720  0.2549  0.3657
18280THY    HA637788   3.993   3.454   3.019  0.9055 -2.2204  0.5267
18281THY      O37789   6.909   6.519   5.685 -0.0354 -0.0172  0.1441
18281THY     HO37790   6.942   6.441   5.638 -0.0308 -0.9668  0.7012
18281THY    CA137791   7.018   6.599   5.680  0.9069 -0.1151  0.8456
18281THY    CA237792   7.014   6.727   5.735 -0.3564  0.0761  0.3665
18281THY    CP137793   6.894   6.785   5.814 -0.2371 -0.0031  0.1712
18281THY    HP137794   6.803   6.748   5.767 -0.6516  1.3996 -0.6935
18281THY    CP237795   6.898   6.940   5.821  0.7235  0.6326  0.0361
18281THY    HP237796   6.806   6.980   5.864  1.1679  1.7838 -0.1313
18281THY    HP337797   6.906   6.968   5.716 -1.7100  0.0388 -1.2389
18281THY    HP437798   6.980   6.975   5.884  0.6142  0.2507  0.9858
18281THY    CP337799   6.889   6.730   5.962 -0.5196  0.9026 -0.2251
18281THY    HP537800   6.977   6.754   6.024  0.2442 -0.6238  1.0916
18281THY    HP637801   6.886   6.621   5.970  0.0226 -0.4024 -0.3521
18281THY    HP737802   6.808   6.770   6.024 -0.0262  1.1745  0.3834
18281THY    CA337803   7.140   6.788   5.749  0.0414  0.2838 -0.3965
18281THY    HA337804   7.155   6.877   5.810  0.8785  0.9126 -0.9511
18281THY    CA437805   7.255   6.736   5.682  0.0138 -0.9030  0.2165
18281THY    HA437806   7.349   6.790   5.672  0.4687 -1.8489 -0.7272
18281THY    CA537807   7.251   6.618   5.610 -0.0618 -0.2594  0.4461
18281THY    CM137808   7.368   6.560   5.542  0.4363 -0.3845  0.3774
18281THY    HM137809   7.386   6.609   5.445 -0.6596 -0.6153  0.3348
18281THY    HM237810   7.357   6.455   5.514 -0.3408 -0.0173  0.3518
18281THY    HM337811   7.453   6.567   5.611 -0.3605  0.4860  2.0762
18281THY    CA637812   7.132   6.545   5.619  0.2119 -0.1364  0.1517
18281THY    HA637813   7.132   6.445   5.578  0.0730 -0.0279  0.1056
18282THY      O37814   3.954   2.563   6.947 -0.0397  0.4055  0.7173
18282THY     HO37815   3.870   2.570   6.996 -0.3426  0.0379 -0.2145
18282THY    CA137816   3.922   2.594   6.816 -0.0768 -0.3084 -0.1762
18282THY    CA237817   4.001   2.542   6.715  0.6064  0.4209 -0.3140
18282THY    CP137818   4.119   2.460   6.743  0.1288  0.6025 -0.5531
18282THY    HP137819   4.127   2.424   6.846  2.6956  1.7386  2.7050
18282THY    CP237820   4.252   2.534   6.726  0.1646  0.0184 -0.7254
18282THY    HP237821   4.251   2.617   6.798 -0.7569 -2.4925  1.5633
18282THY    HP337822   4.246   2.573   6.624 -0.3596  1.1211  2.3693
18282THY    HP437823   4.335   2.464   6.741  2.5932  0.3523  2.0491
18282THY    CP337824   4.110   2.340   6.647  0.3675  0.8490 -0.1489
18282THY    HP537825   4.108   2.360   6.539  1.4314  0.6667 -0.9735
18282THY    HP637826   4.039   2.263   6.680  1.0719  0.2280 -1.0928
18282THY    HP737827   4.198   2.278   6.668  0.7875 -0.5556 -0.0803
18282THY    CA337828   3.974   2.586   6.580  0.2795  0.2572 -0.7300
18282THY    HA337829   4.039   2.564   6.496 -0.4991 -1.0201  1.4951
18282THY    CA437830   3.861   2.667   6.555 -0.3818 -0.3734  0.3553
18282THY    HA437831   3.838   2.704   6.456 -2.3276  0.3114  1.1385
18282THY    CA537832   3.778   2.711   6.654  0.0614 -0.7584 -0.1259
18282THY    CM137833   3.672   2.810   6.622  0.1380  0.1754  0.1983
18282THY    HM137834   3.631   2.784   6.524  0.2219  0.2927 -0.3809
18282THY    HM237835   3.700   2.916   6.626  0.1888  1.6463  0.1495
18282THY    HM337836   3.582   2.823   6.682 -0.7828 -1.1874  0.2944
18282THY    CA637837   3.808   2.669   6.788 -0.4009 -0.2912 -0.0154
18282THY    HA637838   3.743   2.702   6.869 -1.9440 -0.7963 -1.6412
18283THY      O37839   9.015   1.270   2.874 -0.3048  1.0607  0.3165
18283THY     HO37840   9.066   1.277   2.791 -1.9804 -0.0358  0.1005
18283THY    CA137841   9.087   1.184   2.944 -0.0243  0.1053  0.2343
18283THY    CA237842   9.035   1.057   2.972 -0.4413 -0.1809  0.0575
18283THY    CP137843   8.919   1.008   2.889  0.2461  0.1392 -0.1953
18283THY    HP137844   8.882   1.082   2.817  0.9720  0.1711  0.2098
18283THY    CP237845   8.818   0.933   2.977  0.0916  0.2985  0.1612
18283THY    HP237846   8.732   0.895   2.920 -0.8484 -0.1613  2.7425
18283THY    HP337847   8.777   1.000   3.053 -1.3837 -0.6705  0.3999
18283THY    HP437848   8.858   0.847   3.031  1.2542 -0.7016  0.0503
18283THY    CP337849   8.975   0.910   2.782  0.3337 -0.2702  0.4408
18283THY    HP537850   8.904   0.916   2.699 -0.6746  0.6311  1.2325
18283THY    HP637851   8.993   0.811   2.826  0.8013 -0.5201  0.4123
18283THY    HP737852   9.073   0.945   2.746  2.0417 -0.4214 -3.8634
18283THY    CA337853   9.105   0.967   3.056 -0.5257  0.1005  0.2657
18283THY    HA337854   9.078   0.864   3.078 -1.5653 -2.7237 -0.1490
18283THY    CA437855   9.228   1.012   3.112  0.3009 -0.3239  0.5225
18283THY    HA437856   9.272   0.953   3.192 -1.0132  0.1380  0.1205
18283THY    CA537857   9.275   1.140   3.093 -0.3769  0.1855 -0.5024
18283THY    CM137858   9.385   1.189   3.176  0.6505  0.1952  1.1059
18283THY    HM137859   9.367   1.166   3.282 -2.8472 -0.3717  0.6997
18283THY    HM237860   9.393   1.297   3.161  3.1139  1.9344  1.2567
18283THY    HM337861   9.482   1.145   3.149  0.2708 -1.4752  1.2408
18283THY    CA637862   9.210   1.227   3.004 -0.4884 -0.4550 -0.2266
18283THY    HA637863   9.252   1.326   2.990  1.1693  0.0804 -0.8259
18284THY      O37864   8.662   8.196   7.001 -0.6540  0.2319  0.2747
18284THY     HO37865   8.659   8.293   7.001 -0.1719  0.0949  0.2886
18284THY    CA137866   8.581   8.159   7.101  0.2464 -0.9622  0.5789
18284THY    CA237867   8.508   8.040   7.097  0.4726  0.4764  0.7567
18284THY    CP137868   8.478   7.972   6.958 -0.0187 -0.6042 -0.5841
18284THY    HP137869   8.515   8.034   6.875 -1.8032 -0.0119  1.4022
18284THY    CP237870   8.328   7.947   6.936 -0.0447  0.5430  1.1128
18284THY    HP237871   8.300   7.901   6.840  0.3893  0.4940  0.9503
18284THY    HP337872   8.268   8.039   6.928 -1.0873 -1.0329  0.3398
18284THY    HP437873   8.286   7.889   7.019 -1.3831 -0.0786  1.1465
18284THY    CP337874   8.572   7.853   6.943 -0.1605  0.1673  0.7305
18284THY    HP537875   8.547   7.804   6.849  0.1189  0.3839  0.1689
18284THY    HP637876   8.530   7.780   7.013  0.4814  1.1825  1.3006
18284THY    HP737877   8.678   7.868   6.969 -0.2192  0.1209  1.2396
18284THY    CA337878   8.451   7.996   7.219  0.1035 -0.4276  0.6934
18284THY    HA337879   8.387   7.908   7.222 -0.4079  0.9587  1.0763
18284THY    CA437880   8.461   8.066   7.339 -0.5060 -0.2558  0.4243
18284THY    HA437881   8.428   8.021   7.432 -0.7864 -0.6096 -0.1237
18284THY    CA537882   8.552   8.177   7.339  0.4959  0.0016  0.2632
18284THY    CM137883   8.574   8.254   7.468  0.1265  0.3595  0.5006
18284THY    HM137884   8.544   8.357   7.446 -2.2474 -1.2864 -0.4513
18284THY    HM237885   8.680   8.250   7.498 -0.2212  1.5123 -2.0513
18284THY    HM337886   8.524   8.214   7.556  0.6898 -0.0510 -1.1918
18284THY    CA637887   8.606   8.221   7.218  0.0143  0.1809  0.0403
18284THY    HA637888   8.676   8.303   7.217  0.3827  1.4877 -0.2432
18285THY      O37889   3.777   7.618   7.756  0.1578 -0.0896  0.1635
18285THY     HO37890   3.740   7.610   7.846  0.5233 -0.0969 -2.0295
18285THY    CA137891   3.912   7.584   7.774  0.0942 -0.3632 -0.1040
18285THY    CA237892   4.013   7.575   7.675  0.3816 -0.1460  0.0344
18285THY    CP137893   3.984   7.607   7.530  0.4339  0.2888  0.1556
18285THY    HP137894   3.877   7.617   7.511  0.2640 -1.0075 -3.1515
18285THY    CP237895   4.040   7.508   7.432 -0.4672  0.5707 -0.8446
18285THY    HP237896   4.004   7.536   7.332  0.2459  0.4314 -0.3928
18285THY    HP337897   4.008   7.406   7.454 -2.3239 -0.2201 -0.4887
18285THY    HP437898   4.148   7.520   7.424 -0.4662 -3.8438 -2.0408
18285THY    CP337899   4.030   7.747   7.486  0.2388  0.7368  0.5305
18285THY    HP537900   4.139   7.751   7.482  0.4300  2.1625 -1.4663
18285THY    HP637901   3.980   7.817   7.555  0.2166  1.4515 -0.1737
18285THY    HP737902   3.990   7.774   7.388  1.3826 -0.0820 -0.6524
18285THY    CA337903   4.145   7.543   7.706  0.2606  0.3832  0.2528
18285THY    HA337904   4.220   7.536   7.628 -2.0368 -1.9746 -0.1430
18285THY    CA437905   4.178   7.504   7.840 -0.1314  0.6644  0.4954
18285THY    HA437906   4.280   7.477   7.863 -0.2910  0.6841 -0.1008
18285THY    CA537907   4.081   7.511   7.936  0.1269 -0.2812 -0.3808
18285THY    CM137908   4.110   7.496   8.084  0.5080 -0.1520  0.3318
18285THY    HM137909   4.167   7.403   8.089  0.9333 -0.8187  0.5525
18285THY    HM237910   4.013   7.498   8.135  0.3352 -0.1943 -2.6629
18285THY    HM337911   4.162   7.583   8.126  0.4230  0.2003  0.2147
18285THY    CA637912   3.950   7.555   7.906 -0.3308 -0.4531 -0.5515
18285THY    HA637913   3.876   7.571   7.984  0.5586 -0.2682  4.1452
18286THY      O37914   4.856   3.210   3.084  0.5953 -0.4922  0.0022
18286THY     HO37915   4.821   3.119   3.085  0.1561 -2.1805  0.1179
18286THY    CA137916   4.869   3.249   3.213  0.2083 -0.2660 -0.2017
18286THY    CA237917   4.994   3.289   3.270 -0.1647  0.7581  0.3339
18286THY    CP137918   5.124   3.283   3.184  0.0969  0.2531 -0.2016
18286THY    HP137919   5.101   3.241   3.086 -0.8324 -0.4784  1.8581
18286THY    CP237920   5.228   3.188   3.240  0.0155 -0.1964  0.0088
18286THY    HP237921   5.238   3.218   3.345 -0.6058  0.5484 -2.1731
18286THY    HP337922   5.323   3.173   3.187 -0.1050 -0.9373  1.6549
18286THY    HP437923   5.187   3.087   3.244  1.5777 -0.9700 -0.6975
18286THY    CP337924   5.182   3.425   3.153  0.6033 -1.0242 -0.1799
18286THY    HP537925   5.279   3.423   3.102  0.5778 -1.0629 -1.0628
18286THY    HP637926   5.191   3.493   3.239 -0.8187 -1.6249  0.8111
18286THY    HP737927   5.118   3.481   3.084  1.0681  0.0041  1.7155
18286THY    CA337928   4.997   3.335   3.401  0.5696 -0.4705 -0.0157
18286THY    HA337929   5.084   3.365   3.459  0.6367 -0.8505  0.5302
18286THY    CA437930   4.876   3.361   3.467 -0.4208  0.1315  0.2186
18286THY    HA437931   4.879   3.406   3.565  1.8702 -0.4781  1.5448
18286THY    CA537932   4.750   3.333   3.403 -0.4043  0.2181  0.2730
18286THY    CM137933   4.618   3.354   3.471 -0.2685 -0.3650  0.0381
18286THY    HM137934   4.536   3.396   3.412  0.9530 -1.4436  0.9722
18286THY    HM237935   4.630   3.422   3.556 -0.1994  2.8957 -3.6761
18286THY    HM337936   4.582   3.255   3.501 -0.6712  0.7057  0.4862
18286THY    CA637937   4.748   3.276   3.282 -0.5795  0.2288  0.0592
18286THY    HA637938   4.657   3.248   3.229  0.2268 -0.8664 -0.5281
18287THY      O37939   2.023   9.016   5.596 -1.2217 -0.5776 -0.0102
18287THY     HO37940   2.058   8.925   5.587  0.8729 -2.3473  0.8604
18287THY    CA137941   1.892   9.001   5.633 -0.3622 -0.0689  0.4674
18287THY    CA237942   1.789   9.088   5.590 -0.3556  0.1739  0.5309
18287THY    CP137943   1.824   9.211   5.489  0.3095 -0.0438  0.2480
18287THY    HP137944   1.930   9.222   5.461  0.7338  1.7153  1.0067
18287THY    CP237945   1.769   9.352   5.529  0.3899  0.1250 -0.8341
18287THY    HP237946   1.660   9.357   5.525  0.3491  0.0372 -1.6766
18287THY    HP337947   1.805   9.431   5.462 -2.7978  0.5355  1.1312
18287THY    HP437948   1.791   9.369   5.635 -1.0115  0.3984 -0.6564
18287THY    CP337949   1.774   9.173   5.349  0.9358 -0.1162 -0.1945
18287THY    HP537950   1.796   9.257   5.283 -3.2423 -1.3068  0.1835
18287THY    HP637951   1.665   9.163   5.352  1.1181  0.2530 -2.9822
18287THY    HP737952   1.813   9.072   5.331 -1.5224  0.9343 -1.3987
18287THY    CA337953   1.659   9.079   5.633  0.5709 -0.5817  0.3216
18287THY    HA337954   1.583   9.147   5.596 -0.5384 -0.1409 -0.6252
18287THY    CA437955   1.621   8.962   5.707 -0.7611  0.3160 -0.4917
18287THY    HA437956   1.517   8.954   5.738 -1.3175 -0.9355  1.2807
18287THY    CA537957   1.717   8.874   5.752  0.0605 -0.5574 -0.4137
18287THY    CM137958   1.664   8.769   5.849  0.0443  0.6494 -0.3253
18287THY    HM137959   1.641   8.800   5.952 -0.9532  0.2618  0.2641
18287THY    HM237960   1.733   8.684   5.846  0.8271  0.2111  0.3166
18287THY    HM337961   1.572   8.725   5.811  0.3072 -1.5798  0.9144
18287THY    CA637962   1.852   8.891   5.712  0.2660  0.7276  0.1728
18287THY    HA637963   1.932   8.832   5.756  0.6917  1.7464  1.4570
18288THY      O37964   8.998   9.026   4.882  0.2044 -0.8570 -0.1433
18288THY     HO37965   8.954   9.084   4.818 -2.0769  1.9083  1.4290
18288THY    CA137966   9.076   8.942   4.804  0.7820 -0.8517  0.7207
18288THY    CA237967   9.143   8.831   4.850  0.4334 -0.5063 -0.0967
18288THY    CP137968   9.141   8.797   5.001 -0.1030 -0.0390  0.2455
18288THY    HP137969   9.044   8.821   5.044  0.6935  2.2677 -0.4513
18288THY    CP237970   9.243   8.884   5.071 -0.4333 -0.3982 -0.1684
18288THY    HP237971   9.245   8.868   5.179 -0.0359 -0.3781  0.0250
18288THY    HP337972   9.234   8.990   5.043 -1.7692 -0.7198 -0.3519
18288THY    HP437973   9.344   8.852   5.045 -0.4043 -0.0200 -0.3832
18288THY    CP337974   9.170   8.648   5.026 -0.1097 -0.4368 -0.3753
18288THY    HP537975   9.270   8.616   4.994 -0.3421  0.6272 -2.3025
18288THY    HP637976   9.100   8.584   4.972 -0.8462  0.6243 -0.4921
18288THY    HP737977   9.168   8.629   5.134 -1.0889 -0.0932  1.5005
18288THY    CA337978   9.224   8.755   4.758  0.0684  0.7254 -0.2832
18288THY    HA337979   9.281   8.667   4.788  1.0565  0.6735  0.3220
18288THY    CA437980   9.231   8.796   4.621  0.3372 -0.3657 -0.3192
18288THY    HA437981   9.297   8.747   4.551  1.3154 -0.3781  0.9718
18288THY    CA537982   9.160   8.908   4.576  0.0951 -0.7547 -0.4256
18288THY    CM137983   9.173   8.942   4.438 -0.4475 -0.4989  0.4393
18288THY    HM137984   9.267   8.994   4.416  0.2617 -1.1936 -1.0568
18288THY    HM237985   9.089   9.002   4.400 -0.8555  0.4906  0.5050
18288THY    HM337986   9.166   8.847   4.383 -1.0314 -0.2139  0.3153
18288THY    CA637987   9.081   8.981   4.670  0.1541  0.5265 -0.1717
18288THY    HA637988   9.039   9.070   4.626  0.1560 -1.0349 -0.9036
18289THY      O37989   1.544   3.178   5.130 -0.0449  0.0726  0.8247
18289THY     HO37990   1.457   3.150   5.097  0.5444  1.4485 -3.2634
18289THY    CA137991   1.576   3.293   5.062 -0.7008 -0.0419 -0.0581
18289THY    CA237992   1.695   3.301   4.989  0.1724 -0.1690  1.3247
18289THY    CP137993   1.787   3.183   4.989 -0.1284 -0.0267 -1.2352
18289THY    HP137994   1.788   3.126   5.082  1.8930 -0.6017 -2.2655
18289THY    CP237995   1.939   3.227   4.982 -0.0229 -0.2100  0.0244
18289THY    HP237996   1.960   3.242   4.876 -1.9719 -0.2033  4.3605
18289THY    HP337997   1.997   3.138   5.010 -0.7286  2.5633  0.3245
18289THY    HP437998   1.967   3.305   5.053 -1.9017 -1.2124  1.6800
18289THY    CP337999   1.761   3.083   4.865  0.2529 -0.4028  0.0413
18289THY    HP538000   1.759   3.129   4.765 -1.3267 -1.2973 -1.8386
18289THY    HP638001   1.661   3.041   4.881  0.0920  0.6242  0.7707
18289THY    HP738002   1.834   3.002   4.867  0.3203 -0.0298  0.1116
18289THY    CA338003   1.704   3.414   4.899 -0.0171 -0.5357 -0.1799
18289THY    HA338004   1.784   3.408   4.826  0.6408 -0.0630  1.9199
18289THY    CA438005   1.619   3.525   4.905  0.2487  0.3557 -0.5731
18289THY    HA438006   1.627   3.615   4.843 -0.6643  0.9310 -0.0820
18289THY    CA538007   1.517   3.520   5.003 -0.1554  0.0669 -0.0571
18289THY    CM138008   1.420   3.634   5.017  0.5577  0.1188  0.0423
18289THY    HM138009   1.415   3.653   5.124  1.5039 -0.0192  1.1324
18289THY    HM238010   1.322   3.621   4.968  1.1847 -1.5676  1.3766
18289THY    HM338011   1.446   3.723   4.958 -0.0691  0.6500  0.5870
18289THY    CA638012   1.498   3.405   5.072  0.5804 -0.7790 -0.0136
18289THY    HA638013   1.408   3.405   5.134  1.3365  0.3754 -1.1310
18290THY      O38014   8.866   6.970   5.045  0.3176 -0.2610  0.1221
18290THY     HO38015   8.811   6.963   5.125 -0.2661 -0.6378  0.3283
18290THY    CA138016   8.820   6.866   4.969 -0.0901 -0.0927 -1.0185
18290THY    CA238017   8.888   6.828   4.847  0.1867 -0.2484  0.8624
18290THY    CP138018   9.008   6.902   4.791  0.3913 -0.1744 -0.0325
18290THY    HP138019   8.976   7.005   4.808  0.8834  0.7654 -0.0229
18290THY    CP238020   9.018   6.879   4.639 -0.1050  0.5662  0.0368
18290THY    HP238021   9.026   6.774   4.610 -2.2658 -0.7163  0.1749
18290THY    HP338022   9.100   6.948   4.615 -1.9973  1.3603  2.7569
18290THY    HP438023   8.931   6.905   4.578  1.2669 -1.5899 -0.1895
18290THY    CP338024   9.136   6.865   4.861 -0.7339 -0.5872 -0.1435
18290THY    HP538025   9.137   6.905   4.963  1.1602 -0.2023 -1.0231
18290THY    HP638026   9.219   6.911   4.806 -0.7327 -0.5627 -0.1165
18290THY    HP738027   9.157   6.757   4.861  0.2287  0.2554  0.0295
18290THY    CA338028   8.835   6.708   4.798 -0.5498  0.4944  0.0676
18290THY    HA338029   8.883   6.660   4.713  0.1868  1.4530 -0.9800
18290THY    CA438030   8.735   6.637   4.858 -0.6116 -0.2148  0.8096
18290THY    HA438031   8.700   6.542   4.817 -2.6824  3.9558 -0.4835
18290THY    CA538032   8.663   6.685   4.969 -0.7293  0.2368  0.0223
18290THY    CM138033   8.548   6.613   5.036 -0.2906 -0.0906  0.2940
18290THY    HM138034   8.463   6.675   5.065 -0.1106  0.6393  0.2109
18290THY    HM238035   8.593   6.572   5.127 -0.7397 -0.4444 -1.0614
18290THY    HM338036   8.509   6.532   4.972 -0.3145 -0.3347  0.4982
18290THY    CA638037   8.713   6.804   5.032 -0.6014 -0.3533 -1.3455
18290THY    HA638038   8.661   6.843   5.119 -1.1316 -1.9750  1.8792
18291THY      O38039   0.568   1.850   5.971  0.3522 -0.8065  0.1798
18291THY     HO38040   0.493   1.795   6.001 -0.9523 -1.4790  1.5133
18291THY    CA138041   0.625   1.787   5.869  0.2513  0.2411 -0.5664
18291THY    CA238042   0.750   1.827   5.828  0.2031  0.1402 -0.4340
18291THY    CP138043   0.837   1.932   5.908  0.6873  0.1659 -0.4078
18291THY    HP138044   0.774   1.985   5.980 -0.0074 -0.8992  0.2372
18291THY    CP238045   0.909   2.042   5.828  1.1001  0.4139  0.2002
18291THY    HP238046   0.859   2.080   5.738 -0.4612  0.9099 -0.6138
18291THY    HP338047   1.009   2.017   5.791  1.0789  0.5939 -0.1642
18291THY    HP438048   0.926   2.130   5.892 -1.0006  0.9438  0.2730
18291THY    CP338049   0.947   1.861   5.994 -0.0245  0.9644  0.0785
18291THY    HP538050   1.000   1.932   6.059  0.0595  2.6068 -1.4083
18291THY    HP638051   1.019   1.807   5.931  0.0019  1.9853 -1.1235
18291THY    HP738052   0.892   1.792   6.060 -0.8629  0.1116 -0.0789
18291THY    CA338053   0.791   1.794   5.692 -0.3004 -0.1058  0.0405
18291THY    HA338054   0.873   1.851   5.649 -0.3544 -0.5885 -0.2462
18291THY    CA438055   0.712   1.710   5.618  0.1352 -0.2013  0.7395
18291THY    HA438056   0.742   1.681   5.517 -1.2308 -0.6449  0.8117
18291THY    CA538057   0.595   1.664   5.667  1.2042 -0.2984  0.0658
18291THY    CM138058   0.507   1.566   5.584 -0.2773  0.5087 -0.0579
18291THY    HM138059   0.467   1.620   5.497  1.5304 -0.2975  0.0494
18291THY    HM238060   0.420   1.541   5.646  0.1605  1.6396  1.0911
18291THY    HM338061   0.561   1.483   5.537  1.1013  1.5729  0.1912
18291THY    CA638062   0.542   1.710   5.789  0.2753 -0.3569 -0.1925
18291THY    HA638063   0.445   1.680   5.827  1.3483  3.2550  0.4427
18292THY      O38064   1.294   6.318   2.915 -0.1024 -0.3666  1.0430
18292THY     HO38065   1.322   6.375   2.841 -2.7972 -1.1428  1.4918
18292THY    CA138066   1.165   6.340   2.932 -0.0231 -0.8098  0.0223
18292THY    CA238067   1.094   6.271   3.029  0.2553  0.2349 -0.3465
18292THY    CP138068   1.156   6.160   3.110  0.2070 -0.0425 -0.4693
18292THY    HP138069   1.262   6.149   3.082  0.0502 -1.9959  2.1821
18292THY    CP238070   1.085   6.020   3.075  0.3295 -0.7286  0.2574
18292THY    HP238071   1.000   6.005   3.143  1.7709  0.9527 -0.6802
18292THY    HP338072   1.167   5.948   3.088  0.6954  0.1305  0.8085
18292THY    HP438073   1.044   6.009   2.974 -0.7538 -0.2731 -0.0471
18292THY    CP338074   1.146   6.198   3.256  0.2429  0.8929  0.1545
18292THY    HP538075   1.245   6.179   3.298  0.7573 -0.6549 -0.7582
18292THY    HP638076   1.071   6.144   3.315 -0.3140  0.6632  0.6710
18292THY    HP738077   1.130   6.306   3.266 -0.7390 -1.4781  0.2937
18292THY    CA338078   0.959   6.309   3.057 -0.7383 -0.2273  0.0869
18292THY    HA338079   0.893   6.257   3.126 -0.0976  1.0330  0.9042
18292THY    CA438080   0.901   6.414   2.985  0.3924  0.3205  0.4565
18292THY    HA438081   0.806   6.461   3.006  1.1351  3.7770  0.6641
18292THY    CA538082   0.972   6.483   2.885 -0.5383 -0.8717  0.8150
18292THY    CM138083   0.925   6.604   2.807  0.9932 -0.4083  0.3218
18292THY    HM138084   0.981   6.695   2.831 -0.5584  1.1535  0.9173
18292THY    HM238085   0.818   6.618   2.826  1.2031  0.2629  1.1041
18292THY    HM338086   0.936   6.586   2.699  1.5567  0.0324 -2.3769
18292THY    CA638087   1.105   6.442   2.858  0.1878  0.0820 -0.5944
18292THY    HA638088   1.166   6.503   2.791  1.0891  2.7032  1.5967
18293THY      O38089   2.707   8.244   6.475 -0.8666  0.0409  0.2610
18293THY     HO38090   2.738   8.278   6.561  0.2252  0.1789 -0.9898
18293THY    CA138091   2.763   8.327   6.384  1.2837 -0.3864 -0.0832
18293THY    CA238092   2.746   8.307   6.250  0.2670  0.2390  0.3160
18293THY    CP138093   2.654   8.204   6.186  0.3975 -0.0615  0.0042
18293THY    HP138094   2.574   8.178   6.257 -1.4881 -1.4734  1.6603
18293THY    CP238095   2.732   8.076   6.148  0.9394  0.4164 -0.4720
18293THY    HP238096   2.661   7.999   6.115 -0.2278  1.1353  0.2750
18293THY    HP338097   2.774   8.026   6.236  1.2023 -0.4626 -1.8776
18293THY    HP438098   2.802   8.084   6.064 -2.2083 -2.5587 -1.5811
18293THY    CP338099   2.581   8.248   6.073 -0.4131 -0.2922  0.3278
18293THY    HP538100   2.549   8.347   6.108  2.9356 -0.5445  1.6229
18293THY    HP638101   2.493   8.187   6.050 -0.8454  0.1066  0.7899
18293THY    HP738102   2.641   8.265   5.983  2.1818  0.7841 -2.3259
18293THY    CA338103   2.814   8.400   6.164  0.0094  0.3465  0.1654
18293THY    HA338104   2.790   8.407   6.058 -1.4251  0.3835 -2.8083
18293THY    CA438105   2.905   8.498   6.213 -0.2786 -0.3061 -0.5851
18293THY    HA438106   2.963   8.566   6.151  0.7595  2.8615  1.6328
18293THY    CA538107   2.909   8.515   6.350  1.4608 -0.3086  0.5269
18293THY    CM138108   3.004   8.619   6.401 -0.4488  0.1838  0.3411
18293THY    HM138109   2.955   8.650   6.494 -1.2877 -0.0460 -0.2390
18293THY    HM238110   2.995   8.712   6.345  1.3337 -1.7881 -0.5909
18293THY    HM338111   3.109   8.587   6.393 -0.1053 -0.2367  1.5473
18293THY    CA638112   2.837   8.432   6.435  0.0701 -0.3422  0.0722
18293THY    HA638113   2.843   8.462   6.539 -2.0614 -0.3329  0.6584
18294THY      O38114   3.951   7.794   3.906  0.4310  0.3537  0.3594
18294THY     HO38115   3.889   7.867   3.926  1.7399  1.3910  1.2307
18294THY    CA138116   4.076   7.850   3.885 -0.0749  0.1328 -0.0830
18294THY    CA238117   4.191   7.766   3.859 -0.2044  0.0149 -0.0095
18294THY    CP138118   4.182   7.610   3.864  0.4223  0.1457  0.3724
18294THY    HP138119   4.090   7.584   3.917 -0.1297 -1.3070 -0.7768
18294THY    CP238120   4.299   7.538   3.947  0.1130 -0.3351 -0.1432
18294THY    HP238121   4.282   7.433   3.972 -1.9286 -0.5307  0.1017
18294THY    HP338122   4.331   7.602   4.030  3.0506 -1.5360  0.1615
18294THY    HP438123   4.393   7.542   3.890  0.8288  0.8770  2.5704
18294THY    CP338124   4.163   7.542   3.726 -0.0650  0.2003 -0.0496
18294THY    HP538125   4.136   7.437   3.741  0.1907  1.2280  0.0219
18294THY    HP638126   4.256   7.547   3.668 -0.7173 -0.7367  2.6186
18294THY    HP738127   4.081   7.589   3.671 -1.5222  0.5449 -2.0608
18294THY    CA338128   4.312   7.833   3.841 -0.6800  0.2871  0.1192
18294THY    HA338129   4.401   7.771   3.846 -0.6014  1.0170  0.2826
18294THY    CA438130   4.318   7.973   3.847 -0.0845  0.5310  0.2718
18294THY    HA438131   4.409   8.024   3.818 -1.9988 -0.9971  3.0946
18294THY    CA538132   4.203   8.049   3.865 -0.0995 -0.0404 -0.9751
18294THY    CM138133   4.210   8.198   3.852 -1.2842 -1.1387  0.6813
18294THY    HM138134   4.223   8.251   3.947 -1.2076 -1.5606  1.4292
18294THY    HM238135   4.135   8.247   3.789 -1.6624 -1.2864 -0.0795
18294THY    HM338136   4.306   8.227   3.808 -1.6206 -2.7767 -0.5536
18294THY    CA638137   4.085   7.989   3.890 -0.6288 -0.0760 -0.2699
18294THY    HA638138   3.999   8.053   3.909 -0.5443 -0.0400 -0.1695
18295THY      O38139   4.046   1.349   2.111  0.2052  0.0292  0.2962
18295THY     HO38140   4.020   1.268   2.159 -2.1848 -0.8028  0.4906
18295THY    CA138141   4.035   1.308   1.980 -0.2592 -0.9936 -0.1670
18295THY    CA238142   4.087   1.377   1.874 -0.5766  0.6216  0.3676
18295THY    CP138143   4.165   1.506   1.878  0.4753  0.0678 -0.1835
18295THY    HP138144   4.184   1.527   1.984 -0.0066  0.0431  0.4369
18295THY    CP238145   4.084   1.618   1.825  0.6414  0.1119 -0.3021
18295THY    HP238146   4.081   1.613   1.715 -1.8438  0.1499 -0.9705
18295THY    HP338147   4.121   1.715   1.859 -1.9249  2.0673  0.1170
18295THY    HP438148   3.981   1.616   1.863 -0.1543 -1.9263 -0.8422
18295THY    CP338149   4.290   1.503   1.800 -0.0381  0.5172 -0.0487
18295THY    HP538150   4.269   1.488   1.693 -4.0295  1.1232  0.1373
18295THY    HP638151   4.357   1.429   1.845 -0.9036  1.9007 -0.0217
18295THY    HP738152   4.340   1.598   1.821  0.6067  0.6537 -0.4176
18295THY    CA338153   4.049   1.328   1.751  0.2898  1.1024 -0.0201
18295THY    HA338154   4.072   1.383   1.661  0.6347  0.5358 -1.0588
18295THY    CA438155   3.980   1.205   1.738 -0.2873 -0.3397 -0.3985
18295THY    HA438156   3.961   1.168   1.638 -0.4569 -0.8680  1.0750
18295THY    CA538157   3.934   1.139   1.851  0.0782  0.0155  0.0939
18295THY    CM138158   3.886   1.002   1.825  0.2784 -0.1153  0.0493
18295THY    HM138159   3.776   1.009   1.821  0.2030 -2.5790 -1.2469
18295THY    HM238160   3.916   0.928   1.900 -2.8895  1.4357  0.1561
18295THY    HM338161   3.918   0.975   1.724 -1.3194 -0.5399 -0.4042
18295THY    CA638162   3.961   1.190   1.976 -0.1773  0.6223  0.0796
18295THY    HA638163   3.933   1.134   2.065 -1.5916  0.4514  0.4895
18296THY      O38164   6.149   7.623   2.477 -0.1269  0.6587 -0.1879
18296THY     HO38165   6.218   7.559   2.453  0.0543  1.7470 -0.4238
18296THY    CA138166   6.085   7.575   2.591 -0.5479  0.0584  0.1256
18296THY    CA238167   5.957   7.624   2.634 -0.0207 -0.4771  0.1158
18296THY    CP138168   5.882   7.727   2.543 -0.3055  0.5201 -0.1854
18296THY    HP138169   5.948   7.763   2.463 -0.8237  0.4148  0.5627
18296THY    CP238170   5.833   7.849   2.629  0.5459  0.7055 -0.1312
18296THY    HP238171   5.894   7.880   2.714 -0.7030  0.8422  2.1606
18296THY    HP338172   5.736   7.823   2.671 -0.4104 -0.3860  1.5007
18296THY    HP438173   5.810   7.930   2.559  2.0603  0.0415 -0.2319
18296THY    CP338174   5.769   7.651   2.473  0.2864 -0.1946  0.0114
18296THY    HP538175   5.695   7.611   2.543  0.1561 -0.1489  0.3326
18296THY    HP638176   5.818   7.568   2.420  0.8930 -0.8220  0.7508
18296THY    HP738177   5.714   7.710   2.399 -0.4994 -0.8714 -1.5118
18296THY    CA338178   5.908   7.582   2.762  0.0117 -0.3245 -0.0146
18296THY    HA338179   5.812   7.622   2.795  0.5207  1.2788 -0.0307
18296THY    CA438180   5.975   7.488   2.841 -0.3472 -0.1640 -0.1112
18296THY    HA438181   5.938   7.455   2.938  2.8932  0.4342 -2.4898
18296THY    CA538182   6.097   7.439   2.790  0.1287 -0.0483  0.6640
18296THY    CM138183   6.178   7.348   2.868  0.0424  0.8389  0.2523
18296THY    HM138184   6.150   7.332   2.973 -1.8246  0.1676 -1.2989
18296THY    HM238185   6.282   7.381   2.870 -0.3205  1.8917  1.4123
18296THY    HM338186   6.174   7.257   2.807 -1.6295 -2.5196  2.4107
18296THY    CA638187   6.148   7.474   2.668  0.0903  0.4628  0.3118
18296THY    HA638188   6.242   7.439   2.626  1.0780  0.8738  2.3144
18297THY      O38189   3.918   0.826   6.990  0.1316 -0.4067 -0.2249
18297THY     HO38190   3.860   0.880   6.935 -1.5142  2.8403  1.6017
18297THY    CA138191   3.929   0.888   7.114  0.4987 -0.4549 -0.7448
18297THY    CA238192   4.032   0.841   7.206 -0.2183 -0.2717  0.2114
18297THY    CP138193   4.140   0.748   7.149 -0.8230  0.2480 -0.1617
18297THY    HP138194   4.160   0.768   7.043 -0.1835  0.1731 -1.1629
18297THY    CP238195   4.085   0.604   7.166  0.1152 -0.6964  0.1919
18297THY    HP238196   4.039   0.570   7.259  2.4642  0.1432 -0.9080
18297THY    HP338197   4.166   0.531   7.155 -1.4444 -0.6556 -1.6339
18297THY    HP438198   4.022   0.592   7.077  0.3452 -1.3468  3.0290
18297THY    CP338199   4.282   0.756   7.210  0.3027  0.0728 -0.5207
18297THY    HP538200   4.343   0.683   7.155 -1.0551  0.3473 -1.9173
18297THY    HP638201   4.289   0.728   7.316 -0.6178  0.0488 -0.8921
18297THY    HP738202   4.327   0.855   7.208 -1.1599 -2.2864  0.1937
18297THY    CA338203   4.044   0.909   7.325 -0.0473  1.0268  0.4827
18297THY    HA338204   4.121   0.874   7.394  1.1075  0.5393  1.9775
18297THY    CA438205   3.954   1.011   7.350 -0.5646 -0.3527  0.0450
18297THY    HA438206   3.961   1.066   7.444 -1.1592 -0.6537  0.6487
18297THY    CA538207   3.840   1.040   7.274 -0.6161 -0.6962  0.2175
18297THY    CM138208   3.724   1.125   7.334  0.5819  0.0216 -0.9716
18297THY    HM138209   3.680   1.079   7.423  0.5203  0.7855  0.5014
18297THY    HM238210   3.646   1.147   7.260  0.6339  0.7252  2.0580
18297THY    HM338211   3.753   1.223   7.373 -0.8759  0.5141 -0.7198
18297THY    CA638212   3.830   0.980   7.156  0.4907  0.0910 -0.2303
18297THY    HA638213   3.747   1.009   7.093 -0.0497  1.5740  1.5605
18298THY      O38214   5.069   8.316   3.823  0.5556  0.0834 -0.0005
18298THY     HO38215   5.012   8.266   3.883 -0.6254  0.8478  2.1218
18298THY    CA138216   5.072   8.245   3.709 -0.8284  0.8152  0.7620
18298THY    CA238217   5.170   8.276   3.608 -0.3074  0.1406  0.1718
18298THY    CP138218   5.277   8.384   3.639 -0.6226 -1.1639 -0.8783
18298THY    HP138219   5.247   8.447   3.723 -0.5944 -0.7507 -1.4050
18298THY    CP238220   5.304   8.481   3.523  0.2420 -0.3538 -0.4024
18298THY    HP238221   5.214   8.542   3.513  0.1240 -1.9000 -0.7914
18298THY    HP338222   5.331   8.433   3.429  2.5507 -0.6998  1.3778
18298THY    HP438223   5.379   8.556   3.554 -0.5170  0.7067 -0.0549
18298THY    CP338224   5.404   8.308   3.667 -0.9016  0.2075 -0.2962
18298THY    HP538225   5.491   8.368   3.697 -0.5680  0.7555 -1.0380
18298THY    HP638226   5.435   8.255   3.576 -1.1145  0.0076 -0.0769
18298THY    HP738227   5.381   8.231   3.741  0.4711  0.3417 -0.6103
18298THY    CA338228   5.187   8.188   3.495  0.1068 -0.0619  0.5790
18298THY    HA338229   5.268   8.193   3.423  1.6992  1.6540  0.6759
18298THY    CA438230   5.096   8.079   3.495 -0.3079 -0.6048 -0.6170
18298THY    HA438231   5.108   8.012   3.411 -0.0975 -1.8192  0.8980
18298THY    CA538232   4.997   8.053   3.589 -0.4897 -0.4145 -0.3823
18298THY    CM138233   4.908   7.935   3.588 -0.3136 -0.2826  0.2495
18298THY    HM138234   4.952   7.855   3.648  0.3263 -1.2701 -0.1583
18298THY    HM238235   4.878   7.910   3.485 -0.2695 -1.0007  2.8705
18298THY    HM338236   4.814   7.964   3.636  0.7503  2.6313 -0.7321
18298THY    CA638237   4.982   8.142   3.697  0.4868 -0.4844 -0.3045
18298THY    HA638238   4.913   8.112   3.776  1.4270 -0.0505 -1.4123
18299THY      O38239   3.624   8.541   2.397 -0.4063  0.4361 -0.0067
18299THY     HO38240   3.552   8.537   2.332 -0.1370  0.1677 -0.5509
18299THY    CA138241   3.670   8.661   2.380 -0.5069 -0.4786 -0.0788
18299THY    CA238242   3.809   8.687   2.359  0.1664  0.6026 -0.7008
18299THY    CP138243   3.906   8.566   2.341  0.0432 -0.3041  0.3524
18299THY    HP138244   3.898   8.500   2.429  1.9906 -0.4868 -0.1975
18299THY    CP238245   4.054   8.618   2.323 -0.1285  0.5819 -0.0196
18299THY    HP238246   4.097   8.670   2.410 -0.4390  0.6000  0.2066
18299THY    HP338247   4.071   8.669   2.228 -0.5106  1.0304  0.9547
18299THY    HP438248   4.102   8.519   2.314 -1.7123 -3.2334 -0.6189
18299THY    CP338249   3.882   8.490   2.210 -0.0389 -0.0167 -0.3335
18299THY    HP538250   3.793   8.428   2.227 -0.5236  0.6273  0.5276
18299THY    HP638251   3.966   8.427   2.176  1.3756 -0.6386  1.7978
18299THY    HP738252   3.863   8.557   2.126  4.8186 -1.6292 -0.5558
18299THY    CA338253   3.850   8.823   2.356  0.3521  0.4219  0.1777
18299THY    HA338254   3.952   8.853   2.334  0.4561  0.4411 -0.1664
18299THY    CA438255   3.752   8.922   2.363 -0.4518  0.5920 -0.4565
18299THY    HA438256   3.787   9.024   2.372 -0.3156 -1.0038 -0.3315
18299THY    CA538257   3.616   8.893   2.381 -0.1207  0.0836  0.7723
18299THY    CM138258   3.514   8.997   2.350 -0.0699  0.4220 -0.4368
18299THY    HM138259   3.542   9.057   2.262 -0.6346 -0.3313 -1.2415
18299THY    HM238260   3.492   9.070   2.428 -2.5072 -0.2085 -0.4096
18299THY    HM338261   3.416   8.950   2.330  0.4142  0.9729 -1.7258
18299THY    CA638262   3.578   8.763   2.391 -0.0674 -0.2235 -0.3522
18299THY    HA638263   3.471   8.746   2.400  0.1595  0.2501 -1.5890
18300THY      O38264   4.554   8.191   4.878 -0.3951  0.2659  0.0033
18300THY     HO38265   4.475   8.230   4.919 -2.2777 -0.9971 -2.2678
18300THY    CA138266   4.513   8.067   4.845  0.7526  0.2422 -0.4169
18300THY    CA238267   4.532   8.023   4.712 -0.1110 -0.0731 -0.1711
18300THY    CP138268   4.595   8.114   4.611  0.1672 -0.4187 -0.0738
18300THY    HP138269   4.634   8.207   4.656  1.7700  2.3548 -1.9450
18300THY    CP238270   4.502   8.150   4.503  0.5124 -0.2253 -0.4819
18300THY    HP238271   4.521   8.240   4.444 -0.6873 -0.2347 -0.2210
18300THY    HP338272   4.409   8.199   4.534  0.0660 -3.3868  0.8932
18300THY    HP438273   4.481   8.070   4.431 -0.5907 -1.8585  1.2084
18300THY    CP338274   4.731   8.060   4.559  0.3012 -0.6319  0.1797
18300THY    HP538275   4.714   7.978   4.488 -0.9442 -0.1824  0.0294
18300THY    HP638276   4.793   8.033   4.646  2.3821 -1.7179  1.1655
18300THY    HP738277   4.789   8.136   4.505 -0.3297 -2.8845 -0.8587
18300THY    CA338278   4.482   7.898   4.672 -1.0002  0.3598  0.5490
18300THY    HA338279   4.485   7.865   4.569  2.2703  0.5951 -0.2689
18300THY    CA438280   4.424   7.819   4.772  0.3033 -0.0834 -0.3099
18300THY    HA438281   4.381   7.724   4.740 -1.8030  2.3810 -0.2803
18300THY    CA538282   4.410   7.864   4.895  0.0597 -0.3691 -0.1005
18300THY    CM138283   4.338   7.784   4.992  0.5748 -0.4084 -0.0482
18300THY    HM138284   4.379   7.802   5.092  0.9123 -0.2698 -1.5392
18300THY    HM238285   4.361   7.678   4.978 -0.1203  1.3058 -0.4647
18300THY    HM338286   4.231   7.806   5.002  0.5184 -0.9736 -0.0556
18300THY    CA638287   4.450   7.992   4.935  0.4671 -0.3018  0.5823
18300THY    HA638288   4.435   8.031   5.036 -0.1162 -0.3887  0.5931
18301THY      O38289   7.545   5.731   2.919 -0.0772 -0.0118 -0.2256
18301THY     HO38290   7.509   5.647   2.951 -0.1338 -0.0708 -0.2240
18301THY    CA138291   7.638   5.761   3.009  0.3214 -0.7414  0.4551
18301THY    CA238292   7.752   5.839   2.972 -0.0784  0.6937 -0.0565
18301THY    CP138293   7.760   5.899   2.830  0.3830  0.8709 -0.3056
18301THY    HP138294   7.672   5.880   2.768 -0.6460  2.4707 -0.9456
18301THY    CP238295   7.880   5.862   2.756  0.4962 -0.2217  0.5812
18301THY    HP238296   7.968   5.923   2.781  1.0417  0.1440 -0.3253
18301THY    HP338297   7.862   5.842   2.650  0.3759 -0.1374  0.2409
18301THY    HP438298   7.903   5.760   2.789 -0.4769  0.0079  0.4293
18301THY    CP338299   7.759   6.059   2.822  0.6811  0.6561 -0.0772
18301THY    HP538300   7.759   6.093   2.717 -1.0765  0.9623  0.9424
18301THY    HP638301   7.839   6.110   2.877  0.6628  1.6606 -1.0993
18301THY    HP738302   7.659   6.093   2.848 -0.5568 -0.5362 -2.5030
18301THY    CA338303   7.859   5.857   3.064  0.2780  0.3907  0.2150
18301THY    HA338304   7.949   5.914   3.047  0.9691  0.0919 -0.9410
18301THY    CA438305   7.842   5.793   3.193  0.0139 -0.1130 -0.4931
18301THY    HA438306   7.923   5.803   3.265 -0.5260  0.7846 -2.2346
18301THY    CA538307   7.729   5.721   3.227 -0.4264  1.1026  0.1268
18301THY    CM138308   7.733   5.643   3.357  0.2507  0.2653 -0.9771
18301THY    HM138309   7.786   5.698   3.436 -1.7131  1.3534 -0.5581
18301THY    HM238310   7.785   5.549   3.339  1.0051  1.4098 -0.8055
18301THY    HM338311   7.636   5.618   3.402  0.8396  1.5043 -1.1392
18301THY    CA638312   7.627   5.699   3.133  0.1017 -0.3618  0.0700
18301THY    HA638313   7.541   5.643   3.168 -1.3022 -1.7845  1.2509
18302THY      O38314   8.357   0.764   1.547  0.1733  0.4054 -0.4354
18302THY     HO38315   8.368   0.729   1.457  1.4749  0.6168 -0.6209
18302THY    CA138316   8.306   0.670   1.624  0.2009 -0.6329  0.5478
18302THY    CA238317   8.348   0.641   1.753  0.0264  0.1888  0.2706
18302THY    CP138318   8.470   0.727   1.814  0.0169 -0.0818 -0.4164
18302THY    HP138319   8.510   0.793   1.736  1.2940  2.3334  1.8255
18302THY    CP238320   8.588   0.643   1.844 -0.6628  0.0379 -0.0565
18302THY    HP238321   8.669   0.698   1.893 -0.3845  0.4555 -0.8254
18302THY    HP338322   8.630   0.592   1.756 -0.4379 -0.2652  0.6403
18302THY    HP438323   8.554   0.571   1.918 -0.6341  1.2148  1.1093
18302THY    CP338324   8.420   0.819   1.927  0.5080 -0.4942  0.0343
18302THY    HP538325   8.495   0.899   1.927 -2.0212 -1.1246  2.5754
18302THY    HP638326   8.410   0.768   2.024 -1.6617 -0.8706 -0.3504
18302THY    HP738327   8.334   0.876   1.891  0.5219 -0.6835 -0.0618
18302THY    CA338328   8.293   0.540   1.832 -0.1419 -0.3665  0.4515
18302THY    HA338329   8.333   0.507   1.928  1.0032 -1.6042 -2.0681
18302THY    CA438330   8.184   0.470   1.782 -0.6807  0.2776  0.2046
18302THY    HA438331   8.139   0.392   1.843 -1.2731 -0.7250 -0.2627
18302THY    CA538332   8.129   0.508   1.658 -0.3690 -0.2832 -0.8528
18302THY    CM138333   7.999   0.452   1.606 -0.0583  0.1271 -0.0993
18302THY    HM138334   7.916   0.465   1.676 -0.4544 -0.1802 -0.9123
18302THY    HM238335   8.023   0.351   1.573  0.8057 -3.6357  1.1471
18302THY    HM338336   7.977   0.502   1.510  3.8344 -0.5319  0.6986
18302THY    CA638337   8.196   0.607   1.583  0.1247  0.8614  0.7370
18302THY    HA638338   8.155   0.649   1.491  2.8855 -0.1204  1.4774
18303THY      O38339   1.787   5.753   6.416 -0.3289 -0.0774 -0.0906
18303THY     HO38340   1.770   5.666   6.456  1.8625  0.9842 -0.1047
18303THY    CA138341   1.918   5.771   6.409 -0.0878  0.9005  0.6126
18303THY    CA238342   1.983   5.819   6.298 -0.2833  0.7291 -0.0678
18303THY    CP138343   1.909   5.861   6.174 -0.1349  0.0998  0.4473
18303THY    HP138344   1.804   5.888   6.192 -0.8250 -2.6484 -0.0829
18303THY    CP238345   1.897   5.746   6.076 -0.1943 -0.0831 -0.0416
18303THY    HP238346   1.822   5.672   6.108 -1.7108 -1.3645  0.8849
18303THY    HP338347   1.993   5.693   6.073  0.3947 -2.5556  1.0315
18303THY    HP438348   1.870   5.788   5.978 -0.4439  0.6338  1.5209
18303THY    CP338349   1.969   5.987   6.097  0.0663 -0.0696 -0.5351
18303THY    HP538350   2.038   5.958   6.017 -0.4664 -1.1738  1.0752
18303THY    HP638351   2.024   6.041   6.175  0.8265 -0.0076 -1.3824
18303THY    HP738352   1.887   6.051   6.062  0.9626 -2.2324 -0.4871
18303THY    CA338353   2.125   5.825   6.301 -0.5180  0.1668  0.6005
18303THY    HA338354   2.182   5.854   6.213 -1.2631 -0.4132  0.3445
18303THY    CA438355   2.196   5.792   6.418 -0.5765  0.3085  0.6843
18303THY    HA438356   2.304   5.789   6.409 -0.7021 -1.1178 -0.7453
18303THY    CA538357   2.124   5.742   6.526  0.2887  0.1533 -0.4804
18303THY    CM138358   2.201   5.712   6.657 -0.6000  0.1390 -0.5420
18303THY    HM138359   2.299   5.760   6.669 -1.4188 -0.9575  1.5561
18303THY    HM238360   2.194   5.608   6.690 -0.2525 -1.0537 -0.9630
18303THY    HM338361   2.148   5.771   6.732 -1.7282  0.2817 -1.6888
18303THY    CA638362   1.985   5.726   6.524 -0.2182 -0.3058  0.5069
18303THY    HA638363   1.926   5.689   6.607 -1.1064 -1.4576 -0.7926
18304THY      O38364   0.074   1.721   4.946  0.1931 -0.3280 -0.4483
18304THY     HO38365   0.076   1.785   4.872  0.2714  0.3281  0.3191
18304THY    CA138366   0.136   1.612   4.909 -0.4033 -0.3386  0.0812
18304THY    CA238367   0.192   1.517   5.001  0.6530 -0.0531 -0.2714
18304THY    CP138368   0.162   1.537   5.158  0.1570 -0.5770  0.0439
18304THY    HP138369   0.062   1.580   5.167  0.6814 -1.1202  1.4393
18304THY    CP238370   0.257   1.640   5.228 -0.0062  0.6559  0.7357
18304THY    HP238371   0.360   1.605   5.219  0.6140  0.4900  2.4942
18304THY    HP338372   0.217   1.646   5.330 -0.5139  1.2061 -5.7170
18304THY    HP438373   0.257   1.732   5.168  0.6283  1.2862  1.1530
18304THY    CP338374   0.170   1.397   5.233  0.6202 -0.2775  0.0461
18304THY    HP538375   0.274   1.382   5.265  0.5279  1.3409  2.3594
18304THY    HP638376   0.139   1.318   5.163 -0.5686 -0.2019  0.4232
18304THY    HP738377   0.113   1.393   5.327  3.4024  1.6354  1.5396
18304THY    CA338378   0.270   1.409   4.949 -0.6160  0.5714 -0.0509
18304THY    HA338379   0.315   1.333   5.013 -0.3898  0.0069 -0.4000
18304THY    CA438380   0.300   1.411   4.813 -0.1833  0.0050 -0.3048
18304THY    HA438381   0.353   1.328   4.769 -1.8154  0.1167 -1.4719
18304THY    CA538382   0.234   1.504   4.726 -0.0800  0.1008  0.8432
18304THY    CM138383   0.275   1.497   4.580 -0.0967  0.4675 -0.8127
18304THY    HM138384   0.368   1.556   4.578 -1.2867  3.3574  1.4460
18304THY    HM238385   0.200   1.549   4.519  0.6666  0.3746  0.2067
18304THY    HM338386   0.289   1.393   4.547 -0.0055  2.3760 -1.4466
18304THY    CA638387   0.163   1.606   4.776  0.2793 -0.9463 -0.4527
18304THY    HA638388   0.135   1.686   4.708 -3.4702 -0.5790 -1.2701
18305THY      O38389   4.253   2.171   4.686  0.8032  0.2881  0.1927
18305THY     HO38390   4.350   2.168   4.692  1.0957 -2.9126  0.0907
18305THY    CA138391   4.223   2.113   4.576  0.5680  0.7295  0.1348
18305THY    CA238392   4.094   2.127   4.520  0.6327 -0.7899  0.1370
18305THY    CP138393   3.989   2.218   4.588  0.1861  0.5503  0.0203
18305THY    HP138394   4.020   2.236   4.692  0.2043  0.3145  1.4752
18305THY    CP238395   3.852   2.157   4.597 -0.1212  0.4046 -0.3028
18305THY    HP238396   3.789   2.152   4.507 -0.0864  0.3545  0.1162
18305THY    HP338397   3.787   2.203   4.673 -1.2892  0.1950 -1.5551
18305THY    HP438398   3.865   2.060   4.646 -0.0939  1.4337  0.1953
18305THY    CP338399   3.974   2.358   4.515 -0.7187  0.0003  0.6830
18305THY    HP538400   3.913   2.419   4.583 -0.4179  0.1191  0.8514
18305THY    HP638401   3.913   2.356   4.424 -0.9375 -0.0467  3.9891
18305THY    HP738402   4.072   2.407   4.509 -0.1169 -1.3220 -0.6235
18305THY    CA338403   4.061   2.067   4.390 -0.3200 -0.2579 -1.2198
18305THY    HA338404   3.964   2.082   4.344 -1.6616  2.3536 -1.3047
18305THY    CA438405   4.164   2.000   4.324  0.4338  0.0461 -0.3356
18305THY    HA438406   4.149   1.960   4.225  1.2268  0.0240 -0.5916
18305THY    CA538407   4.286   1.979   4.389  0.0129 -0.1072 -0.0852
18305THY    CM138408   4.383   1.898   4.309  1.0954 -0.1140  0.4970
18305THY    HM138409   4.469   1.854   4.362  0.1428 -0.7268 -2.3152
18305THY    HM238410   4.418   1.970   4.234 -1.1414  0.8007  2.6526
18305THY    HM338411   4.336   1.811   4.263  2.7808  2.4342 -1.9490
18305THY    CA638412   4.324   2.038   4.510 -0.5735 -0.6418 -0.9111
18305THY    HA638413   4.427   2.023   4.543 -1.1544  0.6353 -2.3783
18306THY      O38414   2.801   2.767   5.769 -0.6055  0.1126  0.0132
18306THY     HO38415   2.888   2.789   5.806 -0.0818 -1.3836  0.5308
18306THY    CA138416   2.823   2.736   5.637 -1.0143  0.3984  0.2171
18306THY    CA238417   2.732   2.662   5.564  0.5632  0.6237  0.8747
18306THY    CP138418   2.594   2.617   5.620  0.0794 -0.5840 -0.6675
18306THY    HP138419   2.587   2.630   5.728  1.8065 -0.6978  2.1763
18306THY    CP238420   2.582   2.469   5.593  0.1082 -0.5645 -0.1593
18306THY    HP238421   2.584   2.444   5.487 -2.4482 -0.5267 -0.8201
18306THY    HP338422   2.496   2.428   5.647  0.6694 -0.1073 -0.7476
18306THY    HP438423   2.669   2.427   5.645 -1.3621  1.5938 -0.7031
18306THY    CP338424   2.468   2.682   5.553  0.0791 -0.1749  1.0616
18306THY    HP538425   2.450   2.631   5.458  0.6085 -0.6453  1.7391
18306THY    HP638426   2.486   2.781   5.510  0.2835 -0.3834  0.9372
18306THY    HP738427   2.380   2.689   5.618 -0.6029 -0.9811  0.2036
18306THY    CA338428   2.755   2.642   5.422  0.7392 -0.5096  0.6168
18306THY    HA338429   2.674   2.603   5.361  0.3555  0.7131 -0.5590
18306THY    CA438430   2.878   2.689   5.367 -0.8976 -0.4760  0.2842
18306THY    HA438431   2.898   2.678   5.261  1.3117  0.0726 -1.9426
18306THY    CA538432   2.967   2.762   5.447 -0.2714  0.1027  0.4059
18306THY    CM138433   3.102   2.804   5.395 -0.4361 -1.1814  0.2189
18306THY    HM138434   3.107   2.798   5.286  0.2003 -1.0711 -2.0467
18306THY    HM238435   3.169   2.726   5.433 -0.7648  1.7477  1.2559
18306THY    HM338436   3.134   2.904   5.427  0.8637  1.2403 -0.8826
18306THY    CA638437   2.944   2.781   5.583  0.2273  0.2643  0.1542
18306THY    HA638438   3.021   2.825   5.647  0.1184  2.1101 -2.1669
18307THY      O38439   7.248   9.487   3.182  0.2395  0.0315 -0.1731
18307THY     HO38440   7.298   9.483   3.265  0.3968 -0.0846 -0.8698
18307THY    CA138441   7.170   9.377   3.193 -1.1028 -0.1679 -0.3871
18307THY    CA238442   7.071   9.344   3.092 -0.2019 -0.4957  0.0321
18307THY    CP138443   7.060   9.422   2.968  0.5982 -0.7915  0.2361
18307THY    HP138444   7.129   9.507   2.972 -0.1434  0.1803  0.8145
18307THY    CP238445   6.914   9.491   2.962 -0.4444  0.3126  0.2703
18307THY    HP238446   6.900   9.553   3.051  0.8140 -0.0665  1.1214
18307THY    HP338447   6.839   9.411   2.970  0.1010  1.2305 -0.1674
18307THY    HP438448   6.897   9.548   2.870 -2.7344 -0.2268 -1.1537
18307THY    CP338449   7.097   9.340   2.838  0.3367 -0.0294 -0.3071
18307THY    HP538450   7.105   9.408   2.753 -0.6423  0.2076  0.1193
18307THY    HP638451   7.017   9.267   2.823  2.1349 -0.0829 -2.3509
18307THY    HP738452   7.190   9.284   2.850 -0.1844  0.7083 -1.0318
18307THY    CA338453   7.011   9.220   3.107 -0.3236  0.9248  0.1877
18307THY    HA338454   6.942   9.187   3.030 -0.6653  0.8679  0.9930
18307THY    CA438455   7.029   9.148   3.229  0.3313  0.1403 -0.6989
18307THY    HA438456   6.971   9.058   3.248 -0.1989 -0.4889 -0.5008
18307THY    CA538457   7.111   9.195   3.328 -0.4863  0.2771  0.2435
18307THY    CM138458   7.150   9.099   3.440 -0.1774  0.4942 -0.1723
18307THY    HM138459   7.222   9.143   3.510  2.1307 -1.0113 -1.3881
18307THY    HM238460   7.197   9.008   3.401 -0.0705  1.6253 -0.6193
18307THY    HM338461   7.063   9.081   3.504 -0.7541 -0.5512 -1.2582
18307THY    CA638462   7.187   9.308   3.310 -0.1442  0.4770  0.1490
18307THY    HA638463   7.268   9.330   3.379  1.5304 -1.3832  0.1093
18308THY      O38464   2.655   0.796   2.747  0.2440 -0.0010  0.2790
18308THY     HO38465   2.649   0.890   2.770 -1.9474 -1.2632  0.4937
18308THY    CA138466   2.541   0.752   2.691 -0.3002 -0.2811  0.3084
18308THY    CA238467   2.533   0.626   2.631  0.0434 -0.3508  0.1763
18308THY    CP138468   2.636   0.518   2.643  0.0574  0.1800 -0.4663
18308THY    HP138469   2.727   0.548   2.697  1.7496 -2.8919  0.3925
18308THY    CP238470   2.703   0.471   2.514  0.1549 -0.1813 -0.7343
18308THY    HP238471   2.749   0.558   2.467 -0.2868  0.3229 -0.2218
18308THY    HP338472   2.624   0.425   2.453 -0.7083 -0.1940  0.7000
18308THY    HP438473   2.787   0.403   2.529  1.8138 -0.7503  1.1239
18308THY    CP338474   2.579   0.393   2.711  0.7879  0.4402  0.3836
18308THY    HP538475   2.512   0.416   2.795  0.2924  1.2235 -3.2660
18308THY    HP638476   2.658   0.332   2.757  1.4841 -1.4941 -0.2462
18308THY    HP738477   2.528   0.338   2.631  1.7792 -1.4726  2.1172
18308THY    CA338478   2.417   0.604   2.558  0.4529 -0.5813 -0.5362
18308THY    HA338479   2.406   0.506   2.511  0.4217 -1.5967 -0.0562
18308THY    CA438480   2.311   0.689   2.549 -0.0399 -0.0040  0.5323
18308THY    HA438481   2.231   0.682   2.475 -0.6642  0.5955  1.1723
18308THY    CA538482   2.324   0.820   2.615  0.4216 -0.2418  0.6584
18308THY    CM138483   2.214   0.926   2.605 -0.0412  0.6384 -0.6673
18308THY    HM138484   2.208   1.000   2.686 -4.1320  0.9832 -1.1513
18308THY    HM238485   2.121   0.869   2.604  0.1247  1.8359 -0.9881
18308THY    HM338486   2.233   0.978   2.510  0.5478  1.7420  1.2337
18308THY    CA638487   2.440   0.848   2.685 -0.3590  0.7924 -0.1101
18308THY    HA638488   2.456   0.948   2.723 -1.5876 -1.3937  0.9865
18309THY      O38489   3.009   1.977   7.654 -0.6790 -0.5399 -0.1036
18309THY     HO38490   2.949   1.954   7.727  0.8214  0.3896 -1.1496
18309THY    CA138491   3.094   1.884   7.640 -0.3976  0.7449  0.3039
18309THY    CA238492   3.217   1.900   7.568  0.1414 -0.1195  0.0439
18309THY    CP138493   3.273   2.031   7.513 -0.1022  0.0955 -0.1170
18309THY    HP138494   3.195   2.107   7.523 -0.4094 -0.1480 -0.3977
18309THY    CP238495   3.307   2.020   7.366 -0.2110  0.0098 -0.4077
18309THY    HP238496   3.407   1.980   7.342  1.1037  1.3961  1.8608
18309THY    HP338497   3.311   2.124   7.332  0.6549 -2.1282 -1.0821
18309THY    HP438498   3.222   1.973   7.316 -0.3140 -0.3361  0.1426
18309THY    CP338499   3.390   2.081   7.597 -0.6019  0.2447  0.8240
18309THY    HP538500   3.466   2.003   7.606 -1.1513 -0.0308  0.2487
18309THY    HP638501   3.348   2.086   7.698  1.6507  1.2558  0.4238
18309THY    HP738502   3.427   2.176   7.556  1.5409 -1.5710 -0.6921
18309THY    CA338503   3.305   1.789   7.555  0.0189  0.2130  0.2355
18309THY    HA338504   3.402   1.801   7.507  0.0340 -0.2252 -1.4298
18309THY    CA438505   3.265   1.666   7.600 -0.3451 -0.9963  0.6950
18309THY    HA438506   3.325   1.576   7.586 -0.6413  0.5788  0.2291
18309THY    CA538507   3.137   1.646   7.656 -0.2921 -0.0832  0.0389
18309THY    CM138508   3.088   1.505   7.697 -0.1516 -0.3410 -0.2778
18309THY    HM138509   3.134   1.483   7.794  1.9612 -0.6350  2.3551
18309THY    HM238510   3.113   1.427   7.624  1.3504  0.5766 -0.6891
18309THY    HM338511   2.981   1.499   7.717  0.0476  0.5435 -1.1121
18309THY    CA638512   3.056   1.759   7.678  0.2766  0.0765  0.4907
18309THY    HA638513   2.955   1.745   7.714 -0.1220 -0.9860  0.5865
18310THY      O38514   3.677   7.640   4.278  0.0950 -0.2844 -0.2849
18310THY     HO38515   3.741   7.614   4.210 -0.3303 -0.1420 -1.7776
18310THY    CA138516   3.573   7.545   4.261  0.4465  0.7426  0.3897
18310THY    CA238517   3.457   7.541   4.347 -0.0189  0.5584  0.6376
18310THY    CP138518   3.444   7.641   4.459 -0.0617  0.1806 -0.5600
18310THY    HP138519   3.532   7.706   4.455 -0.3793  0.5432 -0.1053
18310THY    CP238520   3.465   7.565   4.588  0.6190 -0.5633 -0.2724
18310THY    HP238521   3.566   7.524   4.603  0.6570  2.3664  0.6696
18310THY    HP338522   3.391   7.484   4.586  0.5552 -1.4267 -0.2014
18310THY    HP438523   3.453   7.632   4.673 -0.8092 -0.0918 -1.0652
18310THY    CP338524   3.316   7.726   4.460  0.5590 -0.0278 -0.2483
18310THY    HP538525   3.321   7.786   4.368 -0.9242  1.0868  1.6760
18310THY    HP638526   3.321   7.786   4.551 -1.3809 -1.3311  2.0690
18310THY    HP738527   3.221   7.672   4.456  0.8772  0.0949 -0.8287
18310THY    CA338528   3.348   7.462   4.313 -0.8811  0.2654 -0.9855
18310THY    HA338529   3.258   7.470   4.372 -1.2266 -0.5524  2.3013
18310THY    CA438530   3.352   7.393   4.196  0.1482 -0.0798 -0.5174
18310THY    HA438531   3.267   7.339   4.157  1.1433 -1.8213 -0.9095
18310THY    CA538532   3.461   7.403   4.102 -0.3648  0.4237  0.2190
18310THY    CM138533   3.453   7.334   3.963 -0.0242 -0.2265 -0.2456
18310THY    HM138534   3.345   7.319   3.951 -0.1126  1.0265 -0.7027
18310THY    HM238535   3.507   7.239   3.968  1.0821  1.3006  0.4318
18310THY    HM338536   3.484   7.405   3.885 -0.8395  0.9909  1.5487
18310THY    CA638537   3.567   7.486   4.135 -0.4304  0.3581 -0.0584
18310THY    HA638538   3.638   7.515   4.058 -2.3334 -1.5361 -0.1576
18311THY      O38539   8.060   8.506   1.724  0.7905 -0.0399 -0.1566
18311THY     HO38540   8.038   8.451   1.647 -0.0098 -0.9571  1.3784
18311THY    CA138541   8.187   8.486   1.736 -0.5872 -0.3200  0.5308
18311THY    CA238542   8.278   8.591   1.766  0.7676  0.3559  0.1223
18311THY    CP138543   8.231   8.738   1.789  0.5629  0.0278 -0.7920
18311THY    HP138544   8.127   8.751   1.758  1.1084 -0.5792  3.9352
18311THY    CP238545   8.316   8.832   1.707  0.3189  0.0203 -0.9037
18311THY    HP238546   8.347   8.784   1.614  0.6753 -0.3961  0.1147
18311THY    HP338547   8.410   8.861   1.756 -0.4406  0.1389  1.5776
18311THY    HP438548   8.263   8.926   1.689  1.5541 -1.0107 -0.3814
18311THY    CP338549   8.252   8.762   1.938 -0.7100 -0.3464 -0.1536
18311THY    HP538550   8.357   8.762   1.969 -0.8868  0.5772  2.9582
18311THY    HP638551   8.220   8.677   1.999 -1.5663  1.7316  1.5845
18311THY    HP738552   8.204   8.850   1.982 -0.1093 -0.6448  0.3281
18311THY    CA338553   8.417   8.556   1.772  0.6575  0.6305 -0.1459
18311THY    HA338554   8.486   8.636   1.795 -0.6881 -0.9963  1.5493
18311THY    CA438555   8.460   8.424   1.753  0.1329  0.3312 -0.0624
18311THY    HA438556   8.565   8.407   1.775  0.2802 -0.3863 -0.1199
18311THY    CA538557   8.366   8.324   1.718 -0.2501  0.2073  0.2145
18311THY    CM138558   8.403   8.173   1.710  0.5065  0.0065 -0.5902
18311THY    HM138559   8.315   8.110   1.694  1.2349 -1.3623 -1.3062
18311THY    HM238560   8.461   8.138   1.795 -0.6799  0.9842 -0.2424
18311THY    HM338561   8.477   8.161   1.630 -0.3946 -1.1366  0.9867
18311THY    CA638562   8.233   8.353   1.717  0.1224  0.1302 -0.9482
18311THY    HA638563   8.161   8.276   1.689 -1.0829  0.5327  0.0027
18312THY      O38564   2.042   3.123   6.816  0.1938  0.4197 -0.2562
18312THY     HO38565   2.124   3.166   6.847 -0.0538  1.2571 -0.3724
18312THY    CA138566   2.077   3.004   6.765  0.1589 -0.3902  0.0403
18312THY    CA238567   2.015   2.879   6.814  0.1022 -0.0776  0.0323
18312THY    CP138568   1.904   2.891   6.917  1.0948 -0.0656 -0.1752
18312THY    HP138569   1.839   2.972   6.884  1.5554  1.0913  0.6894
18312THY    CP238570   1.958   2.929   7.061 -0.1984  0.8765  0.1060
18312THY    HP238571   2.023   2.846   7.090  0.2130 -1.1991 -0.3450
18312THY    HP338572   1.876   2.949   7.131  1.7958  3.0696  1.0725
18312THY    HP438573   2.025   3.016   7.062  0.3452 -0.0700 -0.2836
18312THY    CP338574   1.816   2.765   6.939  0.0965 -0.4731 -0.4049
18312THY    HP538575   1.724   2.798   6.988 -0.4938 -0.1394 -2.4313
18312THY    HP638576   1.865   2.681   6.990  0.4261  1.4632  0.8932
18312THY    HP738577   1.782   2.733   6.840 -1.2477  0.0967 -0.7795
18312THY    CA338578   2.070   2.752   6.778 -0.2290 -0.1019 -0.1399
18312THY    HA338579   2.034   2.654   6.808 -0.0519 -0.0721 -0.1962
18312THY    CA438580   2.172   2.753   6.684 -0.1581  0.2541 -0.4581
18312THY    HA438581   2.216   2.657   6.659  0.9623  0.7389 -0.0940
18312THY    CA538582   2.236   2.873   6.642 -0.2503 -0.0429 -0.4391
18312THY    CM138583   2.350   2.874   6.542 -0.1915 -0.5095  0.6041
18312THY    HM138584   2.437   2.917   6.593 -0.5459  0.7364 -0.1112
18312THY    HM238585   2.323   2.917   6.444  1.3956 -1.1649  0.1630
18312THY    HM338586   2.368   2.773   6.506 -1.3809  0.3856  0.0509
18312THY    CA638587   2.180   2.996   6.677  0.3028 -0.4989  0.2216
18312THY    HA638588   2.217   3.087   6.630  2.2292 -0.0289 -0.2777
18313THY      O38589   2.615   7.482   7.717 -0.2057 -0.3921 -0.3753
18313THY     HO38590   2.604   7.531   7.633 -0.5617  1.2375  2.5962
18313THY    CA138591   2.487   7.454   7.751 -0.7753 -1.0332  0.6184
18313THY    CA238592   2.444   7.383   7.863  1.0706 -0.5286  0.0371
18313THY    CP138593   2.550   7.317   7.953 -0.0459 -0.1447  0.1255
18313THY    HP138594   2.653   7.343   7.928  0.1214  2.6460  2.7606
18313THY    CP238595   2.542   7.163   7.946  0.1687  0.1065 -0.1758
18313THY    HP238596   2.588   7.132   7.852 -2.4480 -1.6372  0.8669
18313THY    HP338597   2.442   7.119   7.934  0.6983  0.2341 -1.4531
18313THY    HP438598   2.591   7.105   8.025  1.4775 -1.7124 -1.6523
18313THY    CP338599   2.531   7.357   8.101 -0.2901  0.1441  0.3499
18313THY    HP538600   2.481   7.452   8.118 -1.0493 -0.9288  0.1728
18313THY    HP638601   2.626   7.335   8.151 -0.1926 -0.0440  0.3341
18313THY    HP738602   2.460   7.284   8.142  0.4584  0.0343 -0.4641
18313THY    CA338603   2.309   7.375   7.891 -0.1438 -0.0742  0.9966
18313THY    HA338604   2.272   7.324   7.980  1.9222  1.2421  1.6798
18313THY    CA438605   2.216   7.416   7.790 -0.0522 -0.1306 -0.2425
18313THY    HA438606   2.109   7.398   7.800 -0.1122  1.1829  0.6678
18313THY    CA538607   2.261   7.480   7.679 -0.1480  0.3587 -0.1694
18313THY    CM138608   2.162   7.526   7.571 -0.9194  0.6201 -0.2265
18313THY    HM138609   2.161   7.450   7.492  2.9546 -1.6243  1.6977
18313THY    HM238610   2.191   7.618   7.518 -1.2531  0.2104 -0.3511
18313THY    HM338611   2.065   7.551   7.616 -0.6404  0.6186  0.9413
18313THY    CA638612   2.395   7.496   7.658 -0.2418  0.3903 -0.7495
18313THY    HA638613   2.420   7.549   7.566  0.1359  0.7970 -0.2067
18314THY      O38614   5.861   2.776   2.867  0.5251  0.1540  0.2135
18314THY     HO38615   5.778   2.816   2.899  0.4496  0.7770 -0.4218
18314THY    CA138616   5.932   2.883   2.829  0.2641  0.7301 -0.2403
18314THY    CA238617   6.065   2.871   2.774  0.9844 -0.0590  0.0649
18314THY    CP138618   6.125   2.733   2.741  0.7037  0.1625  0.5618
18314THY    HP138619   6.078   2.668   2.816  0.2425  1.0819  1.9269
18314THY    CP238620   6.270   2.706   2.750  1.0182  0.0517  0.0112
18314THY    HP238621   6.290   2.598   2.748  0.1699 -0.4524 -0.1441
18314THY    HP338622   6.300   2.744   2.848 -2.8474  1.7648 -0.7995
18314THY    HP438623   6.327   2.747   2.666  1.1211  0.0811 -0.0721
18314THY    CP338624   6.083   2.686   2.600  0.5013  0.3111  0.1892
18314THY    HP538625   6.111   2.745   2.512  0.8682 -0.1336 -0.6352
18314THY    HP638626   5.975   2.667   2.602  0.0095 -0.6605  2.5704
18314THY    HP738627   6.122   2.587   2.575  0.1971  1.8591 -0.3502
18314THY    CA338628   6.136   2.989   2.740 -0.3561 -0.2603  0.1010
18314THY    HA338629   6.231   2.986   2.688 -0.1177  0.1964 -0.8139
18314THY    CA438630   6.071   3.111   2.753  0.1676  0.2805 -0.3830
18314THY    HA438631   6.124   3.206   2.746 -3.1751  2.0164  1.8294
18314THY    CA538632   5.930   3.121   2.786 -0.4911 -0.2166 -0.4761
18314THY    CM138633   5.870   3.252   2.807 -0.2230 -0.0127 -0.5863
18314THY    HM138634   5.760   3.245   2.799 -0.3241  2.2786 -3.3032
18314THY    HM238635   5.908   3.315   2.726  0.8537  1.9809  1.4597
18314THY    HM338636   5.897   3.292   2.905 -0.8048 -0.2634  0.4585
18314THY    CA638637   5.867   3.008   2.838 -0.1787  0.5169  0.3001
18314THY    HA638638   5.762   3.004   2.866 -1.8134 -4.7267 -0.3914
18315THY      O38639   2.537   1.092   6.956  0.1787 -0.2421 -0.2748
18315THY     HO38640   2.628   1.083   6.925 -0.1510 -1.2143 -0.3736
18315THY    CA138641   2.493   0.967   6.963  0.4243  0.3416  0.9611
18315THY    CA238642   2.358   0.946   6.983  0.1503  0.2009 -0.1625
18315THY    CP138643   2.267   1.062   6.949 -0.8271 -0.3551  0.1083
18315THY    HP138644   2.297   1.111   6.855  1.8304  1.4593  2.2607
18315THY    CP238645   2.261   1.168   7.068  0.3172 -0.5307 -0.7161
18315THY    HP238646   2.343   1.182   7.139 -1.5600  1.3342  1.8875
18315THY    HP338647   2.175   1.143   7.132  0.9878  0.8419  0.3588
18315THY    HP438648   2.224   1.261   7.023  0.0026 -2.2028 -1.6053
18315THY    CP338649   2.125   1.015   6.910  0.3107 -0.4309  0.7765
18315THY    HP538650   2.076   0.974   7.000 -0.8180 -1.5189 -0.3311
18315THY    HP638651   2.132   0.931   6.841  0.6596  1.0656 -0.4811
18315THY    HP738652   2.062   1.100   6.881  2.7395 -0.2996  2.7387
18315THY    CA338653   2.314   0.818   7.016  0.1080 -1.0547  0.2627
18315THY    HA338654   2.208   0.799   7.032  0.2390 -0.8931 -0.3512
18315THY    CA438655   2.403   0.709   7.034  0.2224  0.2575 -0.4873
18315THY    HA438656   2.367   0.607   7.040 -0.3445 -1.1076 -0.3810
18315THY    CA538657   2.540   0.736   7.023  0.0189  0.5080  0.6577
18315THY    CM138658   2.631   0.620   7.029  0.8555 -0.2723 -0.3913
18315THY    HM138659   2.588   0.520   7.012  0.3540  1.4074 -0.4786
18315THY    HM238660   2.676   0.606   7.127  0.4118 -0.1400 -0.9354
18315THY    HM338661   2.707   0.626   6.950 -0.2535 -1.3346 -0.0057
18315THY    CA638662   2.585   0.866   6.994  0.1459 -0.2833 -0.0176
18315THY    HA638663   2.692   0.865   6.977  0.1412 -0.3588 -1.3876
18316THY      O38664   3.032   5.284   3.962  0.4791  0.8385  0.1541
18316THY     HO38665   3.083   5.350   3.911  0.4546  0.5280 -0.0638
18316THY    CA138666   2.944   5.347   4.046  0.2237 -0.6049  0.1704
18316THY    CA238667   2.877   5.287   4.156 -0.1261 -0.1172  0.5044
18316THY    CP138668   2.909   5.142   4.186 -0.0725 -0.0215 -0.1057
18316THY    HP138669   2.921   5.083   4.095  2.9975 -0.2524  0.7248
18316THY    CP238670   2.804   5.071   4.272  0.2572 -0.2182  0.3894
18316THY    HP238671   2.702   5.073   4.232 -1.0219  2.7689  1.7223
18316THY    HP338672   2.806   5.111   4.374 -1.7142 -0.4433  1.1638
18316THY    HP438673   2.829   4.966   4.291  0.2967  0.3136  0.4883
18316THY    CP338674   3.049   5.119   4.260 -0.1916  0.0552  0.0742
18316THY    HP538675   3.050   5.176   4.354  1.6038  1.6695 -2.4479
18316THY    HP638676   3.132   5.142   4.193  0.6478  1.1503  0.3110
18316THY    HP738677   3.053   5.013   4.287 -0.7973 -0.1467 -0.0040
18316THY    CA338678   2.791   5.364   4.233  0.1870  0.2220  0.0832
18316THY    HA338679   2.740   5.322   4.319  2.7508  2.5351  1.4163
18316THY    CA438680   2.767   5.495   4.200  0.3257  0.6493 -0.0804
18316THY    HA438681   2.696   5.556   4.255  0.3060  0.0393  0.4523
18316THY    CA538682   2.833   5.561   4.097  0.3672  0.2627  0.2764
18316THY    CM138683   2.819   5.709   4.068  0.3220 -0.0245 -0.3180
18316THY    HM138684   2.801   5.784   4.146 -0.2064 -1.5909  1.2698
18316THY    HM238685   2.744   5.726   3.990  1.5221 -0.8103  1.7682
18316THY    HM338686   2.910   5.742   4.016  0.4370 -0.3127 -1.0635
18316THY    CA638687   2.918   5.482   4.024 -0.0415 -0.1946  0.2078
18316THY    HA638688   2.965   5.528   3.937 -0.1480  1.1078  3.0035
18317THY      O38689   8.040   1.410   7.213  0.6521  0.2951  0.3175
18317THY     HO38690   7.995   1.475   7.270 -2.9774 -1.5012 -0.3321
18317THY    CA138691   7.954   1.310   7.225 -0.5485  0.2220 -0.1644
18317THY    CA238692   7.952   1.201   7.142 -0.5987  0.3346  0.1187
18317THY    CP138693   8.053   1.164   7.039 -0.0825 -0.1670 -0.1896
18317THY    HP138694   8.113   1.255   7.029  0.1597  0.8893 -0.2276
18317THY    CP238695   7.991   1.133   6.901  0.7975 -0.1780 -0.3843
18317THY    HP238696   7.914   1.054   6.902 -0.5663 -0.3499  0.8986
18317THY    HP338697   8.073   1.100   6.836  1.1196  0.5798 -1.1050
18317THY    HP438698   7.944   1.226   6.867  1.5285  0.4941  0.2360
18317THY    CP338699   8.157   1.050   7.080  0.5922  0.3141 -0.0325
18317THY    HP538700   8.155   1.019   7.185 -0.7359  0.7060  1.2307
18317THY    HP638701   8.251   1.065   7.026 -0.0834 -0.4829  1.6084
18317THY    HP738702   8.119   0.958   7.036 -0.8380 -0.1161  0.7334
18317THY    CA338703   7.856   1.099   7.161  0.0400  0.5933  0.1617
18317THY    HA338704   7.846   1.006   7.106 -1.4267 -0.2224  0.7812
18317THY    CA438705   7.768   1.114   7.267 -0.2243  0.0707  0.3515
18317THY    HA438706   7.695   1.036   7.287 -0.9270  0.1756  1.0211
18317THY    CA538707   7.765   1.225   7.350  0.0871  0.0314 -0.4531
18317THY    CM138708   7.670   1.247   7.460 -0.0657  0.1508 -0.0153
18317THY    HM138709   7.621   1.152   7.482 -2.3537  0.7176  1.2309
18317THY    HM238710   7.604   1.327   7.425  1.5881 -0.6690  1.0389
18317THY    HM338711   7.718   1.287   7.551 -0.9865 -0.2053  2.0312
18317THY    CA638712   7.865   1.324   7.331 -0.0666  0.1325 -0.7209
18317THY    HA638713   7.848   1.416   7.386 -1.5477  2.2281 -2.1535
18318THY      O38714   7.975   2.443   6.806  0.5663 -0.2837  0.1523
18318THY     HO38715   8.017   2.462   6.720 -1.5881 -1.5361 -0.4838
18318THY    CA138716   7.868   2.362   6.769  0.3497 -0.0779 -0.4278
18318THY    CA238717   7.744   2.379   6.830 -0.5454  0.9295  0.2916
18318THY    CP138718   7.721   2.491   6.929 -0.2668  0.1282 -0.4347
18318THY    HP138719   7.798   2.566   6.909 -0.9033  3.0722  1.1047
18318THY    CP238720   7.716   2.457   7.078 -0.5111 -0.6483 -0.2110
18318THY    HP238721   7.617   2.438   7.122  0.0664  0.6212 -0.3636
18318THY    HP338722   7.756   2.547   7.127 -1.0964 -1.7387  0.6586
18318THY    HP438723   7.794   2.390   7.117  1.1314  1.6117  2.7448
18318THY    CP338724   7.588   2.571   6.907  0.0936 -0.9137 -0.0516
18318THY    HP538725   7.577   2.653   6.979  2.1685 -0.5801 -0.0059
18318THY    HP638726   7.510   2.494   6.910 -1.0446  0.0184  1.0975
18318THY    HP738727   7.578   2.610   6.806 -1.2172 -2.1162 -3.1432
18318THY    CA338728   7.649   2.274   6.803 -0.4881 -0.5017 -0.3034
18318THY    HA338729   7.557   2.257   6.858 -1.4763 -2.5717 -2.0775
18318THY    CA438730   7.676   2.165   6.714 -0.0212  0.3303  0.9310
18318THY    HA438731   7.601   2.087   6.705 -0.1603  0.2370  1.0745
18318THY    CA538732   7.804   2.155   6.661 -0.0005 -0.1985 -0.1244
18318THY    CM138733   7.856   2.023   6.599 -0.6468  0.0299  0.2315
18318THY    HM138734   7.845   1.943   6.673 -0.9670  0.1703  0.4023
18318THY    HM238735   7.958   2.032   6.559 -1.6632 -2.6830  0.5841
18318THY    HM338736   7.804   2.008   6.504 -1.8264  0.4377  1.5823
18318THY    CA638737   7.898   2.254   6.689  0.6440  0.0643  0.3687
18318THY    HA638738   8.002   2.241   6.661  1.3020  2.0071  1.0242
18319THY      O38739   4.495   1.380   4.734 -0.5939 -0.2323  0.3416
18319THY     HO38740   4.581   1.348   4.765  0.2935 -1.2718  1.6036
18319THY    CA138741   4.468   1.497   4.795  0.2554 -0.2491 -0.1659
18319THY    CA238742   4.359   1.579   4.750  0.5734  0.5551 -0.5917
18319THY    CP138743   4.285   1.553   4.622  0.4259  0.0342 -0.1215
18319THY    HP138744   4.321   1.459   4.579 -0.5074  2.2690 -1.5866
18319THY    CP238745   4.312   1.665   4.521 -0.2803  0.2074  1.1932
18319THY    HP238746   4.265   1.757   4.558  0.2420  1.4356  0.9834
18319THY    HP338747   4.275   1.619   4.428 -1.9198  1.3092  0.1679
18319THY    HP438748   4.415   1.702   4.520  0.1001  2.4212  0.3317
18319THY    CP338749   4.134   1.541   4.651  0.2801 -0.1232  0.0445
18319THY    HP538750   4.131   1.465   4.730 -1.1839  1.5611  1.7439
18319THY    HP638751   4.082   1.510   4.560  0.6752 -1.0819  2.0504
18319THY    HP738752   4.089   1.634   4.688 -0.2855 -0.2019 -0.1965
18319THY    CA338753   4.335   1.700   4.818  0.4145  0.2578 -0.3074
18319THY    HA338754   4.268   1.778   4.781  1.8237  0.2508  0.9475
18319THY    CA438755   4.406   1.728   4.936 -0.7156  0.3331  0.8286
18319THY    HA438756   4.379   1.816   4.995  0.2882  1.1320  0.6307
18319THY    CA538757   4.497   1.635   4.990  0.7171 -0.4118 -0.5307
18319THY    CM138758   4.568   1.670   5.120 -0.7250 -0.5707 -0.1754
18319THY    HM138759   4.660   1.719   5.085 -1.2800 -1.6268  0.1334
18319THY    HM238760   4.600   1.581   5.176 -3.0744  1.5856  0.2306
18319THY    HM338761   4.510   1.740   5.182  0.3332 -0.2521  0.4462
18319THY    CA638762   4.539   1.524   4.910  0.1627  0.0731 -0.5499
18319THY    HA638763   4.604   1.446   4.949 -0.3570 -1.0562 -1.5724
18320THY      O38764   3.026   7.256   1.964  0.3797 -0.1110  0.1204
18320THY     HO38765   2.948   7.265   2.021  0.6110  0.2270  0.0064
18320THY    CA138766   3.050   7.384   1.919  0.0184  0.2107  0.4763
18320THY    CA238767   3.161   7.417   1.843 -0.5116 -0.2667 -0.0515
18320THY    CP138768   3.261   7.308   1.811  0.2558 -0.3485 -0.2114
18320THY    HP138769   3.200   7.219   1.793 -0.5883  2.3634 -0.2641
18320THY    CP238770   3.358   7.292   1.935 -0.7255 -0.2554  0.0893
18320THY    HP238771   3.433   7.220   1.900 -0.5204  0.8681 -0.2462
18320THY    HP338772   3.306   7.253   2.023 -0.5266 -0.7613 -1.3621
18320THY    HP438773   3.400   7.389   1.964  2.9782  0.2560 -1.5239
18320THY    CP338774   3.340   7.334   1.681 -0.0691 -0.2484 -1.2346
18320THY    HP538775   3.281   7.390   1.608  2.1354 -1.1880  0.0010
18320THY    HP638776   3.367   7.236   1.638 -2.4714 -1.2131 -1.5370
18320THY    HP738777   3.422   7.403   1.703 -1.6455 -0.9423  0.9504
18320THY    CA338778   3.185   7.550   1.816  0.7224  0.7569 -0.1319
18320THY    HA338779   3.282   7.582   1.779  0.2576 -0.7309 -0.3303
18320THY    CA438780   3.096   7.645   1.863  0.1968 -0.3834 -0.2991
18320THY    HA438781   3.115   7.750   1.844 -1.6959  1.5586  0.4674
18320THY    CA538782   2.973   7.607   1.921 -0.9893 -0.3161  0.0675
18320THY    CM138783   2.868   7.715   1.938 -0.0944 -0.3057  0.6196
18320THY    HM138784   2.828   7.745   1.840 -1.3611  0.4426  1.4996
18320THY    HM238785   2.897   7.806   1.991  1.0145 -2.3021  1.4906
18320THY    HM338786   2.784   7.666   1.988 -0.0189  0.2227  1.0204
18320THY    CA638787   2.955   7.475   1.950 -0.0769 -0.0084  0.2576
18320THY    HA638788   2.859   7.438   1.984 -0.5020 -1.9510 -0.5407
18321THY      O38789   9.215   2.657   2.467 -0.0992  0.1042 -0.2509
18321THY     HO38790   9.213   2.667   2.370  1.0255  0.1227  0.3440
18321THY    CA138791   9.286   2.543   2.490 -0.1670  0.0635 -0.3484
18321THY    CA238792   9.346   2.513   2.613  0.3875 -0.3581 -0.3809
18321THY    CP138793   9.347   2.610   2.729  0.3056 -0.4685 -0.0184
18321THY    HP138794   9.303   2.702   2.689  1.8816 -1.7953  0.2233
18321THY    CP238795   9.489   2.663   2.767 -0.1315  1.0830 -0.4708
18321THY    HP238796   9.505   2.748   2.700 -4.1128  0.6451  0.0967
18321THY    HP338797   9.574   2.596   2.749  0.5154  1.4137  0.2365
18321THY    HP438798   9.493   2.704   2.869  0.5067  0.3755  1.3265
18321THY    CP338799   9.281   2.557   2.849 -0.1799 -0.3905 -0.7271
18321THY    HP538800   9.323   2.466   2.894 -0.6046  3.7592  0.9114
18321THY    HP638801   9.178   2.528   2.827 -0.4672  1.2254 -1.0473
18321THY    HP738802   9.281   2.626   2.935 -0.1710 -0.0492 -1.1450
18321THY    CA338803   9.416   2.388   2.621 -0.8073  0.5876 -1.0307
18321THY    HA338804   9.467   2.352   2.710  0.4006 -0.3384 -1.6757
18321THY    CA438805   9.421   2.301   2.511 -0.7586 -0.0580  0.2025
18321THY    HA438806   9.488   2.215   2.516 -1.1572  0.3348 -0.0879
18321THY    CA538807   9.371   2.337   2.383  0.1723 -0.4348  0.0528
18321THY    CM138808   9.385   2.246   2.274  0.1124 -0.2045  0.1726
18321THY    HM138809   9.314   2.164   2.289  1.4323  3.2327 -0.4955
18321THY    HM238810   9.490   2.219   2.265  1.1811  0.6568  3.5002
18321THY    HM338811   9.355   2.302   2.184  1.0829  0.1916  1.3632
18321THY    CA638812   9.309   2.457   2.375 -0.3089 -0.2072  0.2354
18321THY    HA638813   9.271   2.488   2.279 -0.0755 -0.3192  0.1744
18322THY      O38814   4.594   8.943   6.822 -0.0421  0.4801 -0.3024
18322THY     HO38815   4.628   8.914   6.736 -0.5673  0.1689 -0.0016
18322THY    CA138816   4.703   8.947   6.911  0.1959  0.1027 -0.0816
18322THY    CA238817   4.681   8.959   7.056  0.4255  0.3318 -0.6194
18322THY    CP138818   4.547   8.978   7.112  0.0037 -0.3175 -0.8155
18322THY    HP138819   4.471   8.970   7.033  0.2509 -0.4133 -2.6574
18322THY    CP238820   4.529   9.123   7.168  1.1459  0.1128 -1.0707
18322THY    HP238821   4.423   9.148   7.173  1.0313 -1.5863 -1.0560
18322THY    HP338822   4.588   9.193   7.107 -0.8837 -0.1870  0.4480
18322THY    HP438823   4.558   9.129   7.273  0.8742  0.2384 -1.8543
18322THY    CP338824   4.503   8.874   7.222  0.3736  0.1345  0.2362
18322THY    HP538825   4.515   8.771   7.186 -2.0363 -0.6161  0.1435
18322THY    HP638826   4.410   8.888   7.279 -0.5314 -0.4740 -2.6054
18322THY    HP738827   4.569   8.875   7.309  0.1774  0.3652 -1.7705
18322THY    CA338828   4.799   8.969   7.136 -0.6035  0.2723 -0.5666
18322THY    HA338829   4.793   8.978   7.244  0.8009  0.4317 -1.2859
18322THY    CA438830   4.925   8.966   7.077  0.5882  0.2205  0.2608
18322THY    HA438831   5.013   8.966   7.140 -0.2947  1.7209 -3.2561
18322THY    CA538832   4.944   8.940   6.942 -0.3911 -0.7302  0.4904
18322THY    CM138833   5.077   8.935   6.888 -0.2392  0.6783 -0.3036
18322THY    HM138834   5.086   9.029   6.832 -0.9899  0.1560 -0.5294
18322THY    HM238835   5.098   8.851   6.822  0.3363  0.8539 -0.2990
18322THY    HM338836   5.154   8.930   6.966 -2.0352  2.5827  0.0860
18322THY    CA638837   4.834   8.934   6.856 -0.1513 -0.3265 -0.2161
18322THY    HA638838   4.847   8.922   6.749 -0.4057 -0.6439  1.9545
18323THY      O38839   6.026   1.963   4.019  0.1743 -0.2971  0.0971
18323THY     HO38840   5.944   1.973   3.968  0.5282 -1.2326 -1.3300
18323THY    CA138841   6.050   1.829   4.023  0.1743 -0.0494 -1.1008
18323THY    CA238842   6.137   1.767   4.103 -0.3848  0.0668 -0.1864
18323THY    CP138843   6.212   1.854   4.203 -0.3680  0.0459 -0.5721
18323THY    HP138844   6.203   1.962   4.191 -0.6050  0.2589 -0.5663
18323THY    CP238845   6.365   1.814   4.206 -0.1394  0.4715 -0.4088
18323THY    HP238846   6.374   1.712   4.243 -2.3996 -2.0354 -1.6495
18323THY    HP338847   6.421   1.870   4.281  0.1859  2.1559 -2.8489
18323THY    HP438848   6.416   1.812   4.109 -0.2435  0.4306 -1.5563
18323THY    CP338849   6.144   1.832   4.336  0.0859  0.1670 -0.2241
18323THY    HP538850   6.187   1.897   4.413 -0.4263 -0.2586  0.6399
18323THY    HP638851   6.155   1.727   4.366 -0.4263  0.6950 -0.1333
18323THY    HP738852   6.038   1.859   4.327  0.8264  0.0653  3.0427
18323THY    CA338853   6.142   1.628   4.101 -0.7668  0.6123  0.4936
18323THY    HA338854   6.210   1.576   4.167  1.6786 -2.7543 -0.9923
18323THY    CA438855   6.072   1.548   4.009 -0.4987  0.0160 -0.2547
18323THY    HA438856   6.073   1.440   4.023  2.9310  0.7861 -0.2596
18323THY    CA538857   5.982   1.621   3.927 -0.7285  0.4927  0.4932
18323THY    CM138858   5.894   1.553   3.833  0.1135  0.2613  0.0762
18323THY    HM138859   5.899   1.580   3.727 -0.1955 -0.6045 -2.9939
18323THY    HM238860   5.792   1.585   3.856 -0.1178 -0.2556 -0.2874
18323THY    HM338861   5.907   1.445   3.823 -0.9204  2.3996 -0.3082
18323THY    CA638862   5.974   1.761   3.937  0.6761  0.5391  0.2419
18323THY    HA638863   5.897   1.808   3.877  0.2726  0.3320 -0.6738
18324THY      O38864   2.674   5.766   3.112 -0.2399 -0.7079 -0.4623
18324THY     HO38865   2.637   5.848   3.151 -4.0411  1.2623 -2.8347
18324THY    CA138866   2.804   5.799   3.089 -0.0798 -0.3877  0.2059
18324THY    CA238867   2.890   5.728   2.996 -0.0035  0.2256 -0.0278
18324THY    CP138868   2.818   5.614   2.924  0.0206  0.0432  0.0295
18324THY    HP138869   2.711   5.634   2.918  0.1689 -0.1084  0.8450
18324THY    CP238870   2.826   5.482   3.004  0.3642 -0.6079  0.4895
18324THY    HP238871   2.762   5.497   3.091 -0.7034 -1.5121  1.3613
18324THY    HP338872   2.924   5.446   3.038  0.2999  2.6061  2.8676
18324THY    HP438873   2.791   5.403   2.937 -0.9487  0.3898  0.1955
18324THY    CP338874   2.867   5.586   2.778  0.2104  0.1487 -0.2144
18324THY    HP538875   2.965   5.536   2.779 -0.4982  0.4869 -1.6453
18324THY    HP638876   2.870   5.676   2.716 -0.6342  0.2209 -0.1342
18324THY    HP738877   2.802   5.514   2.728 -0.6848  0.2355  0.5261
18324THY    CA338878   3.025   5.766   2.970  0.2799 -0.4568  0.1623
18324THY    HA338879   3.079   5.717   2.890  0.1396 -0.8475  0.6386
18324THY    CA438880   3.078   5.872   3.044  0.6592  0.4816 -0.7725
18324THY    HA438881   3.179   5.909   3.026  0.6844 -0.8370 -1.4674
18324THY    CA538882   2.990   5.949   3.129 -0.0965  0.1680 -0.5009
18324THY    CM138883   3.028   6.069   3.201  0.0590 -0.1163 -0.0462
18324THY    HM138884   3.002   6.163   3.152  0.3720  0.7319  0.4892
18324THY    HM238885   3.137   6.080   3.213  0.1889 -1.6281  0.5778
18324THY    HM338886   2.988   6.073   3.303 -1.5705 -0.6805 -0.8645
18324THY    CA638887   2.856   5.915   3.143 -0.5885  0.2550 -0.4224
18324THY    HA638888   2.797   5.979   3.209 -1.8321 -0.5724 -0.6901
18325THY      O38889   7.057   8.997   4.785  0.0297  0.0708 -0.3828
18325THY     HO38890   7.129   9.023   4.725 -0.7737 -1.1867 -0.9944
18325THY    CA138891   7.024   9.112   4.854  0.1533  0.7553 -0.0024
18325THY    CA238892   6.945   9.118   4.970  0.8010  0.2070  0.5671
18325THY    CP138893   6.888   8.984   5.034 -0.2755  0.1550  0.3465
18325THY    HP138894   6.933   8.896   4.986 -2.0607  2.1759 -1.8167
18325THY    CP238895   6.738   8.978   5.008  0.7009  0.3152  0.0262
18325THY    HP238896   6.684   8.925   5.088  0.4948  0.5549  0.5872
18325THY    HP338897   6.711   8.951   4.905 -0.9826  0.3210  1.4594
18325THY    HP438898   6.705   9.079   5.032  0.5425 -0.1637  0.0897
18325THY    CP338899   6.910   8.981   5.185 -0.5668 -0.0495  1.1293
18325THY    HP538900   7.019   8.987   5.193 -0.5916 -0.4574  2.2889
18325THY    HP638901   6.884   8.882   5.224  2.6569 -1.2800 -0.3322
18325THY    HP738902   6.856   9.056   5.242 -0.6989  0.8433  0.3742
18325THY    CA338903   6.932   9.239   5.038 -0.3072 -0.1155  0.0371
18325THY    HA338904   6.869   9.246   5.126 -1.6569 -0.4496 -4.6238
18325THY    CA438905   6.984   9.359   4.978 -0.2912  0.4226  0.4759
18325THY    HA438906   6.967   9.458   5.020  1.0622  0.1287  0.8447
18325THY    CA538907   7.056   9.349   4.864 -0.7699 -0.2294 -0.3737
18325THY    CM138908   7.099   9.485   4.799 -0.9430 -0.3212  0.1304
18325THY    HM138909   7.141   9.460   4.701 -0.5689  0.3989 -2.3313
18325THY    HM238910   7.175   9.529   4.865  2.7346 -2.0273 -3.0792
18325THY    HM338911   7.016   9.556   4.807 -0.9298  0.0686  0.1062
18325THY    CA638912   7.081   9.224   4.806  0.0459 -0.4818 -0.2453
18325THY    HA638913   7.132   9.221   4.710  0.1894 -0.4028 -0.3447
18326THY      O38914   7.223   6.941   2.396 -0.0754  0.3988  0.4652
18326THY     HO38915   7.222   6.851   2.360 -2.5127  1.7269 -0.0996
18326THY    CA138916   7.148   7.001   2.296 -0.0080 -0.0449  0.6845
18326THY    CA238917   7.141   7.140   2.290  0.1682 -0.4738 -0.0683
18326THY    CP138918   7.205   7.227   2.401 -0.2346  0.3077 -0.0078
18326THY    HP138919   7.267   7.164   2.465  0.9965 -2.2578 -1.5940
18326THY    CP238920   7.103   7.293   2.498  0.0509 -0.1478  0.1310
18326THY    HP238921   7.022   7.226   2.530  0.6328  0.6847 -0.1984
18326THY    HP338922   7.064   7.388   2.460 -0.2249 -0.7490 -0.2175
18326THY    HP438923   7.148   7.318   2.595  1.7097 -0.8050 -0.2309
18326THY    CP338924   7.296   7.332   2.344 -0.6662 -0.0323  0.2802
18326THY    HP538925   7.371   7.371   2.415  1.6762 -2.3079  0.1994
18326THY    HP638926   7.252   7.413   2.285  2.7768 -1.1826  1.5091
18326THY    HP738927   7.357   7.288   2.265 -1.2095  0.2165 -0.9654
18326THY    CA338928   7.059   7.199   2.189 -0.6284 -0.2550  0.4303
18326THY    HA338929   7.048   7.307   2.193 -2.1875 -1.3537  0.3447
18326THY    CA438930   6.976   7.120   2.108 -0.5259 -0.1951  0.6257
18326THY    HA438931   6.908   7.172   2.042  0.9394 -1.0305  1.5640
18326THY    CA538932   6.993   6.975   2.109  0.3300  0.3037  0.4274
18326THY    CM138933   6.912   6.882   2.023 -0.8923 -0.3540 -0.1913
18326THY    HM138934   6.826   6.927   1.973 -0.0993 -0.6446  1.0561
18326THY    HM238935   6.863   6.804   2.081  0.5143  0.5644 -0.4348
18326THY    HM338936   6.978   6.829   1.953 -2.0704 -0.5296 -1.4849
18326THY    CA638937   7.076   6.919   2.209 -0.4691 -0.9130  0.3648
18326THY    HA638938   7.073   6.812   2.223  1.9707 -0.8933  0.2556
18327THY      O38939   7.860   6.595   4.738 -0.3855 -0.6904  0.6998
18327THY     HO38940   7.796   6.668   4.746 -2.2587 -1.3238 -0.8065
18327THY    CA138941   7.961   6.658   4.680  0.1927  0.0832 -0.3959
18327THY    CA238942   8.089   6.601   4.667  0.3134 -0.0793  0.0271
18327THY    CP138943   8.122   6.470   4.744 -0.8943 -0.3467  0.2545
18327THY    HP138944   8.052   6.446   4.825 -1.8644 -1.1966  0.1112
18327THY    CP238945   8.255   6.491   4.827 -1.0428  0.0383 -0.5054
18327THY    HP238946   8.290   6.594   4.819 -2.9332  0.9488  0.2457
18327THY    HP338947   8.339   6.425   4.802 -1.0584  1.4193 -1.0885
18327THY    HP438948   8.240   6.482   4.935  0.2639  0.1541 -1.7511
18327THY    CP338949   8.124   6.336   4.661  0.3230  0.2381 -0.3792
18327THY    HP538950   8.189   6.345   4.573  1.5741  1.1277 -0.5313
18327THY    HP638951   8.023   6.324   4.620  0.9808 -1.3120 -0.8924
18327THY    HP738952   8.150   6.249   4.723 -1.8028  0.6526 -0.7689
18327THY    CA338953   8.176   6.666   4.581 -0.0712  0.1824  0.1854
18327THY    HA338954   8.279   6.633   4.577 -0.1410  0.0258 -0.0159
18327THY    CA438955   8.143   6.793   4.525  0.3240  0.5305  0.3491
18327THY    HA438956   8.205   6.842   4.450  1.0822 -0.6179 -2.2315
18327THY    CA538957   8.018   6.848   4.542  0.5070 -0.9157 -0.5009
18327THY    CM138958   7.990   6.983   4.481 -0.0134  0.5881 -0.0426
18327THY    HM138959   7.932   7.040   4.555  0.3163  0.1752  0.8344
18327THY    HM238960   7.942   6.969   4.384 -0.3461  0.8211 -0.5847
18327THY    HM338961   8.088   7.032   4.472 -0.7964  0.1047  1.4858
18327THY    CA638962   7.929   6.782   4.618 -0.0410 -0.4684  0.1145
18327THY    HA638963   7.826   6.816   4.621 -0.2604 -0.7095 -0.5080
18328THY      O38964   4.749   0.696   7.093  0.1324 -0.1940 -0.1487
18328THY     HO38965   4.795   0.656   7.169  1.3387 -1.6503 -1.7145
18328THY    CA138966   4.640   0.623   7.068  0.5681 -0.4027  0.9101
18328THY    CA238967   4.550   0.664   6.968 -0.2625 -0.0326  0.5599
18328THY    CP138968   4.564   0.805   6.908 -0.6594  0.2174  0.3089
18328THY    HP138969   4.643   0.861   6.959 -0.3012 -0.4513  0.4176
18328THY    CP238970   4.444   0.891   6.912 -0.0290 -0.4219 -0.1886
18328THY    HP238971   4.430   0.928   7.015  0.9529 -0.8496  1.4769
18328THY    HP338972   4.351   0.843   6.880 -0.3185 -0.2830  0.2697
18328THY    HP438973   4.453   0.981   6.850  1.9586 -0.8126 -0.6142
18328THY    CP338974   4.611   0.787   6.760  0.0820 -0.1879  0.4772
18328THY    HP538975   4.533   0.734   6.704 -1.4935 -0.3243  2.7858
18328THY    HP638976   4.701   0.725   6.771 -0.9760 -1.0945 -1.2829
18328THY    HP738977   4.632   0.882   6.708 -0.3370 -0.7961  0.2459
18328THY    CA338978   4.448   0.573   6.916 -0.4750 -0.2972 -0.1823
18328THY    HA338979   4.378   0.597   6.837 -0.2029 -0.3971  0.2994
18328THY    CA438980   4.447   0.450   6.972  0.0426  0.3307  0.0459
18328THY    HA438981   4.383   0.373   6.931  0.5037 -0.7159  0.1987
18328THY    CA538982   4.528   0.415   7.086  0.6098 -0.1378  0.0151
18328THY    CM138983   4.524   0.279   7.142  0.5930  0.6965  0.2963
18328THY    HM138984   4.482   0.211   7.067  0.6033 -0.1186  1.1726
18328THY    HM238985   4.475   0.275   7.240  0.7362  0.7851  0.7325
18328THY    HM338986   4.626   0.244   7.162  0.6726  0.6304  0.4949
18328THY    CA638987   4.618   0.504   7.141 -0.6295  0.1090  0.7398
18328THY    HA638988   4.679   0.471   7.225 -2.2500  1.1301  0.2354
18329THY      O38989   4.059   7.229   1.923  0.0917 -1.0043  0.7720
18329THY     HO38990   4.069   7.231   1.826 -0.7005 -1.0843  1.2642
18329THY    CA138991   3.946   7.159   1.946  0.8097  0.1898 -0.4222
18329THY    CA238992   3.882   7.168   2.069 -0.0036 -0.2748 -0.4532
18329THY    CP138993   3.945   7.240   2.188 -0.4597 -0.0329 -0.1835
18329THY    HP138994   3.990   7.329   2.143 -0.6240 -0.7699 -0.4615
18329THY    CP238995   4.054   7.165   2.253 -1.0283 -0.0025  0.2647
18329THY    HP238996   4.027   7.063   2.280 -1.2262  2.1064  0.8196
18329THY    HP338997   4.102   7.215   2.338  0.9564 -1.3758  0.8694
18329THY    HP438998   4.131   7.153   2.176 -0.9346 -0.0286  0.9486
18329THY    CP338999   3.848   7.292   2.292 -0.4561  0.1280 -0.0951
18329THY    HP539000   3.795   7.217   2.352 -1.3213 -0.0885  0.3411
18329THY    HP639001   3.772   7.350   2.239  1.2116 -1.8710  0.3840
18329THY    HP739002   3.908   7.354   2.360 -1.6969  1.0160  0.1561
18329THY    CA339003   3.763   7.091   2.083  0.0187 -0.0143  0.2847
18329THY    HA339004   3.712   7.091   2.179 -1.3160 -0.6796 -0.8127
18329THY    CA439005   3.726   7.002   1.981  0.1560  0.4945 -0.0947
18329THY    HA439006   3.646   6.929   1.989  2.0702  1.1122 -2.2491
18329THY    CA539007   3.788   6.992   1.856  0.5716 -0.7523 -0.1985
18329THY    CM139008   3.737   6.898   1.751  0.4779  0.0952 -0.7108
18329THY    HM139009   3.631   6.911   1.728  0.3397  1.0194 -0.1223
18329THY    HM239010   3.745   6.799   1.798  0.7551  1.5332 -0.0381
18329THY    HM339011   3.797   6.896   1.659  0.4815  0.0961 -0.6624
18329THY    CA639012   3.896   7.076   1.844 -0.0521 -0.3919 -0.6461
18329THY    HA639013   3.945   7.075   1.747  1.5178  0.3656 -0.0651
18330THY      O39014   4.208   7.666   5.392 -0.2624  0.3360  0.3128
18330THY     HO39015   4.118   7.694   5.416  0.4849  1.2075  2.1649
18330THY    CA139016   4.245   7.579   5.489 -0.2712  0.6363  0.0220
18330THY    CA239017   4.356   7.491   5.475  0.1537 -0.1005  0.5352
18330THY    CP139018   4.427   7.485   5.339 -0.4139  0.5102  0.4855
18330THY    HP139019   4.429   7.581   5.285  0.8926  0.7261  0.6032
18330THY    CP239020   4.369   7.379   5.241  0.0994 -0.2661 -0.0569
18330THY    HP239021   4.394   7.274   5.262  2.4869  2.0263  0.8434
18330THY    HP339022   4.400   7.400   5.138  2.2969  0.0934 -1.2438
18330THY    HP439023   4.262   7.399   5.250  0.1369 -0.2139  0.1296
18330THY    CP339024   4.579   7.450   5.357 -0.4529 -0.0072  0.3582
18330THY    HP539025   4.593   7.355   5.410  1.4358  0.5362  0.8965
18330THY    HP639026   4.623   7.528   5.421  0.7380  0.6875 -0.8401
18330THY    HP739027   4.632   7.445   5.261 -1.0492 -0.4005  1.3396
18330THY    CA339028   4.371   7.398   5.584 -0.3575  0.5744  0.0936
18330THY    HA339029   4.449   7.323   5.582  0.1797 -0.7325  0.6628
18330THY    CA439030   4.269   7.392   5.684 -0.0581  0.6491  0.4579
18330THY    HA439031   4.273   7.324   5.769  0.6969 -1.6126 -2.5265
18330THY    CA539032   4.167   7.488   5.699  0.1839 -0.4717  0.3004
18330THY    CM139033   4.065   7.473   5.812 -0.0972 -0.1382 -0.7253
18330THY    HM139034   4.114   7.468   5.910  2.1483 -1.2154 -1.0772
18330THY    HM239035   4.026   7.372   5.794 -2.2296 -1.3742  0.2373
18330THY    HM339036   3.985   7.546   5.799 -1.9163  1.2268 -2.3566
18330THY    CA639037   4.160   7.579   5.596  0.0994  0.2314  0.1358
18330THY    HA639038   4.079   7.650   5.605 -1.7712 -1.3522 -1.6547
18331THY      O39039   5.130   7.049   5.827 -0.5882  0.2612 -0.1687
18331THY     HO39040   5.120   7.048   5.924  1.4751  0.5824  2.2667
18331THY    CA139041   5.162   7.172   5.779 -0.7229  0.3988 -0.1427
18331THY    CA239042   5.134   7.216   5.647 -0.2732 -0.1700  0.1139
18331THY    CP139043   5.067   7.115   5.550 -0.5156  0.5015  0.0715
18331THY    HP139044   5.046   7.018   5.597  1.5237  2.3498  0.4524
18331THY    CP239045   5.164   7.094   5.435 -0.1361 -0.5233 -0.0687
18331THY    HP239046   5.266   7.067   5.464 -0.4235 -0.4985 -1.1642
18331THY    HP339047   5.160   7.183   5.371 -3.5257 -0.4652 -0.0368
18331THY    HP439048   5.114   7.017   5.375  2.2798 -0.3518 -1.8853
18331THY    CP339049   4.930   7.165   5.502 -0.4484 -0.9758  0.0207
18331THY    HP539050   4.856   7.147   5.581  0.5206 -0.6733 -3.2267
18331THY    HP639051   4.908   7.109   5.411 -2.8785  1.6322 -3.7116
18331THY    HP739052   4.932   7.273   5.484 -1.0920  0.5364  0.3186
18331THY    CA339053   5.174   7.346   5.608 -0.8584 -0.4292  0.2191
18331THY    HA339054   5.152   7.388   5.510 -0.9140 -0.0191  1.1820
18331THY    CA439055   5.235   7.429   5.702  0.2051 -0.4263 -0.0211
18331THY    HA439056   5.253   7.533   5.678 -1.0296 -1.1439  0.0388
18331THY    CA539057   5.244   7.386   5.837  0.6857  0.4683 -0.4342
18331THY    CM139058   5.302   7.468   5.940  0.3604 -0.3764 -0.1972
18331THY    HM139059   5.407   7.437   5.941  0.5018  1.5355  0.2416
18331THY    HM239060   5.253   7.451   6.037 -0.3566 -0.1689  2.5157
18331THY    HM339061   5.306   7.577   5.934 -1.4258 -0.2941 -0.0993
18331THY    CA639062   5.212   7.259   5.874 -0.4986 -0.9683  0.3763
18331THY    HA639063   5.232   7.227   5.976 -0.0483 -1.1261  0.1450
18332THY      O39064   1.252   2.482   6.505  0.2203  0.0184  0.3454
18332THY     HO39065   1.336   2.435   6.516  1.0315 -1.5767  1.3111
18332THY    CA139066   1.276   2.612   6.538 -0.4884 -0.3741 -0.5489
18332THY    CA239067   1.182   2.699   6.615  0.2092  0.2283  0.6463
18332THY    CP139068   1.041   2.648   6.651 -0.1831  0.2459 -0.2748
18332THY    HP139069   1.059   2.550   6.697 -1.6415  0.1591 -0.6031
18332THY    CP239070   0.957   2.617   6.522 -0.0770 -0.4606  0.3295
18332THY    HP239071   1.025   2.564   6.454 -0.7205 -0.7666 -0.1198
18332THY    HP339072   0.917   2.711   6.481  0.4195 -0.3282  0.6033
18332THY    HP439073   0.873   2.555   6.554  0.4567  0.7915  0.2329
18332THY    CP339074   0.956   2.747   6.739 -0.7591 -0.5859  0.6359
18332THY    HP539075   0.860   2.693   6.747 -0.5153 -0.3462  0.2334
18332THY    HP639076   0.934   2.845   6.695 -2.5331 -1.2207 -0.0038
18332THY    HP739077   0.996   2.754   6.841  0.5925 -0.9297 -1.3651
18332THY    CA339078   1.229   2.814   6.661  0.0079  0.0074 -1.2345
18332THY    HA339079   1.159   2.885   6.705 -0.3661 -4.8558  1.9206
18332THY    CA439080   1.361   2.861   6.632  0.3003  0.0837  0.8534
18332THY    HA439081   1.390   2.957   6.674  0.0435 -0.6715  1.2648
18332THY    CA539082   1.445   2.785   6.550  0.6051 -0.1451 -0.4398
18332THY    CM139083   1.584   2.837   6.519 -0.0392  0.3406 -0.2307
18332THY    HM139084   1.576   2.942   6.487 -0.4747  1.1700 -0.0041
18332THY    HM239085   1.626   2.792   6.428  0.0920 -0.2794  1.0924
18332THY    HM339086   1.655   2.819   6.600  0.1357  0.1749 -0.2840
18332THY    CA639087   1.400   2.661   6.504 -0.6248 -0.1503 -0.2588
18332THY    HA639088   1.476   2.604   6.452  0.3131  0.3807  0.4908
18333THY      O39089   3.128   3.499   2.269  0.5797 -0.0387  0.1699
18333THY     HO39090   3.071   3.543   2.334 -2.6355 -2.7466  0.3822
18333THY    CA139091   3.250   3.545   2.295 -0.0177  0.4154  0.5481
18333THY    CA239092   3.342   3.578   2.198 -0.0825  0.6788 -0.1472
18333THY    CP139093   3.303   3.562   2.053  0.0942  0.1934  1.4322
18333THY    HP139094   3.199   3.534   2.032  0.5283 -0.7284  0.4416
18333THY    CP239095   3.377   3.445   1.976 -0.1027 -0.8649 -0.2162
18333THY    HP239096   3.354   3.430   1.870  2.0207 -1.3370 -0.4800
18333THY    HP339097   3.353   3.347   2.021 -1.9471  0.9607  0.9983
18333THY    HP439098   3.485   3.453   1.994 -0.4256  0.2045  2.9657
18333THY    CP339099   3.321   3.693   1.976 -0.6932 -0.2483 -0.2875
18333THY    HP539100   3.253   3.775   2.004 -0.0189 -1.1157  0.5895
18333THY    HP639101   3.300   3.678   1.870  0.3582 -0.3117 -1.3719
18333THY    HP739102   3.422   3.732   1.986 -1.2823  0.2828  1.1693
18333THY    CA339103   3.475   3.608   2.238  0.8238  0.4184  0.3384
18333THY    HA339104   3.545   3.626   2.157 -1.8517 -2.5114 -1.3848
18333THY    CA439105   3.510   3.620   2.371  0.0806  0.4893  0.3998
18333THY    HA439106   3.608   3.659   2.396 -0.5227  0.0699  2.2809
18333THY    CA539107   3.414   3.591   2.470  0.5553  0.2162  0.0683
18333THY    CM139108   3.440   3.627   2.615  0.3742  0.2748 -0.0363
18333THY    HM139109   3.418   3.733   2.632  0.6500 -0.6091  0.1676
18333THY    HM239110   3.543   3.622   2.652 -0.8027  4.2165  0.6340
18333THY    HM339111   3.371   3.565   2.673 -0.2739  1.4416  1.6682
18333THY    CA639112   3.287   3.546   2.435  0.0165 -0.1895  0.0549
18333THY    HA639113   3.223   3.522   2.520  1.5615  1.2599  0.8456
18334THY      O39114   4.979   5.237   4.186 -0.1798  0.4392 -0.3672
18334THY     HO39115   5.036   5.316   4.196  0.8843 -1.5928 -0.8157
18334THY    CA139116   5.029   5.178   4.074 -0.7425 -0.0766 -0.5088
18334THY    CA239117   4.946   5.145   3.963 -0.1391  0.6962 -0.3228
18334THY    CP139118   4.810   5.213   3.964  0.0131 -0.8174  1.0887
18334THY    HP139119   4.812   5.300   4.032  2.6095  1.1972 -0.3911
18334THY    CP239120   4.701   5.116   4.018  0.2707 -0.1270 -0.6595
18334THY    HP239121   4.611   5.178   4.030 -0.8128  0.8529 -2.3608
18334THY    HP339122   4.727   5.089   4.121 -0.8072 -0.1494 -1.8482
18334THY    HP439123   4.684   5.024   3.961 -1.1964  1.3771 -1.3688
18334THY    CP339124   4.763   5.259   3.832  0.0245  0.5868  0.2828
18334THY    HP539125   4.753   5.177   3.760 -0.0991 -0.8685  1.5093
18334THY    HP639126   4.822   5.339   3.784  2.3511 -0.6426 -2.0081
18334THY    HP739127   4.663   5.300   3.849 -1.3503 -3.0864 -1.1386
18334THY    CA339128   4.999   5.084   3.849  0.0657 -0.0425  0.6518
18334THY    HA339129   4.944   5.065   3.757  0.8542 -0.5810  0.9448
18334THY    CA439130   5.137   5.059   3.849 -0.0673 -0.4032 -0.4771
18334THY    HA439131   5.187   5.019   3.762 -0.1780 -1.4243  1.4852
18334THY    CA539132   5.219   5.096   3.954  0.4265 -0.3648  0.5405
18334THY    CM139133   5.361   5.057   3.941 -0.1478 -0.1650 -0.3898
18334THY    HM139134   5.394   4.995   4.025 -1.2203 -0.0598 -0.8331
18334THY    HM239135   5.413   5.152   3.955  0.6125  0.2051 -0.8490
18334THY    HM339136   5.393   5.011   3.847 -0.5941  0.5409 -2.2352
18334THY    CA639137   5.170   5.159   4.071  0.6570  0.2424  0.1546
18334THY    HA639138   5.241   5.181   4.151  0.2021  0.4840  0.7909
18335THY      O39139   5.320   3.798   2.994  0.2110  0.2616 -0.2736
18335THY     HO39140   5.266   3.779   3.074 -0.3848 -0.5084 -2.0806
18335THY    CA139141   5.447   3.804   3.040 -0.0852 -0.9948  0.1803
18335THY    CA239142   5.522   3.922   3.039 -0.1026 -0.1223 -0.1236
18335THY    CP139143   5.475   4.052   2.973  0.0860  0.5105  0.6446
18335THY    HP139144   5.373   4.037   2.935 -1.0616  2.9817  1.6757
18335THY    CP239145   5.567   4.094   2.853 -0.2273  0.3857  0.5900
18335THY    HP239146   5.665   4.129   2.885  0.2568 -0.3517 -0.0478
18335THY    HP339147   5.519   4.174   2.795 -3.0606  2.2742  0.4402
18335THY    HP439148   5.586   4.007   2.790  1.4663 -1.0635  1.9298
18335THY    CP339149   5.456   4.172   3.067 -0.0777  0.1250 -0.0222
18335THY    HP539150   5.556   4.203   3.099 -1.0090  2.6099  0.6176
18335THY    HP639151   5.392   4.149   3.152 -1.1527 -0.3953  0.9514
18335THY    HP739152   5.409   4.253   3.010  0.9581 -1.2542 -0.3415
18335THY    CA339153   5.651   3.921   3.086  0.5804 -0.1105 -1.0148
18335THY    HA339154   5.711   4.012   3.083 -2.0999  0.2177  0.8909
18335THY    CA439155   5.710   3.796   3.124  0.5705  0.2317 -0.3560
18335THY    HA439156   5.812   3.801   3.160 -0.0741  1.9708  2.8092
18335THY    CA539157   5.639   3.678   3.126 -0.0247  0.2881  0.0886
18335THY    CM139158   5.701   3.548   3.159  0.7107  0.9195 -0.6964
18335THY    HM139159   5.732   3.497   3.068 -2.5808 -0.5158 -0.3867
18335THY    HM239160   5.624   3.492   3.213  0.2239 -0.6368 -1.5654
18335THY    HM339161   5.795   3.555   3.216  0.6881  1.1129 -1.8451
18335THY    CA639162   5.501   3.687   3.095  0.1262 -0.2320 -0.0861
18335THY    HA639163   5.439   3.598   3.094  0.6912  0.4093 -0.4963
18336THY      O39164   7.860   4.185   6.659  0.3597  0.0254  0.3206
18336THY     HO39165   7.900   4.150   6.577  1.4881  0.2737  0.9802
18336THY    CA139166   7.927   4.302   6.667  0.5273 -0.2145  0.4246
18336THY    CA239167   7.921   4.383   6.773 -0.9961 -0.0892 -0.0156
18336THY    CP139168   7.823   4.349   6.883 -0.3118 -0.2496  0.9837
18336THY    HP139169   7.738   4.288   6.849  0.1276  1.1070 -0.4458
18336THY    CP239170   7.769   4.471   6.956  0.3524 -0.0714 -0.1765
18336THY    HP239171   7.745   4.552   6.885 -0.0723 -0.2385 -0.4457
18336THY    HP339172   7.840   4.505   7.032  0.2187  1.1740 -2.4817
18336THY    HP439173   7.676   4.433   6.998  0.7833 -0.0641 -1.2570
18336THY    CP339174   7.892   4.255   6.986  0.5884 -0.5349  0.2039
18336THY    HP539175   7.925   4.168   6.927 -1.4468 -1.7184  0.1571
18336THY    HP639176   7.825   4.218   7.065  1.0102 -1.3549 -2.5661
18336THY    HP739177   7.978   4.309   7.027 -0.6339 -0.9891  2.6317
18336THY    CA339178   8.010   4.490   6.791  0.1513  0.1405 -0.0392
18336THY    HA339179   7.996   4.553   6.878 -1.6069  2.7849 -3.7019
18336THY    CA439180   8.090   4.520   6.676 -0.4423 -0.5830  0.0838
18336THY    HA439181   8.153   4.609   6.674  2.0012 -0.6979 -1.5640
18336THY    CA539182   8.094   4.438   6.558  0.1883  0.2640 -0.2384
18336THY    CM139183   8.179   4.463   6.432 -0.2257  0.0591  0.4254
18336THY    HM139184   8.169   4.382   6.359  1.8486  1.3399 -1.0729
18336THY    HM239185   8.288   4.462   6.449  0.5267 -3.9157  0.3137
18336THY    HM339186   8.151   4.555   6.379  0.0932  0.3142  0.6772
18336THY    CA639187   8.015   4.320   6.559 -0.1158  0.2752  0.4657
18336THY    HA639188   8.014   4.255   6.472  0.9432 -0.2703  1.1528
18337THY      O39189   3.979   1.900   5.352 -0.3264  0.9290 -0.0044
18337THY     HO39190   3.884   1.899   5.334 -0.5089  0.9489  3.5579
18337THY    CA139191   4.042   1.926   5.236  0.4972  0.2016  0.5255
18337THY    CA239192   4.161   2.002   5.238  0.1137  0.3888  0.1322
18337THY    CP139193   4.231   2.034   5.365  0.0916 -0.3318  0.6291
18337THY    HP139194   4.168   2.023   5.454 -1.9254 -1.6701  0.8140
18337THY    CP239195   4.279   2.183   5.374 -0.0562 -0.5785 -0.0119
18337THY    HP239196   4.344   2.198   5.461  2.1411 -1.6259 -2.6696
18337THY    HP339197   4.190   2.244   5.389 -1.3081 -1.0076 -1.6679
18337THY    HP439198   4.327   2.224   5.284 -0.8513 -0.4824  1.1911
18337THY    CP339199   4.367   1.956   5.373  0.2066  0.2453 -0.3476
18337THY    HP539200   4.453   1.976   5.308 -1.2070 -1.7302 -0.3989
18337THY    HP639201   4.344   1.850   5.390 -0.8635  1.5415  0.0627
18337THY    HP739202   4.400   1.977   5.476 -0.6234  0.4036  0.2376
18337THY    CA339203   4.211   2.048   5.115  0.2880 -0.1537 -0.2342
18337THY    HA339204   4.303   2.106   5.108 -0.3352  1.7974  1.1139
18337THY    CA439205   4.146   2.014   4.992  0.2998  0.1260  0.1558
18337THY    HA439206   4.192   2.032   4.896  2.7337  0.6557 -2.5556
18337THY    CA539207   4.025   1.939   4.996  0.1479  0.4954 -0.5871
18337THY    CM139208   3.953   1.914   4.869  0.8542 -0.0898  0.3265
18337THY    HM139209   3.846   1.920   4.889  0.6632 -0.6495 -0.8326
18337THY    HM239210   3.951   1.809   4.837 -2.6253 -1.3913  0.6508
18337THY    HM339211   3.991   1.969   4.782  3.0285  0.6531  0.1239
18337THY    CA639212   3.969   1.899   5.117  0.3215 -0.0015 -0.0177
18337THY    HA639213   3.880   1.837   5.115  0.2055 -2.5636  0.1295
18338THY      O39214   6.841   3.069   3.320 -0.2258 -0.0452  0.2293
18338THY     HO39215   6.840   2.978   3.354 -1.1218  0.3734  0.3838
18338THY    CA139216   6.914   3.142   3.407 -0.0012 -0.0129  0.4782
18338THY    CA239217   6.993   3.247   3.364  0.1726  0.7286  0.7365
18338THY    CP139218   6.998   3.276   3.217  0.0557 -0.0801 -0.5105
18338THY    HP139219   6.908   3.242   3.164  0.9587 -1.1303 -1.3165
18338THY    CP239220   7.113   3.205   3.156 -0.7480  0.1227 -0.2987
18338THY    HP239221   7.207   3.251   3.189 -0.8549 -1.8168  1.4409
18338THY    HP339222   7.108   3.215   3.047 -0.8114  0.3098  2.4262
18338THY    HP439223   7.115   3.103   3.196 -1.4061 -1.1038 -0.8124
18338THY    CP339224   7.017   3.424   3.184 -0.0288  0.2984 -0.5446
18338THY    HP539225   6.934   3.485   3.222  0.2004  1.5082 -0.9697
18338THY    HP639226   7.018   3.438   3.075 -0.5040  0.2938 -0.5294
18338THY    HP739227   7.108   3.465   3.228  0.7515  0.0728 -1.9834
18338THY    CA339228   7.079   3.307   3.461  0.6878  0.4394  0.2563
18338THY    HA339229   7.153   3.380   3.428  2.4339  2.9289 -0.2654
18338THY    CA439230   7.067   3.276   3.597  0.4681  0.7434  0.2099
18338THY    HA439231   7.123   3.333   3.670  2.6922  0.2502 -1.2278
18338THY    CA539232   6.968   3.182   3.633  0.1409 -0.3954 -0.2997
18338THY    CM139233   6.932   3.167   3.777 -0.2168 -0.4426 -0.2011
18338THY    HM139234   7.023   3.166   3.837  1.3584 -2.7010  0.0061
18338THY    HM239235   6.861   3.083   3.786 -2.4359 -1.3602  1.4689
18338THY    HM339236   6.875   3.254   3.811 -1.1174 -1.4547 -0.3825
18338THY    CA639237   6.899   3.111   3.540 -0.7151 -0.3123  0.0069
18338THY    HA639238   6.839   3.031   3.583 -0.7849  1.3210  0.8842
18339THY      O39239   7.349   4.291   3.141  0.1150 -0.3947  0.6910
18339THY     HO39240   7.365   4.204   3.184  0.8775  1.2814  1.6086
18339THY    CA139241   7.323   4.269   3.011  0.0070 -0.1676  0.1053
18339THY    CA239242   7.253   4.368   2.943  0.8496 -0.6039  0.0206
18339THY    CP139243   7.188   4.491   3.015 -0.3662  0.0756 -0.7024
18339THY    HP139244   7.236   4.519   3.110  2.4313 -1.8709  1.8397
18339THY    CP239245   7.039   4.460   3.039 -0.4716  0.4266 -0.1192
18339THY    HP239246   6.997   4.550   3.087  0.1782 -1.6571  1.3629
18339THY    HP339247   7.039   4.372   3.104  1.3713 -0.2824 -0.6774
18339THY    HP439248   6.975   4.454   2.950 -0.1658 -0.1766  3.2417
18339THY    CP339249   7.200   4.623   2.925 -0.2799 -0.1258  0.1607
18339THY    HP539250   7.120   4.629   2.850 -0.3572 -0.1352 -0.8838
18339THY    HP639251   7.301   4.637   2.886  0.1219  0.6933 -0.3947
18339THY    HP739252   7.182   4.715   2.982  1.2828  0.3328  0.2109
18339THY    CA339253   7.221   4.348   2.805  0.1243 -0.1398  1.5457
18339THY    HA339254   7.162   4.418   2.747  1.7040 -0.3707  2.7351
18339THY    CA439255   7.268   4.230   2.737  0.4365  0.2433 -0.6735
18339THY    HA439256   7.230   4.208   2.638  1.8887 -1.1245  2.3635
18339THY    CA539257   7.342   4.134   2.809  0.4316  0.0612  0.4594
18339THY    CM139258   7.395   4.010   2.742  0.0771 -0.3285 -0.2899
18339THY    HM139259   7.326   3.936   2.785 -0.8104 -2.8957 -1.0694
18339THY    HM239260   7.500   4.003   2.774 -0.4660  1.4707 -0.8440
18339THY    HM339261   7.386   4.012   2.633 -1.6200 -0.2002  1.5082
18339THY    CA639262   7.373   4.156   2.945  0.2064 -0.0081 -0.5573
18339THY    HA639263   7.427   4.080   3.001 -0.0307  1.8230  0.5716
18340THY      O39264   4.302   4.590   5.157 -0.4828 -0.1253  0.0747
18340THY     HO39265   4.236   4.525   5.128  1.3411 -0.1025 -1.8982
18340THY    CA139266   4.387   4.592   5.053  0.2185 -0.0495 -0.0778
18340THY    CA239267   4.476   4.699   5.025  0.4565  1.0824  0.4764
18340THY    CP139268   4.475   4.815   5.118 -0.7615 -0.2998 -0.7398
18340THY    HP139269   4.432   4.793   5.216  0.7240  0.2125 -1.5211
18340THY    CP239270   4.406   4.944   5.065 -0.7604 -0.2427 -0.3893
18340THY    HP239271   4.424   4.971   4.960 -2.7425 -0.2123  1.3221
18340THY    HP339272   4.430   5.033   5.124 -1.3117 -1.3829  0.5419
18340THY    HP439273   4.298   4.930   5.079 -0.5771 -0.1498 -1.8084
18340THY    CP339274   4.616   4.854   5.158 -0.9736 -0.2018 -0.0471
18340THY    HP539275   4.692   4.865   5.079  2.0009  2.2815 -1.1855
18340THY    HP639276   4.655   4.775   5.222  0.7773 -1.0976  0.0444
18340THY    HP739277   4.619   4.947   5.216 -2.4697  0.7763 -0.5701
18340THY    CA339278   4.544   4.692   4.903  0.4947  0.1822  0.4582
18340THY    HA339279   4.602   4.779   4.872  1.4188 -0.6036 -0.4136
18340THY    CA439280   4.547   4.577   4.820  0.1033 -0.2472  0.1338
18340THY    HA439281   4.620   4.570   4.740  0.3051 -0.0437 -0.1157
18340THY    CA539282   4.461   4.471   4.854 -0.3563 -0.2425 -0.6642
18340THY    CM139283   4.459   4.340   4.784 -0.3877  0.0329  0.8810
18340THY    HM139284   4.359   4.296   4.784  0.0962  1.4518 -0.3249
18340THY    HM239285   4.521   4.261   4.827 -0.6616 -2.0493 -0.5353
18340THY    HM339286   4.479   4.348   4.677  0.9057  0.2058  0.3073
18340THY    CA639287   4.378   4.486   4.963  0.4414 -0.4884 -0.4261
18340THY    HA639288   4.319   4.396   4.984  2.2451 -1.9245 -2.0267
18341THY      O39289   7.935   4.022   6.432  0.2802  0.4500  0.2218
18341THY     HO39290   8.002   3.973   6.484 -0.1778  0.1068 -0.7920
18341THY    CA139291   7.912   3.952   6.328  0.0695 -0.1238  0.0068
18341THY    CA239292   7.832   3.996   6.226  0.9113 -0.5522 -0.1156
18341THY    CP139293   7.755   4.128   6.244 -0.1482 -0.1291  0.0372
18341THY    HP139294   7.751   4.151   6.351 -2.1222  0.1456 -1.2869
18341THY    CP239295   7.611   4.120   6.204  0.4498 -0.3274  0.3144
18341THY    HP239296   7.601   4.116   6.095  1.1435 -0.3923  0.1133
18341THY    HP339297   7.560   4.213   6.231  0.5837  0.9456  0.0289
18341THY    HP439298   7.575   4.027   6.250  0.4779 -0.5030  0.2156
18341THY    CP339299   7.822   4.236   6.163 -0.2070 -0.0588  0.0931
18341THY    HP539300   7.829   4.199   6.061 -0.5175 -0.1855  0.3823
18341THY    HP639301   7.919   4.245   6.215 -1.8584  3.1290  1.1953
18341THY    HP739302   7.780   4.335   6.184  0.6398  1.1913  0.2253
18341THY    CA339303   7.806   3.920   6.111 -0.1441 -0.8678 -0.0738
18341THY    HA339304   7.736   3.954   6.035  1.6544 -2.6288 -0.1779
18341THY    CA439305   7.871   3.801   6.100 -0.8208 -0.4874  0.3743
18341THY    HA439306   7.862   3.738   6.012  3.2183  0.1831 -1.4595
18341THY    CA539307   7.955   3.754   6.203  0.2601  0.2691 -0.0767
18341THY    CM139308   8.034   3.627   6.193 -0.7833 -0.4087  0.8769
18341THY    HM139309   8.128   3.619   6.248 -1.7768  1.1179 -1.1285
18341THY    HM239310   8.055   3.618   6.085 -0.1005 -0.2343  0.3055
18341THY    HM339311   7.978   3.539   6.228 -0.7491 -1.6883  0.3211
18341THY    CA639312   7.975   3.831   6.317 -0.6606  0.5113 -0.5152
18341THY    HA639313   8.039   3.798   6.398  1.9555 -1.1985  0.1238
18342THY      O39314   9.003   7.244   3.362 -1.0035  0.1090  0.2788
18342THY     HO39315   8.978   7.338   3.365  0.5771  0.6342  0.7131
18342THY    CA139316   9.137   7.236   3.382  0.4244 -0.1136 -0.2989
18342THY    CA239317   9.205   7.115   3.391 -0.1244  0.1535  0.4233
18342THY    CP139318   9.127   6.980   3.396  0.0173  0.2526  0.9228
18342THY    HP139319   9.032   6.988   3.342  0.1180 -0.5292 -2.0768
18342THY    CP239320   9.092   6.934   3.539 -0.2830  0.2542 -0.3776
18342THY    HP239321   9.032   7.007   3.595 -2.1450 -1.2222 -0.6801
18342THY    HP339322   9.182   6.912   3.597 -1.7988  2.0777 -2.2051
18342THY    HP439323   9.034   6.842   3.527 -0.3147 -1.3087 -0.1727
18342THY    CP339324   9.199   6.861   3.321  0.1393 -0.3341 -0.5544
18342THY    HP539325   9.206   6.888   3.215 -1.3308 -0.6901 -1.4735
18342THY    HP639326   9.134   6.773   3.322  1.4141 -1.9361 -1.5641
18342THY    HP739327   9.298   6.842   3.363  0.4369 -0.9752 -0.4426
18342THY    CA339328   9.342   7.113   3.398  0.4810 -0.2131 -0.0782
18342THY    HA339329   9.400   7.022   3.397  1.4306 -2.1161  0.4826
18342THY    CA439330   9.407   7.238   3.407 -0.2929 -0.8106 -0.4360
18342THY    HA439331   9.515   7.241   3.414 -0.3940  0.6938  0.3923
18342THY    CA539332   9.333   7.355   3.412 -0.0491  0.1836 -0.0176
18342THY    CM139333   9.397   7.485   3.431  0.1162  0.7202 -0.4414
18342THY    HM139334   9.322   7.564   3.417 -1.5127  0.2196 -1.9892
18342THY    HM239335   9.474   7.496   3.354 -0.6678 -0.1092 -0.6466
18342THY    HM339336   9.435   7.496   3.533  0.9313  0.1862  2.4653
18342THY    CA639337   9.198   7.354   3.396 -0.0286 -0.7215  1.0708
18342THY    HA639338   9.135   7.442   3.386  0.7649  3.6985  2.4118
18343THY      O39339   6.497   9.007   6.713  0.3223  0.4946 -0.0273
18343THY     HO39340   6.524   9.099   6.698 -0.1645  0.0216  0.0456
18343THY    CA139341   6.489   8.986   6.848  0.3334  0.4044  0.6584
18343THY    CA239342   6.473   8.852   6.897  0.4655 -0.6325  0.3510
18343THY    CP139343   6.484   8.732   6.801 -0.5935  0.1426 -0.0079
18343THY    HP139344   6.419   8.755   6.715 -0.7492  0.0018 -0.9321
18343THY    CP239345   6.441   8.595   6.864 -1.0256 -0.0345 -0.4269
18343THY    HP239346   6.514   8.571   6.942  1.1935 -0.8499  3.0179
18343THY    HP339347   6.442   8.516   6.788 -1.8765 -0.0662 -0.4168
18343THY    HP439348   6.340   8.611   6.905  0.9670  4.8806  1.7412
18343THY    CP339349   6.626   8.718   6.740 -0.4761 -0.1362 -0.3298
18343THY    HP539350   6.617   8.648   6.657 -0.3725  0.5178 -1.1317
18343THY    HP639351   6.701   8.678   6.809 -0.6680 -0.1755 -0.7672
18343THY    HP739352   6.681   8.803   6.698  1.0465 -2.1784 -2.2176
18343THY    CA339353   6.448   8.834   7.042 -0.3243  0.6542  0.4577
18343THY    HA339354   6.442   8.736   7.088 -2.0173 -1.2187 -0.3959
18343THY    CA439355   6.446   8.945   7.125 -0.1017 -0.1182 -0.1754
18343THY    HA439356   6.446   8.928   7.232  1.2789 -0.0762 -0.0097
18343THY    CA539357   6.475   9.073   7.073  0.1163  0.5003 -0.1739
18343THY    CM139358   6.482   9.181   7.183  0.2531 -0.1616 -0.0870
18343THY    HM139359   6.525   9.146   7.277  2.9236 -1.2242  0.1580
18343THY    HM239360   6.386   9.233   7.197 -0.2788  0.7151 -1.2710
18343THY    HM339361   6.553   9.255   7.144  0.5225 -0.2754 -0.4083
18343THY    CA639362   6.487   9.093   6.936 -0.3691 -0.1787 -1.1847
18343THY    HA639363   6.491   9.197   6.907 -1.7587 -1.1642 -1.3791
18344THY      O39364   3.019   4.130   5.735 -0.3940  0.3025  0.2177
18344THY     HO39365   2.987   4.207   5.684  0.3803 -0.0008  0.3485
18344THY    CA139366   2.926   4.094   5.824  0.2281  0.3229 -0.3254
18344THY    CA239367   2.936   3.986   5.914  0.2079 -0.3315  0.1300
18344THY    CP139368   3.071   3.910   5.911 -0.0461  0.0420 -0.1322
18344THY    HP139369   3.137   3.945   5.831 -0.0244  0.5214  0.9780
18344THY    CP239370   3.062   3.761   5.879 -0.1833 -0.5501 -0.0124
18344THY    HP239371   3.014   3.750   5.780  0.1342 -0.9409  1.8461
18344THY    HP339372   3.003   3.708   5.954  3.1103  1.9308 -0.4693
18344THY    HP439373   3.163   3.721   5.890 -0.0485 -2.0495 -0.1477
18344THY    CP339374   3.142   3.934   6.041  0.8335  0.2464 -0.4381
18344THY    HP539375   3.082   3.885   6.119  0.7830  0.2036 -0.4441
18344THY    HP639376   3.141   4.039   6.072  0.9648 -1.0976 -0.0296
18344THY    HP739377   3.247   3.901   6.046  0.5929  0.5682 -1.1988
18344THY    CA339378   2.829   3.948   6.005 -0.3295  0.2496 -0.0921
18344THY    HA339379   2.836   3.865   6.074 -1.6239  0.3148 -0.1758
18344THY    CA439380   2.717   4.028   6.005 -0.2640  0.4143 -0.8584
18344THY    HA439381   2.630   3.999   6.063  0.2343  0.5633 -2.1037
18344THY    CA539382   2.698   4.132   5.908 -0.5672  0.2535  0.1829
18344THY    CM139383   2.559   4.202   5.895 -0.1175  0.0141 -0.0158
18344THY    HM139384   2.523   4.169   5.797 -0.4806 -0.6351  2.1264
18344THY    HM239385   2.563   4.312   5.889 -0.2594 -0.2626 -0.0250
18344THY    HM339386   2.485   4.169   5.969 -0.3418 -0.6643 -1.0739
18344THY    CA639387   2.808   4.166   5.826  0.3846  0.4353  0.5170
18344THY    HA639388   2.786   4.242   5.751 -0.8555 -1.3936 -1.4966
18345THY      O39389   3.739   7.957   4.019  0.3020  0.0068 -0.6710
18345THY     HO39390   3.729   7.926   4.110 -1.2135  0.8930  2.0702
18345THY    CA139391   3.608   7.960   3.970 -0.5971  0.1826  0.2505
18345THY    CA239392   3.555   8.079   3.928 -0.2398  0.0299 -1.5384
18345THY    CP139393   3.632   8.210   3.926 -0.2912 -0.2169  0.4891
18345THY    HP139394   3.739   8.186   3.924 -0.5621 -2.0325 -0.7582
18345THY    CP239395   3.614   8.279   4.060 -0.5294 -0.8305 -0.1019
18345THY    HP239396   3.637   8.209   4.141  1.2161 -0.0321  1.3058
18345THY    HP339397   3.511   8.315   4.070 -1.4199 -0.3216 -2.6008
18345THY    HP439398   3.684   8.363   4.066 -2.0765 -1.0323  1.2413
18345THY    CP339399   3.596   8.310   3.816 -0.2135 -0.5438  0.2829
18345THY    HP539400   3.673   8.388   3.820  1.5894  3.1501 -1.4577
18345THY    HP639401   3.491   8.341   3.825  0.0903  2.8380  0.7099
18345THY    HP739402   3.614   8.261   3.719 -0.6079 -0.9275  0.8787
18345THY    CA339403   3.417   8.074   3.888  0.3760  0.2633  0.1346
18345THY    HA339404   3.363   8.161   3.850  1.4038  0.8699  1.0594
18345THY    CA439405   3.347   7.954   3.893  0.9081  0.0832  0.6301
18345THY    HA439406   3.244   7.955   3.858  1.1346 -0.6017  0.2808
18345THY    CA539407   3.406   7.830   3.937 -0.8725 -1.3868 -0.5067
18345THY    CM139408   3.324   7.709   3.961 -0.5046  0.4125 -0.2548
18345THY    HM139409   3.224   7.722   3.918 -0.1723  0.0931  1.3469
18345THY    HM239410   3.312   7.673   4.064 -0.7886  0.8169  0.9486
18345THY    HM339411   3.357   7.625   3.899 -0.1851 -1.5909  1.2945
18345THY    CA639412   3.540   7.838   3.978 -0.0682 -0.3104  0.2962
18345THY    HA639413   3.602   7.753   4.006 -0.8840  0.2485 -0.1297
18346THY      O39414   4.449   2.481   2.505 -0.2219 -0.1366  0.4758
18346THY     HO39415   4.490   2.403   2.546 -2.2373  0.5607 -0.2919
18346THY    CA139416   4.531   2.564   2.457 -0.3374 -0.4102  0.3318
18346THY    CA239417   4.529   2.602   2.315  0.9246 -0.3893  0.1491
18346THY    CP139418   4.426   2.552   2.214  0.1589  0.3457  0.2031
18346THY    HP139419   4.332   2.529   2.267 -0.5331 -1.3978 -1.2266
18346THY    CP239420   4.472   2.418   2.147  0.0532 -0.8756  0.3690
18346THY    HP239421   4.397   2.390   2.072 -0.7699 -0.7254  2.0069
18346THY    HP339422   4.473   2.343   2.227 -0.4194  0.8302  2.0916
18346THY    HP439423   4.571   2.423   2.102  0.3367 -0.3640 -0.4965
18346THY    CP339424   4.394   2.657   2.102  0.1063 -0.1207  0.0528
18346THY    HP539425   4.398   2.760   2.139  0.9366  0.0374 -0.0270
18346THY    HP639426   4.297   2.647   2.052  0.3321 -1.0445  2.0326
18346THY    HP739427   4.477   2.648   2.031 -0.7336 -1.4188  2.0205
18346THY    CA339428   4.634   2.686   2.273 -0.4715 -0.1717  0.1459
18346THY    HA339429   4.662   2.708   2.171 -0.5483 -0.5198 -1.2456
18346THY    CA439430   4.728   2.730   2.363  0.6726  0.3419 -0.4473
18346THY    HA439431   4.802   2.801   2.327  1.6410  1.1291 -1.0368
18346THY    CA539432   4.737   2.688   2.497  0.2749 -0.1025  0.0999
18346THY    CM139433   4.845   2.735   2.595  0.1760 -0.5931  0.4446
18346THY    HM139434   4.920   2.788   2.535 -0.4059  0.5668  2.6941
18346THY    HM239435   4.895   2.650   2.643  1.7565  0.2337  1.7975
18346THY    HM339436   4.805   2.789   2.682  1.2053  0.3590 -0.2986
18346THY    CA639437   4.639   2.602   2.543  0.3849  0.3281 -0.4318
18346THY    HA639438   4.634   2.577   2.649 -1.6337  0.6523  1.0377
18347THY      O39439   1.710   8.187   4.659  0.5612  0.2113  0.3160
18347THY     HO39440   1.619   8.219   4.647  0.1024  1.5722 -0.4126
18347THY    CA139441   1.791   8.274   4.597  0.1076 -1.0233 -0.3417
18347THY    CA239442   1.929   8.251   4.595  0.4420  0.0355  0.5948
18347THY    CP139443   1.997   8.121   4.643  0.0689 -0.1447 -0.3046
18347THY    HP139444   1.931   8.073   4.716  1.0257  1.0288  0.1219
18347THY    CP239445   2.128   8.154   4.725  0.5120  0.7130 -0.8008
18347THY    HP239446   2.209   8.180   4.656  0.0972 -0.1657 -1.7521
18347THY    HP339447   2.158   8.057   4.767 -2.3596 -1.4316 -2.8196
18347THY    HP439448   2.113   8.223   4.809  0.1173 -1.5299  2.0405
18347THY    CP339449   2.031   8.024   4.521 -0.3950 -0.1072  0.1971
18347THY    HP539450   2.073   7.930   4.560 -3.0344 -0.3479 -1.1706
18347THY    HP639451   2.096   8.065   4.443  0.3449  0.0897 -0.5736
18347THY    HP739452   1.943   7.990   4.465 -0.2923 -0.0403 -0.1876
18347THY    CA339453   2.007   8.358   4.543 -0.9158  0.8379 -0.3101
18347THY    HA339454   2.115   8.350   4.542 -0.9166  0.2179 -0.2856
18347THY    CA439455   1.949   8.474   4.488 -0.4515 -0.5055 -0.5485
18347THY    HA439456   2.013   8.552   4.446  3.5080  2.8115 -1.6835
18347THY    CA539457   1.809   8.489   4.485 -0.6434  0.7008  0.2177
18347THY    CM139458   1.743   8.612   4.422  0.2877 -0.2019 -0.2847
18347THY    HM139459   1.676   8.587   4.339  0.2002 -0.6462  1.3192
18347THY    HM239460   1.819   8.687   4.401  1.9781  4.1291 -0.4923
18347THY    HM339461   1.678   8.652   4.501  0.2270  0.4101 -1.5350
18347THY    CA639462   1.735   8.386   4.541 -0.4497 -0.2187  0.1111
18347THY    HA639463   1.627   8.402   4.546 -0.3923  0.9127  0.1927
18348THY      O39464   8.912   7.332   6.155  0.0235 -0.0412  0.0479
18348THY     HO39465   8.891   7.263   6.220 -0.4060  0.8241  0.9643
18348THY    CA139466   8.858   7.289   6.043 -0.1763 -0.4761  0.2764
18348THY    CA239467   8.899   7.335   5.911  0.5464  0.4437 -0.4784
18348THY    CP139468   9.010   7.442   5.884  0.3068 -1.2635 -0.3511
18348THY    HP139469   9.063   7.469   5.977  1.0642 -2.0143  0.8226
18348THY    CP239470   8.952   7.576   5.829 -0.4265  0.3600 -0.1554
18348THY    HP239471   8.981   7.587   5.724  0.8699  0.6343 -0.7696
18348THY    HP339472   9.001   7.661   5.878 -0.7889  0.7087 -0.1433
18348THY    HP439473   8.843   7.569   5.834 -0.2943  1.6918 -1.7953
18348THY    CP339474   9.125   7.404   5.791 -0.3086  0.5559  0.2918
18348THY    HP539475   9.089   7.353   5.702 -1.4540 -0.1019  2.1422
18348THY    HP639476   9.188   7.342   5.857  1.6676 -0.4896  1.0761
18348THY    HP739477   9.191   7.490   5.772  0.6886 -1.4823 -0.8480
18348THY    CA339478   8.835   7.284   5.802  0.4385  0.1994  0.6988
18348THY    HA339479   8.855   7.325   5.703 -0.7222 -0.5764 -0.5075
18348THY    CA439480   8.735   7.186   5.814 -0.1978 -0.5160 -0.4564
18348THY    HA439481   8.694   7.148   5.721  0.8169 -0.7566 -1.0081
18348THY    CA539482   8.689   7.144   5.933  0.6425 -0.8303  0.4647
18348THY    CM139483   8.570   7.060   5.940  0.5490 -0.3557 -0.0012
18348THY    HM139484   8.518   7.064   6.036  0.6277 -0.2029 -1.7815
18348THY    HM239485   8.597   6.957   5.914 -0.0788 -0.2655 -0.1952
18348THY    HM339486   8.500   7.089   5.860  2.1546 -1.9272 -0.2747
18348THY    CA639487   8.759   7.189   6.051  0.0809 -0.5041  0.3832
18348THY    HA639488   8.727   7.145   6.145 -0.2509 -0.6018  0.4193
18349THY      O39489   5.249   6.973   1.928  0.6908 -0.7883  0.6292
18349THY     HO39490   5.302   7.048   1.959 -0.1660 -0.3486  1.0713
18349THY    CA139491   5.213   6.905   2.042  0.3762  0.0662  0.5836
18349THY    CA239492   5.170   6.769   2.035  0.5296  0.1806 -0.0835
18349THY    CP139493   5.166   6.696   1.898  0.0966  0.6958 -0.0742
18349THY    HP139494   5.159   6.763   1.810 -1.3750 -0.8420 -2.1219
18349THY    CP239495   5.043   6.609   1.881 -0.8546 -0.0869  0.1861
18349THY    HP239496   5.031   6.548   1.790 -0.6419  1.1537 -1.7948
18349THY    HP339497   4.956   6.675   1.893 -0.0681 -2.2230  1.7416
18349THY    HP439498   5.056   6.535   1.961  1.7273  0.9270  1.5994
18349THY    CP339499   5.293   6.618   1.875 -0.0730  0.1931  0.4623
18349THY    HP539500   5.299   6.530   1.939  0.0119  0.5106  0.6948
18349THY    HP639501   5.393   6.663   1.879 -0.1288  0.3120  0.5795
18349THY    HP739502   5.278   6.575   1.776  0.6363  0.0795  0.4638
18349THY    CA339503   5.135   6.705   2.159 -0.3633  0.0783  0.5062
18349THY    HA339504   5.100   6.602   2.162 -0.3216 -0.8711  0.4563
18349THY    CA439505   5.132   6.787   2.272 -0.3834 -0.1215 -0.1026
18349THY    HA439506   5.112   6.739   2.367  0.2442 -1.1987 -2.6841
18349THY    CA539507   5.190   6.913   2.284  0.6643  0.6501 -1.2034
18349THY    CM139508   5.222   6.972   2.413  0.3238  0.2418 -0.1379
18349THY    HM139509   5.204   6.902   2.496  1.0672 -1.0009 -1.8867
18349THY    HM239510   5.156   7.055   2.439 -0.0522  1.0220 -0.6665
18349THY    HM339511   5.327   7.001   2.402  0.0961 -0.9475  0.2820
18349THY    CA639512   5.227   6.976   2.165  0.4308 -0.4807  1.1489
18349THY    HA639513   5.270   7.075   2.158  0.1847 -1.3719  1.1957
18350THY      O39514   1.869   8.198   4.285 -0.1076 -0.4397 -0.5834
18350THY     HO39515   1.904   8.234   4.368  2.2866 -1.0893 -1.1898
18350THY    CA139516   1.982   8.154   4.222 -0.5881 -0.2545 -0.5805
18350THY    CA239517   1.984   8.026   4.166  1.0955  0.3417 -0.2467
18350THY    CP139518   1.853   7.951   4.140  0.5131 -0.4055 -0.3454
18350THY    HP139519   1.767   8.017   4.153  0.8009 -0.0194 -0.0434
18350THY    CP239520   1.838   7.831   4.222  0.4453 -0.4525  0.3572
18350THY    HP239521   1.855   7.842   4.330 -3.6902  0.9349 -3.8078
18350THY    HP339522   1.900   7.748   4.187  0.1360 -2.6675  0.9963
18350THY    HP439523   1.730   7.812   4.225  0.4401  0.9497  0.5260
18350THY    CP339524   1.826   7.915   3.987 -0.1220  0.6032  0.0726
18350THY    HP539525   1.732   7.861   3.976 -0.6715  2.5633  0.5606
18350THY    HP639526   1.908   7.846   3.962 -0.1658  0.3249  0.1196
18350THY    HP739527   1.817   8.001   3.919  1.0997  0.1819 -0.1082
18350THY    CA339528   2.112   7.977   4.118  0.1852  0.2177 -0.7245
18350THY    HA339529   2.116   7.880   4.069  0.9093 -1.4892  0.1131
18350THY    CA439530   2.222   8.066   4.113 -0.1856  0.5919  0.6575
18350THY    HA439531   2.319   8.031   4.078 -1.2857 -0.5678 -1.3952
18350THY    CA539532   2.215   8.186   4.185  0.4767 -0.2234  0.5214
18350THY    CM139533   2.338   8.266   4.208  0.2672 -0.1036 -0.6681
18350THY    HM139534   2.372   8.309   4.113  3.4933  0.9270 -0.6811
18350THY    HM239535   2.423   8.209   4.247  2.0303 -1.5271  0.8439
18350THY    HM339536   2.308   8.346   4.277  1.1853  1.0132 -1.2600
18350THY    CA639537   2.095   8.232   4.229  0.4055 -0.1798  0.5619
18350THY    HA639538   2.088   8.330   4.275  1.8893 -0.4555  0.8256
18351THY      O39539   7.239   7.920   5.117  0.1264 -0.0979  0.4711
18351THY     HO39540   7.321   7.894   5.162 -0.6948  1.0186 -0.2936
18351THY    CA139541   7.140   7.932   5.212 -0.1481 -0.1959  0.8417
18351THY    CA239542   7.007   7.964   5.183 -0.1063  0.6282 -0.0144
18351THY    CP139543   6.964   7.978   5.029  0.0960 -0.3914  0.1913
18351THY    HP139544   7.039   8.015   4.958 -0.3132  0.0033  1.8498
18351THY    CP239545   6.837   8.062   5.009  0.3440  0.2304  0.6172
18351THY    HP239546   6.823   8.081   4.901  0.3299  0.3642  1.4139
18351THY    HP339547   6.835   8.160   5.057  1.3877  0.3184  0.6117
18351THY    HP439548   6.750   8.010   5.050 -0.0248  2.8709  3.0814
18351THY    CP339549   6.924   7.835   4.990 -0.0536  0.2060 -0.2688
18351THY    HP539550   6.876   7.785   5.075  3.3740  3.5541  1.5553
18351THY    HP639551   7.019   7.782   4.974  0.8162  1.0548  0.9565
18351THY    HP739552   6.871   7.839   4.895  1.8418 -0.8791  2.8631
18351THY    CA339553   6.922   7.992   5.289  0.3188 -0.4815  0.0166
18351THY    HA339554   6.819   8.017   5.265  0.2467  1.0702  1.3767
18351THY    CA439555   6.960   7.990   5.420  0.5556 -0.0612 -0.5713
18351THY    HA439556   6.879   8.006   5.491  0.0185 -1.0094  1.1930
18351THY    CA539557   7.096   7.965   5.447  0.3121  0.9550 -0.5196
18351THY    CM139558   7.142   7.960   5.586 -0.3535  0.5543 -0.3721
18351THY    HM139559   7.075   7.909   5.655  1.2384  1.1128 -1.7946
18351THY    HM239560   7.145   8.065   5.620  1.0098 -0.0887 -0.1778
18351THY    HM339561   7.240   7.912   5.599  0.1067 -0.4209  0.2700
18351THY    CA639562   7.188   7.936   5.344 -0.3083 -0.2252 -0.0535
18351THY    HA639563   7.291   7.919   5.374 -0.4944 -0.1043 -1.0624
18352THY      O39564   5.457   5.187   5.371  0.4135 -0.2106  0.4732
18352THY     HO39565   5.366   5.220   5.362 -0.0550  0.3381 -0.6237
18352THY    CA139566   5.534   5.227   5.264  0.0382 -0.3239 -0.1103
18352THY    CA239567   5.655   5.303   5.272 -0.0791  0.3680  0.0380
18352THY    CP139568   5.709   5.340   5.407  0.2822  0.6946  0.4517
18352THY    HP139569   5.662   5.266   5.473 -0.4356 -1.3777 -1.0581
18352THY    CP239570   5.644   5.468   5.450 -0.1743 -0.0248 -0.0001
18352THY    HP239571   5.690   5.547   5.390  1.3442 -1.8794 -2.1396
18352THY    HP339572   5.674   5.485   5.554 -1.4605  0.7126 -1.8359
18352THY    HP439573   5.535   5.460   5.459 -0.1796 -1.3602 -3.1239
18352THY    CP339574   5.867   5.329   5.421  0.0585  0.2401  0.1492
18352THY    HP539575   5.881   5.334   5.529  1.3740  0.0316  2.2361
18352THY    HP639576   5.921   5.414   5.377  0.7991  0.3714 -0.2466
18352THY    HP739577   5.908   5.242   5.368  0.4999 -0.8086  0.9666
18352THY    CA339578   5.716   5.354   5.155 -0.5145  0.5602  0.6518
18352THY    HA339579   5.790   5.432   5.172 -0.2634  1.1908  0.2842
18352THY    CA439580   5.662   5.310   5.032 -0.1644  0.4066 -0.6762
18352THY    HA439581   5.704   5.332   4.935 -0.2581  0.0005 -2.1772
18352THY    CA539582   5.551   5.223   5.027 -0.2211  0.4550  0.7678
18352THY    CM139583   5.500   5.165   4.896 -0.0627 -0.8772 -0.0112
18352THY    HM139584   5.524   5.058   4.886 -0.1269 -2.2012  0.0814
18352THY    HM239585   5.538   5.222   4.811  0.4531  0.0566  1.0645
18352THY    HM339586   5.390   5.165   4.891 -0.1609  0.2528 -1.7083
18352THY    CA639587   5.482   5.191   5.141  0.5054  0.7501 -0.0504
18352THY    HA639588   5.391   5.133   5.136  0.3301  0.0862  0.2726
18353THY      O39589   9.087   1.365   4.816  0.1292  0.3906  0.0866
18353THY     HO39590   9.091   1.281   4.767 -0.4214  1.2972 -0.4720
18353THY    CA139591   8.987   1.348   4.905  0.7448 -0.4828  0.1156
18353THY    CA239592   8.944   1.442   4.997  0.1454 -0.6798 -0.1498
18353THY    CP139593   9.010   1.582   5.001  0.3332  0.1205  0.2376
18353THY    HP139594   9.088   1.596   4.927 -0.4394 -0.1664  3.9935
18353THY    CP239595   9.062   1.621   5.135 -0.1431 -0.0252  0.3793
18353THY    HP239596   9.120   1.539   5.179 -0.1082  0.0343  0.4356
18353THY    HP339597   8.982   1.640   5.208  1.1797  1.2947  1.1197
18353THY    HP439598   9.118   1.712   5.112  2.7126  3.5048 -0.2648
18353THY    CP339599   8.913   1.688   4.948 -0.7913  0.0983  0.1399
18353THY    HP539600   8.908   1.663   4.841  1.9583 -0.1452  0.3195
18353THY    HP639601   8.955   1.788   4.962  0.5075 -1.2125 -0.1876
18353THY    HP739602   8.815   1.675   4.996 -0.3117  0.5024 -2.8117
18353THY    CA339603   8.841   1.410   5.088 -0.5331  0.6725 -1.0748
18353THY    HA339604   8.813   1.487   5.160 -1.4944 -1.0291  0.2152
18353THY    CA439605   8.776   1.289   5.086 -0.2125 -0.1079  0.7096
18353THY    HA439606   8.703   1.261   5.161  0.5837  0.8583  1.1473
18353THY    CA539607   8.822   1.193   4.993  0.6920 -0.3971 -0.0694
18353THY    CM139608   8.744   1.062   4.993 -0.4696 -0.0711 -0.3899
18353THY    HM139609   8.651   1.052   5.049  1.2785  3.0518 -0.3265
18353THY    HM239610   8.822   0.994   5.028  1.3101 -0.6362  1.2495
18353THY    HM339611   8.722   1.031   4.890 -2.9569  0.2380  0.2086
18353THY    CA639612   8.923   1.224   4.899 -0.2953 -0.8495  0.6952
18353THY    HA639613   8.958   1.141   4.839  1.5718  2.2500 -0.9338
18354THY      O39614   8.783   7.851   1.870 -0.0520 -0.1341  0.4024
18354THY     HO39615   8.770   7.754   1.866  0.3482 -1.5049  0.3828
18354THY    CA139616   8.824   7.881   1.998 -0.3466 -0.7852 -0.2345
18354THY    CA239617   8.833   8.017   2.041 -0.3537 -0.1240 -0.1292
18354THY    CP139618   8.815   8.123   1.932  0.0905  0.1684 -0.6142
18354THY    HP139619   8.754   8.084   1.850  0.3349  0.8174 -2.4836
18354THY    CP239620   8.951   8.161   1.877  0.3620 -0.5206  0.7162
18354THY    HP239621   8.994   8.078   1.820  0.7338  2.1989 -1.0751
18354THY    HP339622   9.015   8.183   1.963 -1.1502  0.8893 -0.1502
18354THY    HP439623   8.940   8.252   1.817 -2.1875  1.6568  2.0001
18354THY    CP339624   8.743   8.247   1.981  0.2760  0.0512  0.4189
18354THY    HP539625   8.818   8.319   2.018  1.1448 -2.4450  0.8995
18354THY    HP639626   8.672   8.213   2.056  1.4067  1.3281  0.7797
18354THY    HP739627   8.688   8.293   1.898 -0.4096 -0.0477 -0.5692
18354THY    CA339628   8.857   8.049   2.180 -0.2497 -0.4091 -0.5504
18354THY    HA339629   8.877   8.151   2.213  1.4816 -3.5059  0.2526
18354THY    CA439630   8.889   7.936   2.267  0.4581 -0.0251 -0.0960
18354THY    HA439631   8.905   7.958   2.373  0.1386  0.2446 -1.1179
18354THY    CA539632   8.867   7.808   2.228 -0.5216  0.2795 -0.8908
18354THY    CM139633   8.875   7.699   2.323 -0.2029 -0.1873  0.2970
18354THY    HM139634   8.953   7.720   2.398 -1.0052  0.1998  2.1579
18354THY    HM239635   8.894   7.602   2.277 -1.4839 -0.7156  0.2826
18354THY    HM339636   8.781   7.712   2.378 -0.2064  0.0372 -0.6428
18354THY    CA639637   8.832   7.784   2.094  0.2068 -0.6593  0.1492
18354THY    HA639638   8.814   7.680   2.067 -1.0203 -0.0826  0.1920
18355THY      O39639   6.446   7.818   7.733 -0.0901  0.0495 -0.3606
18355THY     HO39640   6.525   7.850   7.686  0.2441  0.1096 -1.0820
18355THY    CA139641   6.356   7.920   7.726  0.3214  0.0592 -0.3192
18355THY    CA239642   6.225   7.900   7.778 -0.1338 -0.7431 -0.4299
18355THY    CP139643   6.177   7.761   7.833  0.1161 -0.2776  0.1153
18355THY    HP139644   6.271   7.707   7.852  0.8052 -1.0599  1.0116
18355THY    CP239645   6.115   7.691   7.719  0.0798 -0.4513  0.1114
18355THY    HP239646   6.171   7.692   7.624 -2.5044 -2.0534 -0.0137
18355THY    HP339647   6.018   7.735   7.696  0.5187  0.1801  1.4309
18355THY    HP439648   6.101   7.586   7.750 -0.5854  0.7450  0.5423
18355THY    CP339649   6.084   7.757   7.950 -0.3370  0.1818  0.1867
18355THY    HP539650   6.104   7.839   8.021  2.5519 -0.8007  0.4480
18355THY    HP639651   6.087   7.656   7.992 -2.7717 -2.5176 -1.1419
18355THY    HP739652   5.979   7.771   7.921 -0.2503  0.6629  2.1682
18355THY    CA339653   6.136   8.008   7.780 -0.2262  0.2039 -0.0981
18355THY    HA339654   6.034   7.991   7.811  0.4234  2.7922  0.2535
18355THY    CA439655   6.178   8.130   7.735 -0.9912  0.0341  1.1456
18355THY    HA439656   6.106   8.209   7.717 -0.1133 -1.4928  1.6402
18355THY    CA539657   6.311   8.152   7.696 -0.0354 -0.2806  0.2438
18355THY    CM139658   6.364   8.285   7.643 -0.5536 -0.1287  0.0407
18355THY    HM139659   6.389   8.349   7.728 -1.5234  1.4311 -1.5587
18355THY    HM239660   6.294   8.345   7.583 -1.7814  0.6057 -0.6213
18355THY    HM339661   6.453   8.267   7.581  0.3743  0.6191  1.7849
18355THY    CA639662   6.400   8.043   7.683  0.3263 -0.1460  0.3331
18355THY    HA639663   6.501   8.056   7.647  0.1821 -0.8930 -0.5121
18356THY      O39664   4.346   8.813   6.852  0.2363  0.5366 -0.2939
18356THY     HO39665   4.412   8.883   6.837  0.1466  0.4490 -0.2272
18356THY    CA139666   4.228   8.878   6.857  0.9666  0.7009 -0.3030
18356THY    CA239667   4.112   8.814   6.906 -0.3158  0.4714  0.1353
18356THY    CP139668   4.127   8.674   6.965  0.2589  0.8098  0.2049
18356THY    HP139669   4.230   8.635   6.965  0.5824 -1.1113  0.9607
18356THY    CP239670   4.043   8.575   6.880 -0.3489 -0.8798  0.2725
18356THY    HP239671   4.055   8.587   6.771  0.0129 -1.1219 -1.9146
18356THY    HP339672   3.935   8.570   6.891 -0.2444 -0.3225 -2.2599
18356THY    HP439673   4.075   8.473   6.904 -1.1669 -2.0660 -0.2871
18356THY    CP339674   4.087   8.658   7.112  0.7591  0.3086 -0.6117
18356THY    HP539675   4.140   8.735   7.168  0.0519 -0.4510  0.4662
18356THY    HP639676   4.107   8.557   7.149  0.6957  1.4732 -0.2171
18356THY    HP739677   3.980   8.673   7.132  0.8479  0.3028  0.0309
18356THY    CA339678   3.985   8.878   6.900  0.7708  0.1016 -0.6754
18356THY    HA339679   3.893   8.827   6.928  1.0363  1.7642 -0.2974
18356THY    CA439680   3.980   9.008   6.852  0.4750  0.5632 -0.3571
18356THY    HA439681   3.882   9.052   6.836  0.4355  1.3893 -0.1209
18356THY    CA539682   4.096   9.080   6.822  0.7556 -0.4236  0.4725
18356THY    CM139683   4.095   9.225   6.786  0.0266  0.2636  0.3397
18356THY    HM139684   4.045   9.242   6.690  1.3279 -0.3970  0.5708
18356THY    HM239685   4.198   9.249   6.756  0.0965 -1.3031 -1.6581
18356THY    HM339686   4.066   9.282   6.875 -0.2205  0.5310 -0.1942
18356THY    CA639687   4.217   9.013   6.832 -0.8094  0.4584 -1.0184
18356THY    HA639688   4.312   9.059   6.804 -0.0792  0.7502 -2.2893
18357THY      O39689   4.639   1.135   2.890 -0.5798  0.3043  0.0872
18357THY     HO39690   4.591   1.181   2.819 -1.4150  0.7950 -0.0061
18357THY    CA139691   4.772   1.155   2.865  0.6250  0.4300  0.4452
18357THY    CA239692   4.857   1.193   2.973 -0.4504 -0.0071 -0.7756
18357THY    CP139693   4.812   1.181   3.120 -0.4866  0.0251  0.0284
18357THY    HP139694   4.709   1.142   3.125 -0.5939  0.3737  0.3427
18357THY    CP239695   4.821   1.320   3.184  0.3920 -0.0717 -0.0094
18357THY    HP239696   4.906   1.381   3.149 -0.1005 -0.6194  0.3709
18357THY    HP339697   4.832   1.295   3.290 -0.1987 -0.4101 -1.8348
18357THY    HP439698   4.729   1.373   3.158  0.5103  2.4111  1.5787
18357THY    CP339699   4.910   1.082   3.189  0.3315  0.3034  0.7070
18357THY    HP539700   5.011   1.123   3.192  0.8421  1.5709 -0.5940
18357THY    HP639701   4.916   0.988   3.133 -4.1973 -1.5959  1.2851
18357THY    HP739702   4.881   1.067   3.293 -0.8498  0.4544  3.4627
18357THY    CA339703   4.985   1.212   2.939 -0.0673  0.2407 -0.8805
18357THY    HA339704   5.067   1.243   3.003  1.1811 -1.5344 -0.3744
18357THY    CA439705   5.025   1.201   2.807 -0.2630 -0.0198  0.5809
18357THY    HA439706   5.129   1.224   2.785 -0.3278 -0.1640  0.7432
18357THY    CA539707   4.941   1.176   2.706 -0.1098  0.0699  0.1921
18357THY    CM139708   4.996   1.170   2.568  1.1445  0.0153  0.0488
18357THY    HM139709   4.926   1.220   2.501  0.4041  1.7831  1.5034
18357THY    HM239710   5.024   1.067   2.544 -1.0019  0.1033 -0.6189
18357THY    HM339711   5.090   1.225   2.557  0.6604  1.4555  1.2388
18357THY    CA639712   4.813   1.144   2.739 -0.5705  1.2783  0.3518
18357THY    HA639713   4.744   1.122   2.658 -0.5962  1.2842  0.4115
18358THY      O39714   9.026   5.151   3.211 -0.1545  0.3966 -0.4550
18358THY     HO39715   9.033   5.093   3.289  0.5399 -0.0578 -0.9996
18358THY    CA139716   8.899   5.164   3.165  0.3384 -1.1588  0.5119
18358THY    CA239717   8.861   5.242   3.056  1.0384 -0.7987 -0.3082
18358THY    CP139718   8.967   5.315   2.978  0.1950 -0.1409  0.1510
18358THY    HP139719   9.050   5.339   3.045 -0.8837  1.2276  0.2099
18358THY    CP239720   8.935   5.441   2.912  0.1858  0.1651 -0.6889
18358THY    HP239721   8.903   5.520   2.981  1.7367 -0.2994  0.4162
18358THY    HP339722   8.859   5.434   2.833  0.0639  0.0041  1.6042
18358THY    HP439723   9.026   5.477   2.862 -0.9151  0.3383  2.6846
18358THY    CP339724   9.019   5.218   2.873 -0.2015  0.5608 -0.2765
18358THY    HP539725   8.941   5.182   2.804 -0.7720  1.1900 -0.2828
18358THY    HP639726   9.051   5.133   2.933 -0.1104 -1.7303 -1.9606
18358THY    HP739727   9.103   5.255   2.813 -1.6912 -2.9858 -2.1067
18358THY    CA339728   8.731   5.256   3.020  0.0585  0.0941 -0.7632
18358THY    HA339729   8.707   5.316   2.933  1.5559  1.5163  2.1308
18358THY    CA439730   8.633   5.183   3.093 -0.2406 -0.5006  0.4754
18358THY    HA439731   8.528   5.188   3.066 -0.4938  0.2743 -0.4342
18358THY    CA539732   8.673   5.098   3.199  0.4538  0.2822 -0.2275
18358THY    CM139733   8.579   5.023   3.283  0.3427  0.3513  0.8433
18358THY    HM139734   8.627   4.995   3.377  1.4013  0.4328  2.7943
18358THY    HM239735   8.545   4.931   3.234 -0.6408  2.2733  0.1256
18358THY    HM339736   8.489   5.082   3.308 -0.6868  1.9625 -1.2784
18358THY    CA639737   8.808   5.091   3.238  0.8161  0.2521 -0.1502
18358THY    HA639738   8.836   5.033   3.325 -2.3098  0.2867 -1.8415
18359THY      O39739   3.342   1.864   6.364  0.6251 -0.2464 -0.4486
18359THY     HO39740   3.284   1.868   6.442  0.7639 -0.1867  0.9409
18359THY    CA139741   3.274   1.787   6.276 -0.0311 -0.7074 -0.0445
18359THY    CA239742   3.265   1.646   6.281  0.2522 -0.9179 -0.0891
18359THY    CP139743   3.339   1.571   6.398 -0.1318 -0.2149  0.5220
18359THY    HP139744   3.338   1.634   6.488 -3.7685  1.7385 -1.9341
18359THY    CP239745   3.475   1.542   6.339 -0.5484  0.8411 -0.5837
18359THY    HP239746   3.504   1.646   6.324  0.8837  0.3257 -1.0233
18359THY    HP339747   3.476   1.476   6.251 -0.6379  0.4124 -0.0161
18359THY    HP439748   3.534   1.515   6.428 -0.1167  0.6445 -0.2981
18359THY    CP339749   3.267   1.449   6.456 -0.4002  0.0033  0.2212
18359THY    HP539750   3.166   1.470   6.492 -1.1063  0.4103 -3.3207
18359THY    HP639751   3.319   1.390   6.532  0.3220 -1.4905 -1.1587
18359THY    HP739752   3.258   1.374   6.377  1.0932 -0.0301  0.0490
18359THY    CA339753   3.178   1.585   6.191 -0.8023 -0.3462  0.2349
18359THY    HA339754   3.171   1.476   6.191 -1.9074  0.4827  0.2966
18359THY    CA439755   3.113   1.659   6.091  0.2689  0.3447  0.0525
18359THY    HA439756   3.034   1.613   6.031 -0.4483  1.4147 -0.1456
18359THY    CA539757   3.139   1.795   6.070 -0.7005 -0.5652 -0.3307
18359THY    CM139758   3.085   1.868   5.951 -0.0960 -0.6558 -0.3205
18359THY    HM139759   2.978   1.891   5.962 -0.4212 -0.8358 -1.7018
18359THY    HM239760   3.092   1.805   5.862  0.2498  0.2514 -1.5959
18359THY    HM339761   3.160   1.945   5.927  0.9683 -0.1093 -1.1576
18359THY    CA639762   3.211   1.856   6.168  0.6323 -0.9006 -0.0835
18359THY    HA639763   3.224   1.964   6.170 -1.1636 -2.8395  0.2296
18360THY      O39764   2.496   0.777   6.258 -0.0267  0.1885 -0.2179
18360THY     HO39765   2.500   0.847   6.191  0.4683  2.6906  2.3317
18360THY    CA139766   2.411   0.813   6.360  0.3081  0.3031 -0.3828
18360THY    CA239767   2.438   0.791   6.496  0.4569 -1.2245  0.8578
18360THY    CP139768   2.570   0.729   6.539 -0.1302  0.0814  0.2357
18360THY    HP139769   2.631   0.687   6.457  0.5144  1.3225 -1.3533
18360THY    CP239770   2.555   0.601   6.626 -0.1106 -0.1767  0.1966
18360THY    HP239771   2.488   0.624   6.710 -1.3923 -1.2598  0.5442
18360THY    HP339772   2.656   0.581   6.663 -1.0637  1.4729 -1.9816
18360THY    HP439773   2.510   0.521   6.565 -1.0298  0.0024  0.5735
18360THY    CP339774   2.652   0.842   6.606 -0.4268  0.2411  0.1764
18360THY    HP539775   2.632   0.932   6.547 -0.3417 -2.3798 -1.4343
18360THY    HP639776   2.760   0.829   6.604 -0.5996 -0.9820 -1.2374
18360THY    HP739777   2.618   0.855   6.710 -0.7744  0.2391 -0.6631
18360THY    CA339778   2.332   0.804   6.596  0.3589  0.6687 -0.2868
18360THY    HA339779   2.343   0.788   6.703 -0.0596  0.6129 -0.9925
18360THY    CA439780   2.210   0.861   6.550  0.1691  0.2496  0.5629
18360THY    HA439781   2.134   0.891   6.621  0.1869  0.3177  0.4502
18360THY    CA539782   2.187   0.889   6.419 -0.1309  0.3017 -0.3125
18360THY    CM139783   2.056   0.957   6.385 -0.6040  0.7228  0.0379
18360THY    HM139784   2.062   1.025   6.299  0.4477  0.0350 -0.8930
18360THY    HM239785   2.009   1.006   6.471 -1.8482  0.2870 -0.3721
18360THY    HM339786   1.989   0.878   6.349  0.0511 -1.2523  0.3222
18360THY    CA639787   2.285   0.860   6.323 -0.7967  0.3070 -0.2159
18360THY    HA639788   2.273   0.865   6.216 -0.6782  0.2912 -0.2642
18361THY      O39789   6.848   5.215   2.880  0.8154  0.0205  0.2599
18361THY     HO39790   6.933   5.168   2.879 -0.0600  0.0812 -1.4026
18361THY    CA139791   6.768   5.151   2.978  0.7074 -0.7109 -0.0986
18361THY    CA239792   6.621   5.154   2.983 -0.1949 -0.0227  0.1104
18361THY    CP139793   6.539   5.245   2.886  0.1783  0.2824 -0.0475
18361THY    HP139794   6.595   5.336   2.860 -1.2886 -0.0660  0.7938
18361THY    CP239795   6.410   5.301   2.947 -0.5523  0.1731 -0.6078
18361THY    HP239796   6.332   5.225   2.952  0.4613 -0.3844 -1.7175
18361THY    HP339797   6.376   5.389   2.891  2.8003 -0.7065  0.2762
18361THY    HP439798   6.416   5.330   3.052 -2.2321  0.3191 -0.6669
18361THY    CP339799   6.515   5.169   2.754 -0.0019 -0.0120 -0.4295
18361THY    HP539800   6.471   5.237   2.680 -0.5099  1.9380  1.5183
18361THY    HP639801   6.446   5.086   2.771 -2.4784  2.0681  1.8263
18361THY    HP739802   6.611   5.134   2.715 -0.4103 -1.1364 -0.3375
18361THY    CA339803   6.556   5.084   3.087  0.2128  0.2515  0.5059
18361THY    HA339804   6.450   5.099   3.101 -0.1930 -0.3908 -1.4126
18361THY    CA439805   6.625   4.995   3.165  0.1348 -0.5638  0.6873
18361THY    HA439806   6.578   4.941   3.247 -0.2214 -1.1614  0.0854
18361THY    CA539807   6.762   4.993   3.156  0.1924  0.2456 -0.1092
18361THY    CM139808   6.835   4.890   3.244  0.2647 -0.4897 -0.2228
18361THY    HM139809   6.941   4.919   3.241 -0.3598 -1.5876  2.1842
18361THY    HM239810   6.811   4.791   3.203  1.0099 -2.1449  0.2494
18361THY    HM339811   6.814   4.895   3.351  0.5717 -0.4248 -0.2571
18361THY    CA639812   6.836   5.067   3.062  1.0759  0.0611 -0.2731
18361THY    HA639813   6.944   5.067   3.054  1.0449 -0.9643  1.8309
18362THY      O39814   8.065   5.235   7.541 -0.0547  0.3410 -0.2902
18362THY     HO39815   8.010   5.155   7.543 -1.1647  2.9474  0.4476
18362THY    CA139816   8.123   5.250   7.419  1.1487  0.6304  0.6880
18362THY    CA239817   8.235   5.326   7.401 -0.3495  0.5615 -0.1080
18362THY    CP139818   8.307   5.384   7.523 -0.1170 -0.1252  1.0322
18362THY    HP139819   8.244   5.402   7.610  0.4649  0.7990 -1.1276
18362THY    CP239820   8.374   5.519   7.497 -0.6014  0.0684 -0.2540
18362THY    HP239821   8.394   5.576   7.588 -0.7542 -0.2073  0.2477
18362THY    HP339822   8.309   5.589   7.441 -0.3765  1.1751  0.8774
18362THY    HP439823   8.463   5.517   7.433 -0.4597  0.2921 -1.5862
18362THY    CP339824   8.406   5.284   7.593 -0.0402  0.0599 -0.0390
18362THY    HP539825   8.352   5.192   7.618  1.0460 -0.7222 -0.9119
18362THY    HP639826   8.448   5.329   7.684 -1.4784  1.2409 -0.9881
18362THY    HP739827   8.493   5.269   7.529  0.8322  1.0185  0.7771
18362THY    CA339828   8.288   5.342   7.270  0.3883  0.1011  0.2750
18362THY    HA339829   8.379   5.400   7.258  1.6845 -0.1340 -1.7253
18362THY    CA439830   8.220   5.285   7.164  0.3604  0.1273 -0.4997
18362THY    HA439831   8.247   5.298   7.059  0.3716  0.1737 -0.1342
18362THY    CA539832   8.105   5.210   7.184  0.1029  0.4954 -0.2467
18362THY    CM139833   8.027   5.146   7.076  0.5070  0.3626 -0.1457
18362THY    HM139834   8.039   5.038   7.089 -2.1738  1.0219 -0.4332
18362THY    HM239835   8.047   5.174   6.972  0.1751 -0.6862 -3.4069
18362THY    HM339836   7.921   5.152   7.103  0.0222 -1.3419 -0.5465
18362THY    CA639837   8.060   5.190   7.313  0.7386 -0.8093 -0.5297
18362THY    HA639838   7.973   5.129   7.336  0.6317 -3.1050 -1.3159
18363THY      O39839   3.141   4.619   6.249 -0.3668  0.4419 -0.6457
18363THY     HO39840   3.098   4.664   6.323 -1.6125 -1.4676  1.5466
18363THY    CA139841   3.067   4.505   6.231 -0.3315  0.4741  0.4467
18363THY    CA239842   3.086   4.435   6.110 -0.7416 -0.4982  0.4029
18363THY    CP139843   3.200   4.473   6.015  0.4253 -0.9622  0.2979
18363THY    HP139844   3.212   4.582   6.018 -3.0293 -2.1281  0.8137
18363THY    CP239845   3.167   4.444   5.865  0.0024 -0.3650  0.3288
18363THY    HP239846   3.073   4.487   5.828  0.4212 -1.5559  0.2586
18363THY    HP339847   3.162   4.334   5.861  2.4636 -1.2557  0.1900
18363THY    HP439848   3.250   4.485   5.807  1.3134  1.3720  0.2371
18363THY    CP339849   3.325   4.398   6.061  0.1031 -0.0758  0.2324
18363THY    HP539850   3.348   4.437   6.161  0.5165 -0.0683 -0.0220
18363THY    HP639851   3.411   4.413   5.995 -0.1349 -0.5143 -0.2898
18363THY    HP739852   3.306   4.290   6.067  0.5774  0.7759  0.1857
18363THY    CA339853   3.018   4.314   6.094 -0.1997  0.4671  0.0427
18363THY    HA339854   3.020   4.267   5.996 -0.0160 -1.7896  4.2088
18363THY    CA439855   2.925   4.278   6.196 -0.8432 -0.2202 -0.1116
18363THY    HA439856   2.860   4.192   6.182 -3.1646 -0.9458  1.6403
18363THY    CA539857   2.916   4.350   6.314 -0.1428 -0.7642 -0.3414
18363THY    CM139858   2.819   4.311   6.417  0.7988  0.3213 -0.1004
18363THY    HM139859   2.733   4.378   6.405 -0.3764  2.0315 -1.2052
18363THY    HM239860   2.863   4.306   6.517 -0.3574  0.8133 -1.0736
18363THY    HM339861   2.771   4.214   6.397  0.3381  0.5706  0.0728
18363THY    CA639862   2.982   4.472   6.325  0.2560 -0.3894 -0.8477
18363THY    HA639863   2.956   4.525   6.416 -0.0342 -0.6136 -0.6006
18364THY      O39864   3.936   2.948   7.139 -0.1980 -0.1181 -0.2349
18364THY     HO39865   3.985   2.892   7.201  0.6225 -0.5758 -0.0451
18364THY    CA139866   4.033   3.018   7.072 -0.2601  0.5433 -0.4971
18364THY    CA239867   4.007   3.116   6.979  0.3271  0.4885  0.9065
18364THY    CP139868   3.859   3.127   6.931  0.0602 -0.6217  0.5310
18364THY    HP139869   3.789   3.066   6.989 -0.1422 -0.7509  0.6358
18364THY    CP239870   3.838   3.103   6.776 -0.3733 -0.4855  0.1283
18364THY    HP239871   3.900   3.165   6.712 -0.5281 -0.1604  0.6273
18364THY    HP339872   3.731   3.112   6.754 -0.4965 -0.3269 -0.7808
18364THY    HP439873   3.855   2.996   6.757  1.0737 -1.3119  0.4868
18364THY    CP339874   3.819   3.277   6.949 -0.5717  0.2222  0.4509
18364THY    HP539875   3.717   3.291   6.912 -0.9659  0.9526 -0.3805
18364THY    HP639876   3.883   3.347   6.894  0.2178 -0.9111 -1.0987
18364THY    HP739877   3.810   3.301   7.056 -1.2100  0.3518 -0.3462
18364THY    CA339878   4.111   3.195   6.923 -0.0775  0.6246 -0.0638
18364THY    HA339879   4.085   3.267   6.846 -1.8757  1.1824 -0.0762
18364THY    CA439880   4.241   3.183   6.977  0.4160 -0.0798  1.1709
18364THY    HA439881   4.328   3.238   6.940  0.4058 -1.5018  0.2840
18364THY    CA539882   4.268   3.085   7.075 -0.0023 -0.7110  0.2575
18364THY    CM139883   4.402   3.050   7.114 -0.7384 -0.4068  0.1266
18364THY    HM139884   4.407   3.032   7.222 -1.8956 -0.1145  1.3653
18364THY    HM239885   4.476   3.127   7.088 -1.4617 -0.6574  0.7541
18364THY    HM339886   4.445   2.969   7.056  1.3080 -1.3256  1.7764
18364THY    CA639887   4.162   2.997   7.118 -0.6198 -0.1320 -0.7628
18364THY    HA639888   4.180   2.909   7.179 -3.0241 -0.3866 -1.5185
18365THY      O39889   8.057   1.465   5.579 -0.1409 -0.2131 -0.2792
18365THY     HO39890   8.142   1.426   5.550 -0.5462  2.3392 -3.5587
18365THY    CA139891   7.967   1.457   5.481 -0.0932  0.5095 -0.1025
18365THY    CA239892   7.841   1.521   5.468 -0.0946 -0.3695  0.0557
18365THY    CP139893   7.806   1.626   5.579 -0.7090 -0.0134  0.0162
18365THY    HP139894   7.883   1.626   5.658 -0.2124 -0.4797 -1.4976
18365THY    CP239895   7.673   1.602   5.653 -0.0155 -0.3262 -0.1541
18365THY    HP239896   7.677   1.516   5.720  3.0031 -1.6475 -1.1859
18365THY    HP339897   7.592   1.584   5.581 -0.0305  0.1601 -2.3343
18365THY    HP439898   7.645   1.689   5.712 -0.7149  0.1399 -0.6813
18365THY    CP339899   7.812   1.770   5.526  0.5238  0.3759 -0.6929
18365THY    HP539900   7.757   1.849   5.578  2.1950  0.3479  0.5521
18365THY    HP639901   7.773   1.788   5.425  1.8887  0.1666  1.5135
18365THY    HP739902   7.918   1.794   5.511  1.0836  0.8390 -2.7233
18365THY    CA339903   7.757   1.505   5.357  0.0717 -0.3329 -0.4130
18365THY    HA339904   7.662   1.556   5.359  0.4344 -1.1949  0.3280
18365THY    CA439905   7.811   1.433   5.251 -0.1378  0.3574 -0.4162
18365THY    HA439906   7.757   1.416   5.158  0.8695 -0.0170 -1.7745
18365THY    CA539907   7.940   1.375   5.254 -0.0170  0.4691 -0.2093
18365THY    CM139908   7.991   1.291   5.145 -0.4004 -0.2575  0.9000
18365THY    HM139909   7.940   1.329   5.056 -0.0423 -0.8105  0.0957
18365THY    HM239910   7.946   1.193   5.166  1.0222 -0.5132  0.1630
18365THY    HM339911   8.098   1.267   5.149 -0.6837  1.0467 -0.2748
18365THY    CA639912   8.015   1.385   5.371  0.1312  0.4946 -0.1050
18365THY    HA639913   8.109   1.331   5.375 -0.1319  0.4657 -0.5782
18366THY      O39914   8.017   8.827   7.064 -0.1418  0.1840  0.1359
18366THY     HO39915   8.005   8.772   6.984  0.6555 -1.1853  1.8569
18366THY    CA139916   7.948   8.940   7.048  0.6004 -0.8563 -0.1020
18366THY    CA239917   7.965   9.049   7.141 -0.7225  0.2395  0.2621
18366THY    CP139918   8.072   9.045   7.243  0.3232 -0.9492  0.8392
18366THY    HP139919   8.159   9.007   7.188 -0.2225 -0.8383 -0.6272
18366THY    CP239920   8.047   8.955   7.362  0.5062  0.4226 -0.3658
18366THY    HP239921   8.056   8.852   7.327  1.6821 -1.4490  0.3263
18366THY    HP339922   7.944   8.977   7.394  0.3726 -0.9577  1.1450
18366THY    HP439923   8.117   8.972   7.445 -0.9411  1.4356  0.8963
18366THY    CP339924   8.113   9.185   7.300 -0.7373 -0.0200  0.7588
18366THY    HP539925   8.046   9.212   7.382 -2.3378 -0.4548 -1.5746
18366THY    HP639926   8.102   9.256   7.217  1.5633  0.0315  1.2326
18366THY    HP739927   8.214   9.186   7.342 -0.9336  0.5872 -0.9510
18366THY    CA339928   7.882   9.157   7.121 -0.5829 -0.4435 -0.6129
18366THY    HA339929   7.887   9.250   7.176 -0.8320 -1.4040 -0.0266
18366THY    CA439930   7.785   9.160   7.020  0.9093 -0.2088 -0.1305
18366THY    HA439931   7.715   9.243   7.014 -0.7446  0.5061 -1.4047
18366THY    CA539932   7.775   9.053   6.933  0.1647 -0.3708  0.3381
18366THY    CM139933   7.680   9.055   6.815  0.0346  0.8186  0.2405
18366THY    HM139934   7.638   8.959   6.784 -1.2628 -1.2479  1.4078
18366THY    HM239935   7.727   9.083   6.720  0.2436 -0.2357 -3.2542
18366THY    HM339936   7.595   9.122   6.836 -0.3580 -0.1871  0.0725
18366THY    CA639937   7.852   8.943   6.948  0.8745 -1.0866 -0.3899
18366THY    HA639938   7.855   8.858   6.880  2.0835 -1.8011  0.1957
18367THY      O39939   3.410   8.034   2.331  0.0389  0.9071  0.1661
18367THY     HO39940   3.504   8.051   2.316  0.6453  0.5918 -2.8358
18367THY    CA139941   3.382   7.916   2.274 -0.5960  0.3620 -0.2350
18367THY    CA239942   3.255   7.865   2.270 -0.5440 -0.9112  0.2357
18367THY    CP139943   3.140   7.940   2.328 -0.2289 -0.7041 -0.3744
18367THY    HP139944   3.169   8.039   2.365  0.1361 -0.9692 -0.3805
18367THY    CP239945   3.082   7.869   2.457  0.4262 -0.5321  0.3660
18367THY    HP239946   3.163   7.854   2.530 -0.7838  0.7624 -0.0636
18367THY    HP339947   3.036   7.773   2.433 -0.5036 -1.0277  0.9214
18367THY    HP439948   2.998   7.922   2.505  0.2969  0.7764 -0.9729
18367THY    CP339949   3.022   7.958   2.233  0.3096  0.2032 -0.4537
18367THY    HP539950   2.942   7.888   2.256  0.0015  1.7002  0.3404
18367THY    HP639951   3.068   7.958   2.134 -1.6931 -0.8030  0.9601
18367THY    HP739952   2.986   8.061   2.245  2.4433  1.5643  0.2234
18367THY    CA339953   3.221   7.753   2.197  0.2797 -0.9050 -0.3713
18367THY    HA339954   3.119   7.717   2.186 -0.2515 -1.5772  1.2553
18367THY    CA439955   3.331   7.678   2.154  0.7575  0.3987 -0.6082
18367THY    HA439956   3.309   7.585   2.101 -1.1970 -0.9712  0.5633
18367THY    CA539957   3.460   7.717   2.168  0.0075  0.0205 -0.0730
18367THY    CM139958   3.573   7.640   2.101  0.4411 -0.1118  0.1808
18367THY    HM139959   3.677   7.649   2.134  0.5302  0.5501 -2.4126
18367THY    HM239960   3.562   7.657   1.993  1.2858 -0.2380 -0.0143
18367THY    HM339961   3.557   7.532   2.112  2.4494 -1.6341 -0.3449
18367THY    CA639962   3.486   7.845   2.221 -0.2081  0.6639  0.2135
18367THY    HA639963   3.589   7.877   2.220 -0.1237  0.0358 -0.0616
18368THY      O39964   6.648   8.805   3.437  0.1724 -0.2052  0.0214
18368THY     HO39965   6.651   8.858   3.518 -0.3111 -2.3693  3.6600
18368THY    CA139966   6.781   8.789   3.408 -0.4044 -0.2523  0.4906
18368THY    CA239967   6.826   8.750   3.282  0.3279 -0.3385  0.0361
18368THY    CP139968   6.717   8.742   3.167  0.2618  0.4252  0.0969
18368THY    HP139969   6.616   8.774   3.196 -0.4123 -1.5571 -0.1162
18368THY    CP239970   6.702   8.590   3.114 -0.0868 -0.2886 -0.4902
18368THY    HP239971   6.654   8.538   3.198  0.6923  1.6741  1.7589
18368THY    HP339972   6.799   8.555   3.078  0.1305  0.1543 -0.3612
18368THY    HP439973   6.640   8.576   3.025 -0.1076 -0.1206 -1.5187
18368THY    CP339974   6.756   8.827   3.044  0.2089 -0.0083 -0.1130
18368THY    HP539975   6.856   8.800   3.007 -0.3265 -1.6613  0.0189
18368THY    HP639976   6.746   8.931   3.078  0.6267 -0.7003  0.1609
18368THY    HP739977   6.685   8.808   2.963 -0.5922 -0.1373  2.8865
18368THY    CA339978   6.968   8.738   3.264  0.0808  0.3061  0.5463
18368THY    HA339979   7.005   8.720   3.164 -0.4406  0.0777  0.7173
18368THY    CA439980   7.056   8.744   3.371  0.5404  0.0540 -0.0902
18368THY    HA439981   7.160   8.714   3.361 -0.3875 -2.1049 -3.0974
18368THY    CA539982   7.003   8.779   3.501 -0.3794  0.7077 -0.8379
18368THY    CM139983   7.093   8.761   3.625 -0.3808  0.0323 -0.1143
18368THY    HM139984   7.179   8.828   3.617  0.1103  2.0206 -0.4520
18368THY    HM239985   7.136   8.661   3.632 -1.1036  1.4709 -0.3465
18368THY    HM339986   7.036   8.796   3.712  0.2669  0.3054  0.2802
18368THY    CA639987   6.870   8.808   3.515  0.2792  0.0544  0.0624
18368THY    HA639988   6.839   8.834   3.616 -0.3902 -0.4194  1.1418
18369THY      O39989   1.990   9.323   4.013  0.2968 -0.2759 -0.0823
18369THY     HO39990   1.922   9.337   4.081  1.6858  1.3248 -0.7545
18369THY    CA139991   2.086   9.265   4.079  0.2890 -0.0314 -0.4635
18369THY    CA239992   2.200   9.214   4.017 -0.6013  0.6510 -0.0841
18369THY    CP139993   2.209   9.236   3.865  0.2521 -0.2943 -0.1206
18369THY    HP139994   2.165   9.330   3.830  0.1550 -0.1196 -0.1011
18369THY    CP239995   2.135   9.126   3.801 -0.6370 -0.2404  0.0996
18369THY    HP239996   2.145   9.147   3.694 -1.3392 -0.4387 -0.5576
18369THY    HP339997   2.028   9.129   3.826 -0.2159  1.7075  0.0685
18369THY    HP439998   2.177   9.026   3.819 -1.4122 -1.2698 -0.4302
18369THY    CP339999   2.358   9.242   3.824 -1.1288  1.2275  0.2969
18369THY    HP540000   2.355   9.261   3.716  0.3948  1.3473  1.3346
18369THY    HP640001   2.418   9.151   3.834  1.2337  0.2433  1.6396
18369THY    HP740002   2.426   9.320   3.861 -1.2182 -0.2195  1.1033
18369THY    CA340003   2.305   9.150   4.095 -0.0335  0.2909  0.3986
18369THY    HA340004   2.389   9.100   4.047  0.9637  3.2206 -0.9153
18369THY    CA440005   2.282   9.141   4.234 -1.5977  0.0596  0.2612
18369THY    HA440006   2.342   9.081   4.302 -0.8076 -1.0648 -0.2560
18369THY    CA540007   2.175   9.205   4.295  0.4739 -0.5852  0.2305
18369THY    CM140008   2.165   9.211   4.444 -0.2436  0.0688 -0.1605
18369THY    HM140009   2.074   9.157   4.473 -0.3010  1.6872  0.7220
18369THY    HM240010   2.150   9.315   4.477  0.2761  1.3223 -0.4699
18369THY    HM340011   2.246   9.154   4.491 -0.9424 -0.0814 -1.2985
18369THY    CA640012   2.073   9.265   4.215 -0.3469  0.3114  0.0862
18369THY    HA640013   1.989   9.316   4.261 -0.1123 -1.9357  2.7396
18370THY      O40014   8.230   5.807   4.732  0.1066  0.3479 -0.0625
18370THY     HO40015   8.222   5.732   4.794 -0.2133 -1.0507 -1.2152
18370THY    CA140016   8.219   5.743   4.613  0.4898  0.5815 -0.0499
18370THY    CA240017   8.158   5.806   4.497 -0.5438 -0.9006  0.5700
18370THY    CP140018   8.118   5.955   4.500 -0.2614  0.1172 -0.5421
18370THY    HP140019   8.130   6.002   4.599 -0.2525  0.0094 -0.3152
18370THY    CP240020   7.968   5.978   4.468  0.6013  0.3255 -0.1793
18370THY    HP240021   7.924   5.922   4.551 -0.1784 -0.3235 -0.5365
18370THY    HP340022   7.957   5.925   4.373 -1.3246 -0.2586  1.1701
18370THY    HP440023   7.938   6.082   4.450  1.4385 -5.3041 -0.5967
18370THY    CP340024   8.217   6.038   4.416  0.6667  0.6109  0.2366
18370THY    HP540025   8.306   6.056   4.477 -0.2557  1.0936  4.0342
18370THY    HP640026   8.167   6.130   4.386 -0.7483  0.3564 -0.5891
18370THY    HP740027   8.243   5.975   4.330 -2.5661  0.7284 -1.4667
18370THY    CA340028   8.139   5.726   4.386 -0.2117 -0.1206  0.1548
18370THY    HA340029   8.086   5.758   4.296  0.2775 -0.5547 -0.2372
18370THY    CA440030   8.178   5.595   4.386 -0.5222 -0.1386  1.3637
18370THY    HA440031   8.155   5.527   4.304  0.9305 -1.7367  2.6952
18370THY    CA540032   8.238   5.533   4.494  0.1535  0.1762 -1.0675
18370THY    CM140033   8.251   5.386   4.499  0.4699  0.3788 -0.3307
18370THY    HM140034   8.258   5.352   4.395 -0.8358  0.3105 -0.4542
18370THY    HM240035   8.157   5.342   4.534 -0.2156 -2.2462 -1.1501
18370THY    HM340036   8.337   5.358   4.561  0.1667  0.8851 -0.1587
18370THY    CA640037   8.253   5.610   4.607  0.0405 -0.1641 -0.3349
18370THY    HA640038   8.290   5.558   4.694 -1.3846  1.4769  1.2523
18371THY      O40039   6.323   9.041   3.539 -0.6750  0.2247 -0.0049
18371THY     HO40040   6.304   8.951   3.509  0.6750 -0.4797 -0.0750
18371THY    CA140041   6.226   9.082   3.626  0.7466  0.0631 -0.5033
18371THY    CA240042   6.090   9.039   3.614 -0.7617 -0.4465 -0.3975
18371THY    CP140043   6.043   8.945   3.507  0.1890  0.0417  0.0298
18371THY    HP140044   6.127   8.926   3.438  1.3568  1.1248  1.0857
18371THY    CP240045   5.940   9.017   3.422  0.1940  0.5797 -0.0508
18371THY    HP240046   5.950   8.985   3.318 -1.4941  0.0727  0.9337
18371THY    HP340047   5.967   9.123   3.410 -1.7523 -0.5389  0.3555
18371THY    HP440048   5.839   9.001   3.461  0.2144  0.0231 -1.6898
18371THY    CP340049   6.009   8.805   3.553  0.3721 -0.5953  0.4043
18371THY    HP540050   6.090   8.759   3.611  1.7176 -2.0025  0.8931
18371THY    HP640051   5.995   8.734   3.471  0.1077  1.0351 -1.5350
18371THY    HP740052   5.918   8.806   3.614  0.9454  0.2817  2.4413
18371THY    CA340053   6.008   9.096   3.713  0.0285  0.9972  0.5948
18371THY    HA340054   5.905   9.060   3.716  0.2921  0.1971 -0.2563
18371THY    CA440055   6.051   9.183   3.812 -0.8504 -0.3779 -0.1611
18371THY    HA440056   5.985   9.223   3.888 -0.1685 -0.0683  0.3905
18371THY    CA540057   6.183   9.212   3.825 -0.5185 -0.2283  0.4526
18371THY    CM140058   6.241   9.283   3.946  0.0913  0.1064  0.3981
18371THY    HM140059   6.348   9.304   3.942  1.1583 -0.7790 -4.1222
18371THY    HM240060   6.233   9.230   4.042 -0.6874 -0.2187 -0.1030
18371THY    HM340061   6.190   9.379   3.940 -1.7941 -0.1393 -0.5647
18371THY    CA640062   6.273   9.172   3.724  0.5844 -0.9837  0.6523
18371THY    HA640063   6.380   9.187   3.732  0.5531  1.0815  0.1001
18372THY      O40064   8.161   5.457   7.858 -0.4201  0.5143 -0.2548
18372THY     HO40065   8.239   5.447   7.916  1.4146 -1.6201  0.9694
18372THY    CA140066   8.138   5.589   7.851  0.2595  0.2780  0.0913
18372THY    CA240067   8.044   5.647   7.760  0.4803  0.3963 -0.6639
18372THY    CP140068   7.963   5.567   7.657 -0.2282 -0.1708  0.2747
18372THY    HP140069   7.985   5.459   7.648 -1.3025 -0.8468  0.0877
18372THY    CP240070   7.975   5.627   7.519 -0.1718  0.5730 -0.8605
18372THY    HP240071   8.075   5.673   7.515 -0.9986 -0.0422  0.9813
18372THY    HP340072   7.900   5.703   7.493 -1.2605 -0.1795 -2.1526
18372THY    HP440073   7.976   5.542   7.449  0.0742  0.1863 -0.5456
18372THY    CP340074   7.823   5.545   7.714  0.2150  0.3995  0.4030
18372THY    HP540075   7.834   5.472   7.796  0.6167 -0.0754 -0.0747
18372THY    HP640076   7.761   5.487   7.645  0.0981  1.0641 -0.2963
18372THY    HP740077   7.774   5.632   7.759 -0.7096  0.2801 -0.0510
18372THY    CA340078   8.010   5.781   7.771  0.6185 -0.0766 -0.2532
18372THY    HA340079   7.932   5.825   7.710  1.3002 -0.3017  0.6651
18372THY    CA440080   8.074   5.863   7.865 -1.1028 -0.5282 -0.1125
18372THY    HA440081   8.053   5.970   7.865  0.7278 -0.4446  0.2809
18372THY    CA540082   8.167   5.801   7.956 -0.2479 -0.2467 -0.4486
18372THY    CM140083   8.246   5.889   8.051  0.3224 -0.3966 -0.1646
18372THY    HM140084   8.349   5.852   8.055 -0.2422 -1.2243 -1.9112
18372THY    HM240085   8.193   5.892   8.147  2.0891  0.6331 -0.4042
18372THY    HM340086   8.254   5.993   8.016 -0.8676 -0.4298 -0.0801
18372THY    CA640087   8.210   5.666   7.944  0.1464 -0.2883  0.2998
18372THY    HA640088   8.270   5.622   8.023 -3.5812  1.6062 -1.9071
18373THY      O40089   1.000   8.136   5.711  0.4435  0.4148  0.0333
18373THY     HO40090   0.949   8.156   5.791 -0.9888 -0.7573  1.3108
18373THY    CA140091   1.099   8.054   5.751 -0.9310 -0.2355 -0.0725
18373THY    CA240092   1.198   8.004   5.660  1.3956 -0.7300 -0.1272
18373THY    CP140093   1.204   8.060   5.525  0.3060  0.3265  0.1310
18373THY    HP140094   1.108   8.107   5.501  0.1226  0.0491 -0.3668
18373THY    CP240095   1.205   7.938   5.432 -0.5082 -0.4771  0.4067
18373THY    HP240096   1.174   7.972   5.332  0.4556 -0.8760  0.1574
18373THY    HP340097   1.125   7.870   5.463  0.3242  2.3498  0.6057
18373THY    HP440098   1.304   7.891   5.431 -1.1232  0.0107 -0.9397
18373THY    CP340099   1.323   8.142   5.497  0.6465  0.3368  0.5418
18373THY    HP540100   1.420   8.092   5.510  1.5087  0.6963  2.2081
18373THY    HP640101   1.321   8.241   5.544  3.2256 -0.4290  1.0535
18373THY    HP740102   1.322   8.171   5.392  2.8702  0.6193  1.9564
18373THY    CA340103   1.284   7.902   5.710 -0.6251 -0.1386 -0.3105
18373THY    HA340104   1.367   7.876   5.645  1.0101  2.1377 -1.1130
18373THY    CA440105   1.288   7.870   5.848  0.0429  0.2112 -0.0779
18373THY    HA440106   1.358   7.795   5.883  1.2247 -2.0673 -0.1294
18373THY    CA540107   1.191   7.926   5.932  0.0752 -0.0584 -0.9593
18373THY    CM140108   1.206   7.899   6.078  0.4895  0.3991 -0.4663
18373THY    HM140109   1.270   7.811   6.087  0.2276 -3.7520 -1.2659
18373THY    HM240110   1.116   7.864   6.129  0.4331  0.2528 -0.5377
18373THY    HM340111   1.251   7.982   6.133  1.7045 -0.0300 -0.8162
18373THY    CA640112   1.095   8.019   5.882 -0.2983 -0.1509  0.5339
18373THY    HA640113   1.026   8.062   5.954  0.1556  0.8135 -0.3145
18374THY      O40114   4.381   0.838   3.942 -0.1968 -0.3338 -0.1359
18374THY     HO40115   4.306   0.806   3.890 -0.3202 -0.2021 -0.0591
18374THY    CA140116   4.401   0.763   4.049 -0.0017  0.0980 -0.4528
18374THY    CA240117   4.509   0.788   4.133  0.8957 -0.2429  0.1356
18374THY    CP140118   4.612   0.897   4.102 -0.5883  1.0105 -0.2234
18374THY    HP140119   4.552   0.983   4.071 -0.2472  2.2576  0.5022
18374THY    CP240120   4.694   0.857   3.980  0.3985  0.1182  0.0260
18374THY    HP240121   4.733   0.942   3.923 -0.9251 -1.7347 -0.5504
18374THY    HP340122   4.631   0.801   3.909 -0.2405 -0.2461  1.1760
18374THY    HP440123   4.774   0.787   4.009 -0.5529 -0.7814 -1.4986
18374THY    CP340124   4.714   0.942   4.218  0.1204  0.4980  0.3840
18374THY    HP540125   4.653   0.954   4.308  1.5746  1.6181 -0.3019
18374THY    HP640126   4.759   1.037   4.186  0.9241 -0.6816 -0.3607
18374THY    HP740127   4.795   0.869   4.232  0.6198  1.6207  1.1235
18374THY    CA340128   4.510   0.712   4.249  0.1393 -0.1871 -0.2393
18374THY    HA340129   4.597   0.741   4.307 -0.7801 -0.2123  2.8522
18374THY    CA440130   4.422   0.609   4.273 -0.6714  0.0884  0.8610
18374THY    HA440131   4.423   0.547   4.363 -1.4698 -2.2521 -2.8857
18374THY    CA540132   4.327   0.578   4.182  0.6997  0.2516 -0.3793
18374THY    CM140133   4.233   0.460   4.195 -0.4910  0.0267 -0.3773
18374THY    HM140134   4.147   0.503   4.247  0.5292  1.1630  0.3540
18374THY    HM240135   4.281   0.376   4.246  1.4746 -1.0507  0.0240
18374THY    HM340136   4.195   0.420   4.100 -4.4180  0.1005  2.5594
18374THY    CA640137   4.309   0.657   4.070 -0.1172 -0.5370  0.1138
18374THY    HA640138   4.226   0.629   4.006  0.8972 -0.7178 -2.7930
18375THY      O40139   9.082   5.201   5.945 -0.6329  0.5856  0.7032
18375THY     HO40140   9.176   5.219   5.925 -0.4310  0.7530 -0.1235
18375THY    CA140141   9.090   5.067   5.927  0.1677  0.2276 -1.1166
18375THY    CA240142   9.013   4.981   6.008 -0.3431  0.0770 -0.0089
18375THY    CP140143   8.920   5.034   6.115 -0.6207  0.7246  0.3380
18375THY    HP140144   8.953   5.132   6.150 -1.1484 -1.4768  1.3721
18375THY    CP240145   8.906   4.952   6.242  0.2614  0.3514  0.0006
18375THY    HP240146   8.999   4.937   6.298  1.5689 -1.3356  1.3649
18375THY    HP340147   8.856   4.855   6.227  1.5685 -0.2188 -0.6159
18375THY    HP440148   8.842   5.011   6.307 -0.4595 -0.0250 -0.3587
18375THY    CP340149   8.787   5.061   6.054 -0.1523 -0.2831 -0.2012
18375THY    HP540150   8.787   5.142   5.980 -1.2518  0.0965  0.1651
18375THY    HP640151   8.712   5.086   6.130 -1.1673 -2.2416  3.3879
18375THY    HP740152   8.742   4.971   6.011 -1.7303  1.3032 -0.2146
18375THY    CA340153   9.022   4.840   5.980 -0.3991  0.8342 -0.0178
18375THY    HA340154   8.967   4.761   6.030 -0.8283  1.3529  0.6084
18375THY    CA440155   9.103   4.797   5.872  0.4232  0.1081  0.0105
18375THY    HA440156   9.112   4.693   5.839  0.1201 -2.6077  0.7522
18375THY    CA540157   9.173   4.884   5.789  0.3496  0.3386 -0.4890
18375THY    CM140158   9.231   4.842   5.656 -0.5066 -0.0688 -0.1147
18375THY    HM140159   9.181   4.889   5.571  0.8208  0.3093  2.1408
18375THY    HM240160   9.237   4.734   5.636 -0.7875  0.4818 -0.2398
18375THY    HM340161   9.330   4.884   5.634  0.2924 -2.7264 -3.0207
18375THY    CA640162   9.172   5.021   5.821  0.3607  0.6542  0.5523
18375THY    HA640163   9.227   5.098   5.767 -0.3738 -1.2054 -0.1732
18376THY      O40164   6.542   5.339   6.250  0.1621  0.0650  0.4168
18376THY     HO40165   6.490   5.351   6.331 -0.8683 -0.5288  0.0897
18376THY    CA140166   6.618   5.228   6.269  0.0202  0.7169  0.2325
18376THY    CA240167   6.687   5.167   6.160 -0.0637 -0.0086 -0.6254
18376THY    CP140168   6.707   5.243   6.031  0.3591 -0.3327  0.4822
18376THY    HP140169   6.665   5.343   6.044 -0.4636 -0.5472  0.1724
18376THY    CP240170   6.643   5.173   5.918  0.1902  0.4366 -0.3083
18376THY    HP240171   6.644   5.241   5.832 -3.3493 -0.0512 -0.6811
18376THY    HP340172   6.538   5.147   5.935  0.4194 -0.0139 -1.5689
18376THY    HP440173   6.692   5.080   5.889 -2.5864 -2.2196 -1.0963
18376THY    CP340174   6.852   5.273   6.006 -0.0587 -0.5323  0.5579
18376THY    HP540175   6.894   5.328   6.091  0.2125 -1.0664  1.1923
18376THY    HP640176   6.869   5.326   5.911  0.3151 -0.1316  1.1645
18376THY    HP740177   6.912   5.182   5.994  0.5161 -1.2117  1.0109
18376THY    CA340178   6.745   5.042   6.174  0.1103 -0.2911 -0.4259
18376THY    HA340179   6.797   5.000   6.088  0.6582 -0.5191  0.6832
18376THY    CA440180   6.740   4.976   6.294  0.4857 -0.0008  0.0591
18376THY    HA440181   6.788   4.880   6.307  0.8180  0.1195  0.2398
18376THY    CA540182   6.684   5.040   6.406 -0.7528  0.1498 -0.8090
18376THY    CM140183   6.672   4.957   6.527 -0.2177  0.5705 -0.0248
18376THY    HM140184   6.640   5.021   6.610 -2.9503 -1.7072  1.8150
18376THY    HM240185   6.765   4.902   6.547 -0.9117  0.8012 -1.1614
18376THY    HM340186   6.588   4.887   6.513  1.2371 -3.3303 -1.3092
18376THY    CA640187   6.618   5.162   6.389 -0.1819  0.9686  0.3240
18376THY    HA640188   6.569   5.209   6.474 -1.2653  0.0731  0.8407
18377THY      O40189   0.101   2.934   4.492  0.2965  0.1819  0.0652
18377THY     HO40190   0.031   2.928   4.560 -0.1647 -0.3777 -1.4691
18377THY    CA140191   0.217   2.951   4.562  0.4130  0.5670  0.0617
18377THY    CA240192   0.341   2.973   4.494 -0.3671  1.1451  0.0705
18377THY    CP140193   0.342   2.977   4.341  1.0043 -0.2342 -0.4007
18377THY    HP140194   0.254   3.032   4.306  1.6787  1.0224  1.6002
18377THY    CP240195   0.342   2.830   4.281  0.0457 -0.3829 -0.0442
18377THY    HP240196   0.437   2.776   4.292 -0.0696 -3.0181 -0.9442
18377THY    HP340197   0.321   2.820   4.174 -2.1057  0.0295 -0.4433
18377THY    HP440198   0.267   2.766   4.329 -1.1909  0.1842  1.7642
18377THY    CP340199   0.454   3.063   4.279  0.2598  0.1729 -0.8438
18377THY    HP540200   0.421   3.079   4.176 -1.7846  1.0085  0.9598
18377THY    HP640201   0.555   3.024   4.295  0.5737 -0.4062 -0.2953
18377THY    HP740202   0.453   3.165   4.319 -0.5479 -1.0742 -0.3398
18377THY    CA340203   0.455   3.006   4.565 -0.0501  0.1913 -0.2680
18377THY    HA340204   0.548   3.037   4.518 -0.8724  0.4566  2.9636
18377THY    CA440205   0.442   3.035   4.702  0.3633 -0.5252  0.4748
18377THY    HA440206   0.530   3.062   4.759  0.0754 -0.6686  1.7980
18377THY    CA540207   0.313   3.026   4.768 -0.3061 -0.2069 -0.0533
18377THY    CM140208   0.301   3.041   4.919  1.0707 -0.0940 -0.4498
18377THY    HM140209   0.401   3.035   4.964  1.2694 -0.6318 -1.5771
18377THY    HM240210   0.237   2.963   4.962 -0.9682 -0.9542  0.6725
18377THY    HM340211   0.267   3.143   4.939  0.9521  2.8601 -0.9873
18377THY    CA640212   0.200   2.979   4.698 -0.5120 -0.3215  0.1385
18377THY    HA640213   0.104   2.973   4.749  0.9101  2.7417  1.1725
18378THY      O40214   7.139   3.806   5.262  0.7272  0.0232  0.5207
18378THY     HO40215   7.159   3.838   5.352  2.7486  0.3632 -1.4605
18378THY    CA140216   7.131   3.674   5.275 -0.0881  0.1105 -0.0464
18378THY    CA240217   7.063   3.588   5.190  1.0396  0.8648 -0.4456
18378THY    CP140218   6.995   3.644   5.072  0.2478  0.0256 -0.0257
18378THY    HP140219   7.048   3.737   5.050  1.9211 -0.5434 -1.0696
18378THY    CP240220   6.853   3.683   5.105 -0.7195 -0.2701  0.2155
18378THY    HP240221   6.846   3.742   5.197 -0.8604 -0.1607  0.0298
18378THY    HP340222   6.803   3.587   5.124 -1.5402 -1.5183  0.3671
18378THY    HP440223   6.803   3.734   5.022  2.0597 -1.3061  1.4229
18378THY    CP340224   6.994   3.555   4.945 -0.5344  0.6150  0.2924
18378THY    HP540225   6.953   3.455   4.964 -0.4073  1.1361  0.3405
18378THY    HP640226   7.094   3.528   4.908 -1.0051  0.0129 -0.6969
18378THY    HP740227   6.950   3.610   4.861 -1.1191  1.6692  1.4737
18378THY    CA340228   7.042   3.451   5.225  0.4822 -0.4872  0.2764
18378THY    HA340229   6.973   3.396   5.163 -0.2079 -0.5293  1.1582
18378THY    CA440230   7.100   3.400   5.346  0.0789 -0.2159 -0.4962
18378THY    HA440231   7.089   3.298   5.382  2.1963 -0.8945 -1.0165
18378THY    CA540232   7.176   3.488   5.421 -0.0259 -0.3400  0.5216
18378THY    CM140233   7.228   3.447   5.556 -0.9895 -0.8723  0.2980
18378THY    HM140234   7.238   3.536   5.619  0.9678  1.3070 -1.3102
18378THY    HM240235   7.324   3.395   5.545 -1.3034 -0.2318 -0.4448
18378THY    HM340236   7.160   3.382   5.613 -0.7786 -0.3066  0.5618
18378THY    CA640237   7.196   3.619   5.385  0.2791  0.2568  0.0368
18378THY    HA640238   7.244   3.686   5.456  0.4945  0.1506 -0.0021
18379THY      O40239   3.255   0.770   4.476 -0.0658  0.4470  0.4888
18379THY     HO40240   3.317   0.698   4.499  0.3355  0.5932  0.8743
18379THY    CA140241   3.331   0.863   4.429 -0.7586  0.5170 -0.1527
18379THY    CA240242   3.293   0.947   4.320  0.2894  0.1449  0.1405
18379THY    CP140243   3.163   0.918   4.237  0.0739 -0.2993  0.3494
18379THY    HP140244   3.103   0.835   4.273 -0.3940  0.4244  0.9852
18379THY    CP240245   3.194   0.892   4.088  0.6456  0.2034 -0.0649
18379THY    HP240246   3.249   0.973   4.039 -2.2047 -0.2658  1.7527
18379THY    HP340247   3.102   0.881   4.029  0.3989  0.6034 -0.1955
18379THY    HP440248   3.257   0.803   4.085  0.9076 -4.4598  0.0586
18379THY    CP340249   3.063   1.035   4.243  0.0899 -0.0919 -0.6726
18379THY    HP540250   2.974   1.009   4.185  0.6077 -0.5707 -1.4010
18379THY    HP640251   3.108   1.121   4.192  0.3153  0.8717 -0.2019
18379THY    HP740252   3.033   1.070   4.343  1.4839  1.3576 -3.2835
18379THY    CA340253   3.391   1.042   4.273  0.7854 -0.0653  0.4470
18379THY    HA340254   3.362   1.120   4.204  0.8800  1.4144  1.8296
18379THY    CA440255   3.518   1.055   4.329  0.1335 -0.1565  0.4411
18379THY    HA440256   3.580   1.133   4.286 -1.0658  1.0898  2.1723
18379THY    CA540257   3.548   0.973   4.439 -0.2218  0.4503  0.1773
18379THY    CM140258   3.679   0.997   4.506 -0.0330 -0.1591  0.1406
18379THY    HM140259   3.741   0.908   4.489 -0.8384  3.3415 -1.2159
18379THY    HM240260   3.673   1.002   4.615  2.1859  0.2686 -3.2083
18379THY    HM340261   3.741   1.078   4.464  0.8204 -0.2856 -0.5649
18379THY    CA640262   3.458   0.875   4.487 -0.1255  0.2261 -0.7800
18379THY    HA640263   3.474   0.814   4.576 -1.1666  1.0721  0.1478
18380THY      O40264   8.487   4.606   5.975  0.1241  0.4671  0.6834
18380THY     HO40265   8.571   4.655   5.977  1.3199  1.9420 -1.2887
18380THY    CA140266   8.389   4.694   5.993 -0.1662  0.0103  0.0748
18380THY    CA240267   8.251   4.660   5.976 -0.2193 -0.0315  0.5167
18380THY    CP140268   8.201   4.519   5.934 -0.5540  0.1175 -0.0888
18380THY    HP140269   8.291   4.460   5.951  0.1467 -2.4201  0.1253
18380THY    CP240270   8.156   4.506   5.785 -0.1542 -0.0746  1.1320
18380THY    HP240271   8.241   4.521   5.717  0.7339  0.7500 -0.0087
18380THY    HP340272   8.088   4.585   5.752 -2.4477 -0.1901 -0.7806
18380THY    HP440273   8.100   4.413   5.769  0.7959  3.1536 -0.1371
18380THY    CP340274   8.092   4.473   6.033 -0.9747 -0.1777 -0.4183
18380THY    HP540275   8.123   4.482   6.138 -0.6130 -0.4684  2.7832
18380THY    HP640276   8.069   4.366   6.021  1.5565 -2.3250 -0.8053
18380THY    HP740277   7.997   4.527   6.026 -0.5365  0.3033  0.4379
18380THY    CA340278   8.155   4.760   5.997 -0.4670  0.0974 -0.6102
18380THY    HA340279   8.052   4.731   5.980 -0.4126 -0.2268 -0.6097
18380THY    CA440280   8.194   4.896   6.038  0.6567 -0.4033  0.2928
18380THY    HA440281   8.119   4.972   6.055  0.3414  0.3874 -0.1798
18380THY    CA540282   8.325   4.925   6.061 -0.3721 -0.0019 -0.1952
18380THY    CM140283   8.367   5.058   6.114 -0.2981 -0.2006  0.3508
18380THY    HM140284   8.304   5.139   6.077 -3.3625 -0.7340 -2.0597
18380THY    HM240285   8.462   5.091   6.071  1.1417 -0.0656 -3.1600
18380THY    HM340286   8.370   5.052   6.224 -0.8838 -0.2400 -1.3734
18380THY    CA640287   8.420   4.824   6.043  0.3998  0.0802  0.1106
18380THY    HA640288   8.526   4.848   6.045  0.9182 -0.3211 -1.9827
18381THY      O40289   0.607   6.777   3.861  0.2307  0.2232 -0.2965
18381THY     HO40290   0.559   6.772   3.776  0.5279 -0.0012  0.5967
18381THY    CA140291   0.557   6.889   3.909 -0.3476 -0.1078 -0.1458
18381THY    CA240292   0.501   6.881   4.037 -0.0993  0.3135 -0.6197
18381THY    CP140293   0.512   6.759   4.132  0.0449  0.4487 -0.4713
18381THY    HP140294   0.535   6.662   4.087  1.2101  1.6004 -0.7619
18381THY    CP240295   0.385   6.729   4.224 -0.0488  0.4047  0.0178
18381THY    HP240296   0.290   6.730   4.168  0.1651  0.0075  1.8160
18381THY    HP340297   0.372   6.810   4.296  0.9798 -0.2932  0.8352
18381THY    HP440298   0.389   6.639   4.286 -0.2977 -0.3088 -0.4928
18381THY    CP340299   0.631   6.772   4.228 -0.0449 -0.0057  0.2219
18381THY    HP540300   0.628   6.875   4.264 -0.9931  1.7082 -0.3637
18381THY    HP640301   0.722   6.732   4.183 -0.7396 -1.4541  0.2024
18381THY    HP740302   0.620   6.706   4.315 -0.2214  0.1181  0.4127
18381THY    CA340303   0.429   6.997   4.075  0.4395 -1.2745  0.3723
18381THY    HA340304   0.390   7.003   4.176 -0.2116 -1.4153 -1.0599
18381THY    CA440305   0.436   7.114   3.997 -0.1178 -0.8027  0.3502
18381THY    HA440306   0.390   7.202   4.040  0.1212  1.7981 -0.7034
18381THY    CA540307   0.486   7.115   3.871  0.0353  0.3631 -0.5018
18381THY    CM140308   0.466   7.235   3.779 -0.3236  0.9305  0.0705
18381THY    HM140309   0.437   7.199   3.680  1.1354  0.4294  0.2099
18381THY    HM240310   0.564   7.283   3.766 -0.3060 -2.1322 -0.6079
18381THY    HM340311   0.398   7.310   3.822  0.3644  1.1818  0.5623
18381THY    CA640312   0.551   7.003   3.826 -0.1639 -0.0104  0.5726
18381THY    HA640313   0.596   7.003   3.727  0.1764  0.1439  0.4162
18382THY      O40314   6.933   6.279   5.564  0.0679 -0.6034 -0.5112
18382THY     HO40315   6.919   6.211   5.632  1.0492  0.8108  0.6440
18382THY    CA140316   6.985   6.217   5.461  0.0778  0.6789 -0.4559
18382THY    CA240317   6.971   6.077   5.435  1.0249  0.1081  0.2582
18382THY    CP140318   6.893   5.994   5.531  0.0415 -0.2573  0.0219
18382THY    HP140319   6.840   6.059   5.602  2.8292  2.6228 -0.6027
18382THY    CP240320   6.975   5.912   5.623 -0.0607 -0.3670  0.2613
18382THY    HP240321   6.929   5.831   5.680 -0.2225  2.0510  1.9114
18382THY    HP340322   7.026   5.980   5.693 -1.7117  1.3440 -0.1705
18382THY    HP440323   7.053   5.864   5.563  0.2015  0.7109 -0.6969
18382THY    CP340324   6.793   5.913   5.456  0.2025  0.0304  0.2181
18382THY    HP540325   6.843   5.841   5.391  2.8992 -0.3708  2.2657
18382THY    HP640326   6.738   5.973   5.382  1.5564 -0.8721  0.3943
18382THY    HP740327   6.735   5.863   5.534  0.9549 -0.8549 -2.1892
18382THY    CA340328   7.040   6.014   5.332 -0.9463 -0.2961 -0.1481
18382THY    HA340329   7.039   5.907   5.312 -1.5129 -3.7483  0.3899
18382THY    CA440330   7.115   6.098   5.244 -0.1357  0.4330  0.5017
18382THY    HA440331   7.167   6.048   5.162 -0.9341  0.8089 -1.0169
18382THY    CA540332   7.125   6.235   5.268  0.0151 -0.0168  0.7293
18382THY    CM140333   7.208   6.324   5.176  0.2075 -0.2696 -0.1521
18382THY    HM140334   7.254   6.255   5.105  1.7266  0.3716  0.1735
18382THY    HM240335   7.283   6.379   5.234  0.2093 -0.1551 -0.2742
18382THY    HM340336   7.143   6.391   5.119 -1.1294  2.5816  1.1660
18382THY    CA640337   7.065   6.297   5.371  0.3126 -0.1171  1.2353
18382THY    HA640338   7.081   6.403   5.391  0.2420  3.1597  0.7177
18383THY      O40339   3.237   5.668   4.668  0.3653  0.2863 -0.5715
18383THY     HO40340   3.330   5.658   4.642  0.4065 -0.5485  1.4795
18383THY    CA140341   3.188   5.777   4.596 -0.3216 -0.0112 -0.5453
18383THY    CA240342   3.172   5.907   4.646 -0.3930 -0.5772 -0.4861
18383THY    CP140343   3.220   5.918   4.797  0.4607  0.0611 -1.2121
18383THY    HP140344   3.315   5.863   4.802 -0.0186 -2.0220 -2.3536
18383THY    CP240345   3.121   5.860   4.902 -0.1602 -0.2086 -0.0715
18383THY    HP240346   3.052   5.791   4.853  0.1573  2.0349 -2.1255
18383THY    HP340347   3.064   5.944   4.944  0.1711 -1.4551  0.8160
18383THY    HP440348   3.176   5.813   4.985  0.9065 -1.4784 -1.1422
18383THY    CP340349   3.251   6.064   4.835 -0.0254  0.3491  0.3747
18383THY    HP540350   3.314   6.100   4.753  0.3017  0.4824  0.1111
18383THY    HP640351   3.308   6.062   4.928  0.5198  0.0273 -1.8774
18383THY    HP740352   3.162   6.127   4.842 -1.3270  2.1943 -1.5362
18383THY    CA340353   3.141   6.014   4.566 -0.0220  0.5037 -0.6819
18383THY    HA340354   3.130   6.115   4.602 -0.7071 -0.5950 -0.3469
18383THY    CA440355   3.110   5.990   4.433 -0.1382  0.2048  0.0616
18383THY    HA440356   3.072   6.075   4.376  0.4003 -1.9328 -1.0635
18383THY    CA540357   3.116   5.862   4.382 -0.4071  0.1672 -0.0488
18383THY    CM140358   3.093   5.834   4.238  0.2465  0.5682 -0.1442
18383THY    HM140359   3.059   5.927   4.189  0.8815 -1.4556 -0.9206
18383THY    HM240360   3.012   5.763   4.217 -0.0296  1.5518 -0.1303
18383THY    HM340361   3.187   5.801   4.193 -1.3382 -2.6711 -0.7090
18383THY    CA640362   3.156   5.756   4.463  0.3211 -0.2441 -0.1184
18383THY    HA640363   3.183   5.662   4.416  2.2811 -2.9736  1.6538
18384THY      O40364   4.432   6.134   1.866 -0.8015  0.1589  0.3976
18384THY     HO40365   4.482   6.198   1.919  0.2387  0.2344 -0.4483
18384THY    CA140366   4.446   6.188   1.747 -0.7440  0.2320 -0.0623
18384THY    CA240367   4.362   6.164   1.646  0.5727 -0.2795  0.6494
18384THY    CP140368   4.255   6.052   1.665 -0.0449  0.3516 -0.5713
18384THY    HP140369   4.286   5.988   1.748  1.8634 -0.5482 -0.9113
18384THY    CP240370   4.262   5.954   1.543 -0.0247 -0.1049  0.6770
18384THY    HP240371   4.360   5.943   1.495  0.4713  1.2388 -1.3958
18384THY    HP340372   4.200   5.996   1.464 -0.7033 -1.1495 -2.0781
18384THY    HP440373   4.233   5.850   1.562  0.5108  0.8434  0.6856
18384THY    CP340374   4.107   6.103   1.673 -0.3963 -0.3001 -0.3691
18384THY    HP540375   4.065   6.141   1.579  0.6900  0.1020  2.0133
18384THY    HP640376   4.092   6.185   1.745 -1.4745  0.2119 -0.9994
18384THY    HP740377   4.047   6.021   1.715  1.8680  1.0789 -1.4244
18384THY    CA340378   4.359   6.247   1.533 -0.2900 -0.4532 -0.0366
18384THY    HA340379   4.279   6.240   1.460  0.3167 -1.1789  0.5018
18384THY    CA440380   4.451   6.352   1.522 -0.2674  0.0042  0.6720
18384THY    HA440381   4.440   6.426   1.443 -2.5303  0.4139  0.8617
18384THY    CA540382   4.550   6.370   1.625  0.2692  0.1518  0.4312
18384THY    CM140383   4.648   6.484   1.628  0.1258 -0.3418  0.1602
18384THY    HM140384   4.714   6.504   1.543  0.8231  0.2883  0.5667
18384THY    HM240385   4.721   6.475   1.708  0.4292 -0.5252  0.9512
18384THY    HM340386   4.590   6.574   1.650  0.4434  0.2979  0.2121
18384THY    CA640387   4.544   6.286   1.733 -0.1067 -0.1305 -0.1294
18384THY    HA640388   4.610   6.315   1.814 -0.2443 -0.8823  2.4791
18385THY      O40389   1.090   3.324   6.472  0.0625  0.4266  0.3575
18385THY     HO40390   1.141   3.244   6.456 -1.5823 -0.4552 -0.5797
18385THY    CA140391   1.084   3.343   6.603 -0.0020 -0.0891 -0.3794
18385THY    CA240392   1.042   3.459   6.667 -0.0598 -0.1396 -0.6721
18385THY    CP140393   1.011   3.583   6.590 -0.3720  0.3916 -0.5759
18385THY    HP140394   0.990   3.563   6.485  0.0657 -0.3990  2.5789
18385THY    CP240395   1.138   3.674   6.583  0.0161 -0.3324 -0.3650
18385THY    HP240396   1.181   3.713   6.676  1.6334 -2.2834  2.9253
18385THY    HP340397   1.095   3.755   6.524 -0.3592  0.6641  0.1804
18385THY    HP440398   1.226   3.628   6.535  0.8614  0.8268 -0.0128
18385THY    CP340399   0.877   3.656   6.638 -0.1855  0.9496  0.4988
18385THY    HP540400   0.789   3.592   6.623 -0.4779  1.4956  0.7710
18385THY    HP640401   0.863   3.746   6.575 -1.3706 -1.2388 -1.0957
18385THY    HP740402   0.886   3.690   6.741  0.8697  0.1664  2.8466
18385THY    CA340403   1.031   3.464   6.811  0.3105  0.1908 -0.4629
18385THY    HA340404   1.011   3.558   6.861 -0.3485  0.0234 -0.5032
18385THY    CA440405   1.051   3.344   6.877 -0.0406 -0.1905 -0.9765
18385THY    HA440406   1.051   3.350   6.986  2.3631  0.0215 -2.9729
18385THY    CA540407   1.100   3.235   6.816  0.2794 -0.4017  0.6064
18385THY    CM140408   1.133   3.113   6.897  0.1228  0.0521  0.1205
18385THY    HM140409   1.051   3.041   6.886  0.8157 -1.4940 -0.4728
18385THY    HM240410   1.167   3.150   6.994  1.0700 -0.9495  2.0542
18385THY    HM340411   1.222   3.056   6.868 -2.1583 -0.7833 -3.2765
18385THY    CA640412   1.117   3.232   6.676  0.2955  0.3819  0.7140
18385THY    HA640413   1.139   3.135   6.631 -0.8715  1.7023 -0.2050
18386THY      O40414   5.609   4.819   4.766  0.6657 -0.2169 -0.4737
18386THY     HO40415   5.687   4.844   4.714  0.1263 -0.4803  0.7296
18386THY    CA140416   5.508   4.829   4.675  1.4842 -0.8864  0.0824
18386THY    CA240417   5.371   4.798   4.712 -0.2120 -0.0629 -0.6065
18386THY    CP140418   5.324   4.771   4.860 -0.7604  0.2216 -0.1988
18386THY    HP140419   5.403   4.786   4.935 -0.2647 -0.3688  0.2320
18386THY    CP240420   5.270   4.630   4.881  0.3081 -0.3904  0.1593
18386THY    HP240421   5.281   4.592   4.983  0.7036 -0.9420 -1.2875
18386THY    HP340422   5.333   4.556   4.830 -1.2225 -0.3757 -1.2146
18386THY    HP440423   5.173   4.598   4.841  2.6559 -3.7358 -3.7395
18386THY    CP340424   5.217   4.860   4.899 -0.1268 -0.7178 -0.0922
18386THY    HP540425   5.249   4.963   4.883 -0.1656  0.6775  0.1559
18386THY    HP640426   5.184   4.849   5.003 -0.8586 -0.9511 -0.1580
18386THY    HP740427   5.124   4.843   4.845 -0.7696  0.1280  0.6378
18386THY    CA340428   5.277   4.788   4.606  0.7825  0.2013 -0.1434
18386THY    HA340429   5.172   4.769   4.626  0.4609  1.0524  2.2816
18386THY    CA440430   5.319   4.818   4.477 -0.0880 -0.0840 -0.1086
18386THY    HA440431   5.247   4.820   4.396  0.5814 -0.7008  2.0796
18386THY    CA540432   5.451   4.848   4.442 -0.1916  0.1767 -0.2217
18386THY    CM140433   5.482   4.881   4.297  0.1375  0.2081 -0.0690
18386THY    HM140434   5.493   4.791   4.235 -1.9963  0.7053 -0.7388
18386THY    HM240435   5.570   4.945   4.293  1.0701 -0.1376 -1.3264
18386THY    HM340436   5.395   4.932   4.254 -1.5237  3.0887 -0.2341
18386THY    CA640437   5.546   4.851   4.548 -0.1134  0.2540  0.2273
18386THY    HA640438   5.649   4.881   4.532  0.8530  0.8768 -2.4370
18387THY      O40439   6.928   0.635   5.961 -0.7170 -0.3087  0.2208
18387THY     HO40440   6.941   0.709   6.023  0.4498  1.0541 -1.0631
18387THY    CA140441   6.876   0.681   5.846 -0.3037 -0.1317  0.0638
18387THY    CA240442   6.850   0.589   5.740 -0.7041 -0.2252  0.2800
18387THY    CP140443   6.904   0.446   5.750 -0.2775  0.9458 -0.2172
18387THY    HP140444   6.951   0.419   5.845  0.1301  0.6006 -0.7702
18387THY    CP240445   7.014   0.419   5.642 -0.0911  0.2072  0.2391
18387THY    HP240446   7.053   0.317   5.647 -3.7013  1.4351 -1.2113
18387THY    HP340447   7.092   0.493   5.663 -1.4380  0.9292  1.4944
18387THY    HP440448   6.979   0.429   5.539 -1.0570  0.5977  1.0282
18387THY    CP340449   6.786   0.343   5.731 -1.3964  0.2192  0.1072
18387THY    HP540450   6.748   0.338   5.628  0.6197 -0.5640 -0.0030
18387THY    HP640451   6.703   0.375   5.795 -0.3877  1.4300  0.3890
18387THY    HP740452   6.816   0.243   5.766 -2.6681  2.0126  0.2979
18387THY    CA340453   6.781   0.638   5.629 -0.0286  0.0380  0.0549
18387THY    HA340454   6.762   0.575   5.543 -0.0901 -0.3767  0.6291
18387THY    CA440455   6.723   0.766   5.642 -0.1106 -0.4095  0.3573
18387THY    HA440456   6.656   0.809   5.568 -2.8380  0.9569 -1.2813
18387THY    CA540457   6.764   0.855   5.740  0.2439  0.9542 -0.1045
18387THY    CM140458   6.730   0.999   5.723 -0.3592  0.3531 -0.9956
18387THY    HM140459   6.809   1.042   5.661 -2.2147 -1.4684 -0.0669
18387THY    HM240460   6.717   1.056   5.816 -2.0675 -0.8053  0.6269
18387THY    HM340461   6.637   1.019   5.669 -0.0320  0.9204  2.8971
18387THY    CA640462   6.840   0.816   5.845 -0.3013 -0.1200 -0.1442
18387THY    HA640463   6.862   0.882   5.928 -1.0449  0.0265 -0.0743
18388THY      O40464   6.174   1.367   2.446 -0.6665  0.1518 -0.1869
18388THY     HO40465   6.207   1.423   2.374 -1.0305  0.1370  0.0072
18388THY    CA140466   6.280   1.341   2.527 -0.3514 -0.3632  1.0910
18388THY    CA240467   6.272   1.281   2.655  0.4757  0.2399 -1.0785
18388THY    CP140468   6.138   1.251   2.720 -0.6746  0.7252  0.0546
18388THY    HP140469   6.066   1.254   2.638  0.3188 -0.1560  0.4527
18388THY    CP240470   6.101   1.366   2.822  0.1710 -1.1467 -0.4830
18388THY    HP240471   6.115   1.467   2.782 -2.8422 -3.3647 -0.8027
18388THY    HP340472   6.174   1.351   2.903 -0.3592 -0.8457 -1.5820
18388THY    HP440473   5.999   1.353   2.862  0.1683 -1.7806 -3.0419
18388THY    CP340474   6.136   1.112   2.779 -0.0939 -0.5771 -0.3877
18388THY    HP540475   6.032   1.098   2.809  0.3130  2.7979  2.4316
18388THY    HP640476   6.206   1.111   2.863  1.2307 -1.6369 -1.5849
18388THY    HP740477   6.167   1.037   2.706  1.1523 -0.8284  0.3353
18388THY    CA340478   6.400   1.253   2.717  0.3614 -0.3822 -0.3468
18388THY    HA340479   6.404   1.204   2.814  1.1614 -0.4453 -0.4141
18388THY    CA440480   6.519   1.293   2.662 -0.3617  0.3768  0.3386
18388THY    HA440481   6.613   1.274   2.714  0.8252 -1.0035  2.1165
18388THY    CA540482   6.516   1.363   2.544  0.1171  0.3491 -0.0181
18388THY    CM140483   6.656   1.395   2.487 -0.2164  0.9102 -0.0339
18388THY    HM140484   6.655   1.504   2.478  1.5740  2.0515  0.1047
18388THY    HM240485   6.669   1.353   2.387  3.0371  0.7588  1.1007
18388THY    HM340486   6.722   1.362   2.568 -0.0428  0.5137 -0.6940
18388THY    CA640487   6.400   1.380   2.473  0.3655  0.5461 -0.3431
18388THY    HA640488   6.409   1.427   2.375  1.9504  1.7070  1.9213
18389THY      O40489   6.238   4.191   2.644 -0.1353 -0.1961  0.1763
18389THY     HO40490   6.191   4.108   2.625  2.0426 -0.0721 -1.1666
18389THY    CA140491   6.352   4.165   2.568  0.0362  0.1603 -0.5704
18389THY    CA240492   6.407   4.264   2.489  0.1172 -0.4254 -0.0293
18389THY    CP140493   6.350   4.405   2.490 -0.0190 -0.1433 -0.2022
18389THY    HP140494   6.266   4.418   2.560  0.9397  1.1029 -0.4337
18389THY    CP240495   6.296   4.423   2.348  0.2667  0.2086 -0.1811
18389THY    HP240496   6.374   4.406   2.272  0.2711  0.2241 -0.2338
18389THY    HP340497   6.259   4.525   2.331  1.6744 -0.1281  0.2963
18389THY    HP440498   6.224   4.352   2.305  1.3615 -3.1527  0.5375
18389THY    CP340499   6.449   4.519   2.511 -0.0158  0.3887  0.3980
18389THY    HP540500   6.398   4.614   2.491  0.9951  1.4296  1.1925
18389THY    HP640501   6.525   4.511   2.433  0.4348  0.9434 -1.3945
18389THY    HP740502   6.496   4.513   2.610 -0.2569  0.5922  1.7043
18389THY    CA340503   6.510   4.226   2.403 -0.0822 -0.0235 -0.2163
18389THY    HA340504   6.556   4.298   2.336 -0.0905  1.7900  1.5958
18389THY    CA440505   6.557   4.097   2.400  0.0412  0.8688  0.4281
18389THY    HA440506   6.646   4.074   2.343  0.4320  2.1149 -1.3840
18389THY    CA540507   6.493   3.998   2.477 -0.9445 -0.2216 -0.0157
18389THY    CM140508   6.556   3.860   2.469 -0.8950  0.0799 -0.7486
18389THY    HM140509   6.572   3.819   2.569  1.1988  1.5413  3.1382
18389THY    HM240510   6.651   3.859   2.414 -0.7675  0.3006 -1.5056
18389THY    HM340511   6.497   3.792   2.405  2.0874 -0.9692 -2.5657
18389THY    CA640512   6.393   4.030   2.567 -0.2673  0.6463 -0.3886
18389THY    HA640513   6.348   3.955   2.632  2.1732 -0.8425 -3.3686
18390THY      O40514   5.952   6.559   6.927 -0.4169 -0.6972 -0.2246
18390THY     HO40515   5.872   6.605   6.959 -1.2890 -4.8213  1.5061
18390THY    CA140516   5.975   6.463   7.025 -0.4851  0.6482 -1.0147
18390THY    CA240517   6.053   6.349   6.996 -0.2740  0.0942  0.0085
18390THY    CP140518   6.126   6.338   6.868 -0.7725  0.2236  0.1444
18390THY    HP140519   6.143   6.437   6.824 -0.6105 -0.0179  0.0104
18390THY    CP240520   6.051   6.255   6.762 -0.4035  0.1827 -0.1647
18390THY    HP240521   5.962   6.312   6.733  2.0909 -3.1908  2.4788
18390THY    HP340522   6.024   6.154   6.795 -0.0438 -2.0654 -1.0564
18390THY    HP440523   6.102   6.248   6.665 -0.2800  0.1663  0.8161
18390THY    CP340524   6.272   6.293   6.889 -0.9351  0.2504  0.1304
18390THY    HP540525   6.304   6.336   6.984 -1.5777  0.5987 -0.1443
18390THY    HP640526   6.341   6.316   6.807  0.1576  0.6069 -1.6357
18390THY    HP740527   6.281   6.184   6.896  1.6246  0.8691  0.3270
18390THY    CA340528   6.054   6.251   7.098  0.6064 -0.2446  0.7320
18390THY    HA340529   6.107   6.158   7.082 -0.8074  1.7353 -0.4938
18390THY    CA440530   5.965   6.264   7.212  0.1814  0.8489 -0.2557
18390THY    HA440531   5.957   6.178   7.278 -0.5760  0.6609 -0.3328
18390THY    CA540532   5.884   6.377   7.230  0.2387 -0.6352 -0.0326
18390THY    CM140533   5.799   6.384   7.348  0.2254  0.1244  0.5710
18390THY    HM140534   5.857   6.392   7.440 -0.7664  0.7234  1.0983
18390THY    HM240535   5.729   6.300   7.352 -0.0862 -0.1603  0.8136
18390THY    HM340536   5.740   6.476   7.348 -1.6362  1.9700 -0.5206
18390THY    CA640537   5.894   6.474   7.136  0.4545  0.3694 -0.4652
18390THY    HA640538   5.848   6.569   7.157 -2.4575  1.4373 -1.9978
18391THY      O40539   8.850   7.487   3.261  0.2450 -0.2434 -0.0488
18391THY     HO40540   8.765   7.467   3.304 -0.2607 -1.8297 -1.6821
18391THY    CA140541   8.894   7.592   3.334 -0.0740  0.1456 -0.6290
18391THY    CA240542   8.985   7.694   3.281  0.5212  0.6040  0.6158
18391THY    CP140543   9.010   7.696   3.129 -0.1917  0.9493  0.2033
18391THY    HP140544   8.939   7.636   3.071  0.7827 -1.6407  1.3605
18391THY    CP240545   9.146   7.636   3.099 -0.1019  0.4099  0.4884
18391THY    HP240546   9.220   7.699   3.149  0.8926 -0.2854 -0.0882
18391THY    HP340547   9.171   7.649   2.993 -2.7406 -0.3831 -0.2733
18391THY    HP440548   9.155   7.532   3.132  0.1828  1.5468  0.8604
18391THY    CP340549   8.986   7.831   3.063  0.5338 -0.3441  0.2431
18391THY    HP540550   8.883   7.860   3.089 -0.0968  0.2100 -2.2270
18391THY    HP640551   9.001   7.834   2.954  0.9170 -0.2778  1.0245
18391THY    HP740552   9.054   7.910   3.096  0.4506 -2.1942  1.1636
18391THY    CA340553   9.047   7.781   3.371  0.2904 -0.7752 -0.2466
18391THY    HA340554   9.123   7.855   3.348  1.1533  1.9005 -0.1980
18391THY    CA440555   9.008   7.777   3.507 -0.1579  0.9175 -0.3187
18391THY    HA440556   9.050   7.855   3.570  1.1913 -0.7201  0.3346
18391THY    CA540557   8.920   7.681   3.552  0.3276 -0.2161  0.0114
18391THY    CM140558   8.889   7.675   3.697  0.3534 -0.1139 -0.4777
18391THY    HM140559   8.976   7.697   3.760 -0.5276  1.2062 -0.6353
18391THY    HM240560   8.849   7.577   3.725  0.8370 -1.2028 -1.0088
18391THY    HM340561   8.811   7.748   3.722 -0.2775 -0.6362 -0.9556
18391THY    CA640562   8.869   7.585   3.471  0.1806 -0.4119 -0.2267
18391THY    HA640563   8.797   7.515   3.512 -1.1113 -0.0505  1.2495
18392THY      O40564   0.866   7.696   4.849 -0.5069 -0.2333 -0.5398
18392THY     HO40565   0.937   7.636   4.822 -0.5892 -0.0243 -0.7367
18392THY    CA140566   0.768   7.664   4.763  0.0691  0.9210  0.0610
18392THY    CA240567   0.643   7.739   4.752  0.0659 -0.0419  0.1586
18392THY    CP140568   0.607   7.851   4.850 -0.6816  0.8131  0.3940
18392THY    HP140569   0.683   7.862   4.929 -1.3169  1.8917 -2.2144
18392THY    CP240570   0.489   7.818   4.933 -0.2388  0.2022  0.1821
18392THY    HP240571   0.474   7.892   5.013 -0.8158  0.5201 -0.2624
18392THY    HP340572   0.505   7.730   4.996 -0.0044  0.5824  0.4947
18392THY    HP440573   0.395   7.799   4.879 -1.4505  2.5836 -1.0798
18392THY    CP340574   0.593   7.986   4.785  0.1726  0.1992 -0.3967
18392THY    HP540575   0.670   8.009   4.710  0.7930  0.3178 -2.0000
18392THY    HP640576   0.599   8.074   4.850 -1.5313 -0.0450 -0.0585
18392THY    HP740577   0.494   7.990   4.738  0.9624 -1.4978  0.5624
18392THY    CA340578   0.552   7.702   4.649 -0.9289  0.2345  0.2370
18392THY    HA340579   0.463   7.765   4.645 -0.5594 -0.2472  0.7389
18392THY    CA440580   0.586   7.596   4.563 -0.1816  0.2615 -0.3856
18392THY    HA440581   0.526   7.568   4.477 -0.6138  1.0381 -1.9829
18392THY    CA540582   0.708   7.530   4.558  0.0097 -0.3636 -0.4082
18392THY    CM140583   0.748   7.433   4.454 -0.0855  0.4725  0.0469
18392THY    HM140584   0.814   7.358   4.499  2.5578  0.0333  1.9799
18392THY    HM240585   0.804   7.479   4.372 -3.4135 -1.2768  1.3184
18392THY    HM340586   0.664   7.392   4.397 -0.4587  2.0561 -1.5083
18392THY    CA640587   0.797   7.567   4.664 -0.5442 -0.0183 -0.0987
18392THY    HA640588   0.893   7.518   4.661 -0.8033 -2.6417 -0.5725
18393THY      O40589   5.977   7.937   7.112 -0.3016  0.4700 -0.1022
18393THY     HO40590   6.042   7.953   7.042 -0.8699 -0.2418 -0.8220
18393THY    CA140591   5.984   8.041   7.204 -0.1141  0.8228 -0.3508
18393THY    CA240592   5.913   8.028   7.328 -0.7432 -0.6145 -0.1315
18393THY    CP140593   5.823   7.912   7.351 -0.0927 -0.7430  0.3651
18393THY    HP140594   5.825   7.845   7.265 -0.4270 -0.2766 -0.2572
18393THY    CP240595   5.680   7.962   7.364  0.6101  0.3604 -0.1341
18393THY    HP240596   5.645   8.003   7.459 -0.2644  0.5192 -1.2092
18393THY    HP340597   5.608   7.882   7.343 -0.8943  2.5082  0.5864
18393THY    HP440598   5.656   8.029   7.280 -0.8344  0.0789 -0.9680
18393THY    CP340599   5.868   7.826   7.478  0.3765  0.5174  0.8392
18393THY    HP540600   5.968   7.784   7.462  0.3798 -1.9944  1.6530
18393THY    HP640601   5.804   7.738   7.491  2.0813  1.7141 -0.2658
18393THY    HP740602   5.854   7.882   7.572 -0.0930  1.2160 -0.4181
18393THY    CA340603   5.933   8.132   7.427  0.4727 -0.2317 -0.6370
18393THY    HA340604   5.899   8.125   7.530  0.8314  0.0052  0.8614
18393THY    CA440605   6.011   8.245   7.392  0.1647 -0.6570 -0.4979
18393THY    HA440606   6.025   8.324   7.465 -2.4226 -1.7295  1.0912
18393THY    CA540607   6.076   8.253   7.269  0.3888  0.1231  0.2875
18393THY    CM140608   6.163   8.365   7.238  0.4747 -0.0380  0.0219
18393THY    HM140609   6.124   8.433   7.161  0.6068 -1.8503 -1.8592
18393THY    HM240610   6.254   8.336   7.183  0.9321 -1.9100  4.2075
18393THY    HM340611   6.190   8.436   7.317  1.0029  0.8654 -1.1541
18393THY    CA640612   6.054   8.155   7.169  0.5545 -0.2902  0.4929
18393THY    HA640613   6.100   8.166   7.071  0.6481 -0.5689 -1.9750
18394THY      O40614   1.853   4.981   4.547  0.6119 -0.1856 -0.0932
18394THY     HO40615   1.815   4.918   4.483  0.1388 -1.4932  1.4551
18394THY    CA140616   1.767   5.092   4.548 -0.3270  0.1602  0.6797
18394THY    CA240617   1.706   5.136   4.666 -0.4132  0.3533 -1.1792
18394THY    CP140618   1.736   5.074   4.801  0.3866 -0.3695  0.2890
18394THY    HP140619   1.804   4.988   4.798  1.0786  0.7923  0.7647
18394THY    CP240620   1.602   5.014   4.863 -0.1571 -0.3031 -0.4308
18394THY    HP240621   1.615   4.976   4.964  1.3805  0.1843  1.2430
18394THY    HP340622   1.580   4.931   4.794  1.8864 -0.8320 -0.5769
18394THY    HP440623   1.525   5.093   4.865  1.6520  0.3481  1.4116
18394THY    CP340624   1.784   5.180   4.899 -0.2013 -0.2574 -0.4798
18394THY    HP540625   1.709   5.259   4.910  2.0765 -2.4838  2.2538
18394THY    HP640626   1.876   5.229   4.863  0.3137  0.1229 -1.1513
18394THY    HP740627   1.808   5.130   4.993  0.9710  0.1267  0.7267
18394THY    CA340628   1.620   5.250   4.653 -0.7584  0.1103  0.0584
18394THY    HA340629   1.575   5.296   4.740 -1.1384 -0.1137  0.1172
18394THY    CA440630   1.601   5.315   4.531  0.7513 -1.1236  0.2296
18394THY    HA440631   1.539   5.402   4.517 -0.2088 -1.5822 -0.5037
18394THY    CA540632   1.657   5.258   4.418  0.1406 -0.0923 -0.4314
18394THY    CM140633   1.632   5.333   4.293  0.0869  0.0827  0.3962
18394THY    HM140634   1.529   5.369   4.293  0.2831  0.6221  0.9758
18394THY    HM240635   1.621   5.276   4.200 -0.3450  1.3823 -1.7649
18394THY    HM340636   1.705   5.415   4.282 -0.3595  0.5378  0.8586
18394THY    CA640637   1.737   5.146   4.423  0.4016  0.5110 -0.2771
18394THY    HA640638   1.774   5.105   4.329 -1.0178  0.1926 -0.8922
18395THY      O40639   5.038   7.261   1.977  0.4270 -0.2026  0.3520
18395THY     HO40640   5.124   7.306   1.980  0.2966 -1.9534  0.8230
18395THY    CA140641   4.961   7.289   2.089  0.6673 -0.3516  1.0095
18395THY    CA240642   4.870   7.193   2.137  0.4025  0.2186 -0.0134
18395THY    CP140643   4.868   7.052   2.074  0.4173  0.5670 -0.3563
18395THY    HP140644   4.959   7.020   2.022 -0.2050 -1.3323  0.7951
18395THY    CP240645   4.751   7.045   1.976  0.0140  1.1121  0.5930
18395THY    HP240646   4.653   7.072   2.017 -2.0626 -1.6147 -2.1974
18395THY    HP340647   4.726   6.945   1.940 -1.9052  0.9811  1.0853
18395THY    HP440648   4.758   7.120   1.896 -1.0364  0.7063  0.2636
18395THY    CP340649   4.842   6.940   2.185 -0.2245  0.2022 -0.0703
18395THY    HP540650   4.914   6.946   2.267 -0.6632  0.9411 -3.0922
18395THY    HP640651   4.864   6.840   2.147  1.2690  0.8493 -0.0121
18395THY    HP740652   4.746   6.944   2.237  0.5168  1.5243  3.2315
18395THY    CA340653   4.791   7.221   2.249  0.8300  0.0764  0.2495
18395THY    HA340654   4.720   7.152   2.291  0.5385 -0.0492  0.4715
18395THY    CA440655   4.801   7.350   2.313  0.3787  0.7917  0.4388
18395THY    HA440656   4.731   7.383   2.389  0.3881  0.8512  0.3216
18395THY    CA540657   4.895   7.441   2.260  0.3909  0.0576 -0.0004
18395THY    CM140658   4.913   7.577   2.322 -0.6715 -0.0344 -0.5240
18395THY    HM140659   5.020   7.597   2.335 -0.5285 -1.5771 -0.1126
18395THY    HM240660   4.856   7.588   2.415  1.7567  1.4928  0.0825
18395THY    HM340661   4.875   7.646   2.246  2.0305 -1.6801 -0.7112
18395THY    CA640662   4.975   7.409   2.153  0.4821 -0.3954 -0.1231
18395THY    HA640663   5.029   7.492   2.107  0.2042 -2.4441 -1.0068
18396THY      O40664   5.973   1.750   3.363 -0.0764 -0.5844  0.4091
18396THY     HO40665   5.910   1.687   3.325 -0.1615  1.2442 -0.6740
18396THY    CA140666   5.920   1.863   3.323 -0.1363 -0.5422 -0.3260
18396THY    CA240667   5.955   1.986   3.388  0.2292  0.6774 -0.2444
18396THY    CP140668   6.076   1.990   3.486  0.2366  1.0948  0.3959
18396THY    HP140669   6.138   1.900   3.479 -0.9273  1.5384 -0.4572
18396THY    CP240670   6.041   1.998   3.629 -0.4444 -0.0221 -0.4949
18396THY    HP240671   5.988   1.909   3.666  2.3181  5.2193 -0.3269
18396THY    HP340672   5.982   2.089   3.646  2.1732  1.8073  0.9697
18396THY    HP440673   6.131   2.000   3.692  1.1512 -2.2157  0.5270
18396THY    CP340674   6.161   2.116   3.453 -0.1516  0.5680  0.3113
18396THY    HP540675   6.241   2.133   3.525  0.7874 -0.7284  1.5992
18396THY    HP640676   6.111   2.212   3.464  0.5947 -0.4041  0.8286
18396THY    HP740677   6.193   2.106   3.349  0.4654  0.9356 -2.3595
18396THY    CA340678   5.887   2.103   3.340  0.5853  0.2164 -0.8270
18396THY    HA340679   5.919   2.196   3.385 -0.2642  2.6822 -1.6295
18396THY    CA440680   5.785   2.093   3.247 -0.3185  0.0933  0.1932
18396THY    HA440681   5.745   2.185   3.206 -0.1882 -0.9924 -0.2191
18396THY    CA540682   5.741   1.966   3.194 -0.4288  0.0136  0.5106
18396THY    CM140683   5.624   1.957   3.105  0.5260 -0.0187 -0.4335
18396THY    HM140684   5.609   1.867   3.044  2.0086 -2.3558  0.8117
18396THY    HM240685   5.611   2.036   3.031  2.0880  0.6820  0.5228
18396THY    HM340686   5.529   1.959   3.159 -1.0781 -2.6442  2.1764
18396THY    CA640687   5.813   1.853   3.230 -0.0713 -0.3220 -0.3399
18396THY    HA640688   5.798   1.760   3.177  1.4013  0.7357 -1.2252
18397THY      O40689   4.256   9.482   7.585  0.4151 -0.7806 -0.0260
18397THY     HO40690   4.197   9.549   7.547 -2.5782  1.4014 -1.2017
18397THY    CA140691   4.180   9.370   7.601 -0.4480 -0.4510  0.3857
18397THY    CA240692   4.237   9.268   7.681  0.0977  0.7525  0.5707
18397THY    CP140693   4.383   9.270   7.726  0.3139 -0.2707  0.1875
18397THY    HP140694   4.422   9.372   7.738  1.0138  0.6049 -0.1750
18397THY    CP240695   4.475   9.203   7.621  0.0093 -0.2007 -0.4244
18397THY    HP240696   4.583   9.200   7.640 -0.4691  2.9138 -0.8391
18397THY    HP340697   4.455   9.255   7.526  0.2117  0.2126  0.4151
18397THY    HP440698   4.447   9.098   7.613  0.5113  0.3886 -0.6062
18397THY    CP340699   4.409   9.210   7.858  0.6487  0.7400  0.1797
18397THY    HP540700   4.339   9.244   7.935 -1.2268 -0.0410 -1.6812
18397THY    HP640701   4.507   9.242   7.895  2.0320 -2.4850  0.0840
18397THY    HP740702   4.409   9.100   7.852  0.3078 -0.3360  0.2283
18397THY    CA340703   4.155   9.151   7.708 -0.0960 -0.5724 -0.4849
18397THY    HA340704   4.195   9.074   7.773 -1.3527 -0.1020 -0.7532
18397THY    CA440705   4.025   9.138   7.657 -0.4240 -0.7219  0.4628
18397THY    HA440706   3.964   9.051   7.678  0.4210  0.8059  0.1983
18397THY    CA540707   3.968   9.239   7.575 -0.1126 -0.2331 -0.8550
18397THY    CM140708   3.824   9.216   7.514 -1.0814 -0.2397  0.5690
18397THY    HM140709   3.748   9.204   7.592 -1.4593 -0.3255  2.0916
18397THY    HM240710   3.818   9.129   7.448 -1.3212 -1.2532  1.3321
18397THY    HM340711   3.797   9.308   7.460  0.0429 -1.6860  0.0886
18397THY    CA640712   4.047   9.358   7.554  0.0584 -0.8665 -0.8986
18397THY    HA640713   4.012   9.437   7.487  0.9336  0.8845  1.0502
18398THY      O40714   5.709   0.986   7.078  0.4290 -0.2566 -0.5594
18398THY     HO40715   5.636   1.025   7.027  0.0715  0.2322 -0.5818
18398THY    CA140716   5.817   1.061   7.081  0.1091 -0.1440  0.0321
18398THY    CA240717   5.926   1.020   7.156 -0.6410 -0.8223  0.7495
18398THY    CP140718   5.924   0.881   7.215  0.0557 -0.1704  0.1592
18398THY    HP140719   5.821   0.860   7.247 -0.3293 -1.4430 -0.0335
18398THY    CP240720   6.005   0.868   7.337 -0.5252  0.0122  0.2727
18398THY    HP240721   5.974   0.939   7.415  0.2337  0.4043  0.1899
18398THY    HP340722   6.111   0.881   7.315 -1.0938 -2.3660  1.2283
18398THY    HP440723   5.990   0.774   7.392  1.9941  0.5163  0.0908
18398THY    CP340724   5.963   0.765   7.115  0.1221 -0.4496 -0.1478
18398THY    HP540725   5.883   0.762   7.040 -0.5776  0.2872 -0.0213
18398THY    HP640726   5.973   0.677   7.180 -0.5639  0.5385  0.4869
18398THY    HP740727   6.067   0.782   7.082  0.5417  0.4676 -0.8306
18398THY    CA340728   6.040   1.104   7.167 -0.4232  0.8001 -0.3889
18398THY    HA340729   6.126   1.083   7.230 -0.9549  1.2564 -1.2344
18398THY    CA440730   6.041   1.223   7.095  0.3120  0.1897  0.3099
18398THY    HA440731   6.127   1.290   7.093  0.7071  0.3145 -0.1848
18398THY    CA540732   5.935   1.262   7.019  0.2762  0.1136  0.0439
18398THY    CM140733   5.931   1.395   6.952 -0.1287 -0.0540 -0.0123
18398THY    HM140734   5.843   1.407   6.888  1.8449 -2.4343  4.4024
18398THY    HM240735   6.008   1.410   6.876 -0.4694 -0.3234  0.4038
18398THY    HM340736   5.926   1.475   7.027 -2.0727 -1.4643  1.2854
18398THY    CA640737   5.822   1.179   7.004 -0.4805  0.3434  0.5826
18398THY    HA640738   5.746   1.198   6.928 -0.5943  0.0509 -0.9243
18399THY      O40739   0.689   0.549   4.830 -0.5110 -0.1862 -0.4914
18399THY     HO40740   0.593   0.565   4.823 -0.3425 -1.1986  0.1254
18399THY    CA140741   0.720   0.529   4.697  0.1045  0.5072  0.1936
18399THY    CA240742   0.854   0.530   4.648  0.0607 -0.4130  0.4177
18399THY    CP140743   0.966   0.561   4.747 -0.2378  0.1074 -0.4853
18399THY    HP140744   0.931   0.591   4.847 -0.0496  0.2624 -0.7790
18399THY    CP240745   1.046   0.685   4.705  0.4545 -0.9322  0.8438
18399THY    HP240746   1.099   0.658   4.614  2.6519  1.1130 -2.4927
18399THY    HP340747   1.129   0.698   4.777 -0.7586  0.5450  0.7019
18399THY    HP440748   0.986   0.776   4.696 -1.4682 -0.3210 -0.3132
18399THY    CP340749   1.040   0.429   4.774 -0.1278  0.2762 -0.7434
18399THY    HP540750   0.997   0.352   4.840  2.2055  0.9640 -1.5541
18399THY    HP640751   1.130   0.449   4.834  0.2868 -0.4705 -0.3512
18399THY    HP740752   1.066   0.370   4.686  0.0785  1.4454 -2.4942
18399THY    CA340753   0.874   0.501   4.517  0.0338  0.8462  0.0718
18399THY    HA340754   0.972   0.500   4.471 -1.7795 -3.6693  1.2590
18399THY    CA440755   0.767   0.458   4.435  0.3281 -0.3113  0.5535
18399THY    HA440756   0.781   0.433   4.331 -0.8790 -0.3664  0.0033
18399THY    CA540757   0.639   0.459   4.483 -0.0339  0.1677 -0.3213
18399THY    CM140758   0.523   0.441   4.393  0.0365  0.3058  0.2224
18399THY    HM140759   0.548   0.355   4.329  4.0934  0.6083  0.9788
18399THY    HM240760   0.515   0.537   4.340 -0.8490  2.7492  1.5735
18399THY    HM340761   0.424   0.427   4.439  0.2567  0.5383 -0.6161
18399THY    CA640762   0.614   0.498   4.614 -0.6943  0.7423 -0.7234
18399THY    HA640763   0.512   0.493   4.653 -0.7009  0.5816 -2.0389
18400THY      O40764   2.821   6.645   6.476 -0.1156  0.2124  0.0915
18400THY     HO40765   2.818   6.554   6.508 -0.5859  0.6373  0.2544
18400THY    CA140766   2.698   6.675   6.429  0.0437 -0.0950 -0.6305
18400THY    CA240767   2.640   6.808   6.445 -0.2818 -0.2983 -0.7296
18400THY    CP140768   2.697   6.925   6.531  0.4500  0.6960  0.8072
18400THY    HP140769   2.782   6.884   6.587  1.7275 -2.7344 -1.6983
18400THY    CP240770   2.593   6.998   6.625  0.8282  0.3493  0.3795
18400THY    HP240771   2.545   6.931   6.697  0.1992  0.3420  0.8184
18400THY    HP340772   2.510   7.047   6.573  1.5400 -1.3889 -0.1707
18400THY    HP440773   2.637   7.078   6.686 -1.7559 -0.4831  2.6013
18400THY    CP340774   2.768   7.026   6.437  0.2652 -0.4000  0.3629
18400THY    HP540775   2.827   6.977   6.359  1.5166 -0.9012  2.5058
18400THY    HP640776   2.825   7.086   6.509 -2.3136  2.4425 -0.3620
18400THY    HP740777   2.696   7.089   6.383  1.4227 -2.1628  0.2315
18400THY    CA340778   2.517   6.836   6.386  0.3581 -0.8575  0.6797
18400THY    HA340779   2.472   6.933   6.405  1.8789 -1.2196  1.4742
18400THY    CA440780   2.453   6.739   6.310  0.3646 -0.5137 -0.5124
18400THY    HA440781   2.349   6.752   6.280 -0.9828  2.8488 -2.1903
18400THY    CA540782   2.510   6.613   6.295  0.8042 -0.8220  0.3864
18400THY    CM140783   2.448   6.516   6.202 -0.3442  0.5012 -0.3006
18400THY    HM140784   2.508   6.507   6.111 -0.7158  0.0957  0.9797
18400THY    HM240785   2.352   6.559   6.172 -0.5498 -1.0014 -1.7137
18400THY    HM340786   2.441   6.418   6.251 -1.7796  1.7290  0.3585
18400THY    CA640787   2.634   6.579   6.345 -0.2270  0.1057  0.0408
18400THY    HA640788   2.684   6.483   6.327  2.1222  1.4893  0.9202
18401THY      O40789   3.429   3.038   3.664 -0.1342 -0.6093 -0.1762
18401THY     HO40790   3.430   3.135   3.662  0.1604  0.4014 -0.1470
18401THY    CA140791   3.560   3.000   3.639 -0.2433 -0.1499 -0.0284
18401THY    CA240792   3.593   2.865   3.611  0.0626  0.1566  0.1823
18401THY    CP140793   3.480   2.778   3.572  0.4148  0.3732  0.3812
18401THY    HP140794   3.392   2.833   3.536 -0.3599  1.8149  0.1312
18401THY    CP240795   3.450   2.693   3.690 -0.6357  0.1093 -0.1267
18401THY    HP240796   3.442   2.759   3.777  0.2253  0.0585  0.0508
18401THY    HP340797   3.529   2.623   3.719  0.6216  0.6582  1.4516
18401THY    HP440798   3.360   2.634   3.670  0.1561  1.3462 -1.8166
18401THY    CP340799   3.516   2.693   3.452 -0.0212  0.1040  0.3245
18401THY    HP540800   3.571   2.745   3.374 -0.1261  0.4296  0.9374
18401THY    HP640801   3.427   2.650   3.405  1.1352 -2.7206  0.7916
18401THY    HP740802   3.576   2.608   3.486  0.9156 -0.1128  0.8842
18401THY    CA340803   3.728   2.830   3.599  0.6402 -0.4042  0.1882
18401THY    HA340804   3.758   2.730   3.569  0.0123  0.8218 -0.3956
18401THY    CA440805   3.831   2.927   3.615  0.2806  0.3817 -0.3784
18401THY    HA440806   3.937   2.904   3.615  0.8812  1.2417  2.0141
18401THY    CA540807   3.795   3.061   3.647 -0.0815 -0.0823 -0.0252
18401THY    CM140808   3.894   3.165   3.679 -0.7277  0.0513  0.0108
18401THY    HM140809   3.995   3.143   3.643 -1.2021 -0.7158 -1.0511
18401THY    HM240810   3.914   3.169   3.787  1.5501 -0.2800 -0.8362
18401THY    HM340811   3.857   3.259   3.638 -1.4177 -0.5846 -0.5207
18401THY    CA640812   3.659   3.101   3.653 -0.3668  0.1581  0.2488
18401THY    HA640813   3.636   3.200   3.689  0.7248  3.3554 -0.5590
18402THY      O40814   9.213   0.887   5.656  0.3128 -0.2214 -0.0023
18402THY     HO40815   9.183   0.826   5.586  2.5627  0.6010 -2.2426
18402THY    CA140816   9.134   0.882   5.763  0.2954  0.6383  0.2330
18402THY    CA240817   9.160   0.955   5.877  0.1837 -0.3096  1.0387
18402THY    CP140818   9.280   1.050   5.888 -0.5201  0.2906 -0.0734
18402THY    HP140819   9.338   1.048   5.795  2.0145  1.7753 -1.0210
18402THY    CP240820   9.370   0.990   5.984 -0.4147  0.1479 -0.4567
18402THY    HP240821   9.402   0.895   5.940  3.0720 -1.1455  1.1595
18402THY    HP340822   9.329   0.961   6.082 -0.9787  0.3382  0.9203
18402THY    HP440823   9.463   1.045   6.001  0.4657 -2.3909 -1.0380
18402THY    CP340824   9.237   1.191   5.930  0.1378  0.2607 -0.5334
18402THY    HP540825   9.210   1.245   5.839  1.8472  0.8171  1.3802
18402THY    HP640826   9.317   1.248   5.977 -0.1397 -0.0385  0.1151
18402THY    HP740827   9.148   1.192   5.994 -0.5197 -0.6233  0.6672
18402THY    CA340828   9.079   0.925   5.991  0.2682  0.4597 -0.0775
18402THY    HA340829   9.092   0.968   6.090  0.0417  0.7343 -0.6341
18402THY    CA440830   8.979   0.828   5.984  0.6291 -0.0718  0.6817
18402THY    HA440831   8.917   0.808   6.071 -1.4782 -1.9224 -1.4631
18402THY    CA540832   8.950   0.759   5.865 -0.5035 -0.0214 -0.0386
18402THY    CM140833   8.844   0.648   5.859  0.0395  0.5319  0.2919
18402THY    HM140834   8.886   0.548   5.873 -0.0253  0.4096  0.2466
18402THY    HM240835   8.784   0.660   5.767  2.8345 -1.3492  0.7926
18402THY    HM340836   8.779   0.664   5.945  1.1904  1.6105 -0.6583
18402THY    CA640837   9.035   0.783   5.752 -0.0033 -0.0563 -0.6825
18402THY    HA640838   9.017   0.730   5.658  0.3647 -0.0605 -0.8055
18403THY      O40839   7.910   3.310   6.954  0.6113  0.1641  0.1145
18403THY     HO40840   7.917   3.330   7.049 -0.2870  0.1449  0.5508
18403THY    CA140841   7.838   3.199   6.948 -0.2261  0.3936  0.4604
18403THY    CA240842   7.797   3.143   6.825  0.5209 -0.1344 -0.1678
18403THY    CP140843   7.837   3.226   6.699 -0.1246  0.0340  0.0160
18403THY    HP140844   7.874   3.327   6.721  0.3242  2.5694 -0.6256
18403THY    CP240845   7.732   3.234   6.589 -0.4678 -0.3887  0.0450
18403THY    HP240846   7.763   3.300   6.507 -1.9657 -0.8573  0.2142
18403THY    HP340847   7.640   3.267   6.640  1.0606  1.0827  2.3091
18403THY    HP440848   7.707   3.135   6.548 -2.8045 -1.9344  1.1653
18403THY    CP340849   7.974   3.179   6.640  0.5844  0.3923  0.3715
18403THY    HP540850   8.052   3.172   6.716  0.5154  0.5031  0.7610
18403THY    HP640851   8.019   3.248   6.568  2.0822  0.1408 -0.8061
18403THY    HP740852   7.965   3.079   6.596 -2.4792  0.8355  0.3558
18403THY    CA340853   7.715   3.026   6.824 -0.3268  0.0706  1.2064
18403THY    HA340854   7.680   2.988   6.728 -0.0702  0.7721 -0.8956
18403THY    CA440855   7.686   2.966   6.944  0.5785 -0.5246  0.1182
18403THY    HA440856   7.627   2.874   6.944 -0.8315  0.0053  0.9894
18403THY    CA540857   7.726   3.018   7.065 -0.4006 -0.0022 -0.6290
18403THY    CM140858   7.687   2.953   7.199  0.3261 -0.2968  0.5263
18403THY    HM140859   7.768   2.949   7.272 -2.0505  2.5014 -0.5807
18403THY    HM240860   7.667   2.848   7.176  0.4022 -1.0193  0.6670
18403THY    HM340861   7.598   3.006   7.235  0.4783 -0.8845  1.1917
18403THY    CA640862   7.802   3.136   7.067 -0.3055 -0.0089 -0.4191
18403THY    HA640863   7.834   3.185   7.158 -2.6229  0.9121 -0.5254
18404THY      O40864   2.105   0.630   7.234  0.5134 -0.4188 -0.5669
18404THY     HO40865   2.118   0.538   7.206  3.1879 -0.3241 -0.2988
18404THY    CA140866   2.073   0.620   7.372 -0.8536 -0.4892  0.0735
18404THY    CA240867   2.103   0.716   7.467 -0.5118 -0.2112  0.3666
18404THY    CP140868   2.165   0.855   7.434  0.0995  0.5984 -0.0500
18404THY    HP140869   2.216   0.847   7.338  0.0020  0.5445 -0.0273
18404THY    CP240870   2.279   0.889   7.527  0.5729 -0.1017  0.3498
18404THY    HP240871   2.350   0.806   7.528  0.3700 -1.6107  0.1302
18404THY    HP340872   2.242   0.916   7.627  0.1040 -0.1738 -0.0035
18404THY    HP440873   2.324   0.980   7.487 -1.6029 -0.9770  1.1199
18404THY    CP340874   2.062   0.968   7.438  0.0123  0.4103  0.0667
18404THY    HP540875   2.107   1.057   7.393 -2.2934  0.2478  1.2014
18404THY    HP640876   2.024   0.994   7.537  0.7612  0.7743 -0.1950
18404THY    HP740877   1.980   0.927   7.377  0.3849 -0.7541  0.9849
18404THY    CA340878   2.064   0.688   7.601  0.1061  1.1738 -0.2701
18404THY    HA340879   2.076   0.767   7.674 -1.3932  1.5300 -0.3422
18404THY    CA440880   2.031   0.558   7.640 -0.7786  0.9754 -0.0523
18404THY    HA440881   2.008   0.530   7.742  0.7091  1.1771 -0.6107
18404THY    CA540882   2.011   0.464   7.543 -0.3171  0.2230  0.5482
18404THY    CM140883   1.983   0.318   7.580  0.6660  0.4259 -0.6995
18404THY    HM140884   1.879   0.313   7.616  0.6070  0.5031  0.6076
18404THY    HM240885   2.049   0.288   7.662  0.0528  0.6728 -1.3966
18404THY    HM340886   1.984   0.241   7.502 -0.8249  1.3391 -1.6890
18404THY    CA640887   2.024   0.491   7.412 -0.0703  0.7003 -0.0593
18404THY    HA640888   2.011   0.410   7.341  2.2150 -0.1272  0.2124
18405THY      O40889   0.967   0.366   7.176 -0.3933  0.3328 -0.1738
18405THY     HO40890   0.895   0.309   7.143  0.4030 -0.6901 -0.6269
18405THY    CA140891   0.954   0.483   7.109 -0.8990  0.3517  0.6739
18405THY    CA240892   1.054   0.581   7.114 -0.2254 -0.6742 -0.7778
18405THY    CP140893   1.185   0.551   7.197  0.8021  0.8394 -0.2237
18405THY    HP140894   1.177   0.457   7.252 -0.5031 -1.0241 -1.2867
18405THY    CP240895   1.205   0.659   7.307 -0.0084  0.4770 -0.1853
18405THY    HP240896   1.213   0.760   7.264  0.2483 -0.9072 -0.7664
18405THY    HP340897   1.289   0.640   7.374  1.2309 -1.5498 -2.4582
18405THY    HP440898   1.112   0.661   7.366  0.4067  1.1981 -1.3210
18405THY    CP340899   1.299   0.558   7.101  0.2989 -0.3423  0.7247
18405THY    HP540900   1.300   0.468   7.038  1.7470  0.2725  0.2961
18405THY    HP640901   1.390   0.557   7.161 -1.6116  2.7681 -1.3514
18405THY    HP740902   1.297   0.645   7.034  0.1139  0.3905  1.2883
18405THY    CA340903   1.034   0.699   7.050 -0.4091  0.2417 -0.5616
18405THY    HA340904   1.100   0.785   7.057 -0.8693 -2.2150  0.0554
18405THY    CA440905   0.913   0.723   6.978  0.1716 -0.1478 -0.1765
18405THY    HA440906   0.900   0.816   6.923  0.9200 -2.2212 -1.2375
18405THY    CA540907   0.808   0.628   6.985 -0.1151  0.5123  0.1617
18405THY    CM140908   0.676   0.656   6.912 -0.2848 -0.2151  0.0926
18405THY    HM140909   0.701   0.664   6.806 -1.6104 -0.4042  3.0959
18405THY    HM240910   0.631   0.751   6.941  2.9621  1.5182  1.2737
18405THY    HM340911   0.609   0.569   6.920  0.2261 -1.3591 -0.4196
18405THY    CA640912   0.831   0.511   7.050  0.1185  0.4171  0.0649
18405THY    HA640913   0.756   0.433   7.056 -0.0962 -0.7583  0.1631
18406THY      O40914   8.224   9.258   2.574 -0.1100  0.1294 -0.1015
18406THY     HO40915   8.246   9.352   2.558  0.2494  2.8018  0.3239
18406THY    CA140916   8.215   9.202   2.451 -0.2621  0.0697 -0.4490
18406THY    CA240917   8.214   9.063   2.432  0.4883  0.3413 -0.0172
18406THY    CP140918   8.204   8.967   2.553 -0.1342 -0.1087 -0.2893
18406THY    HP140919   8.238   9.023   2.640 -0.5225  0.8155 -1.4404
18406THY    CP240920   8.285   8.843   2.554  0.4415  0.2059 -0.2383
18406THY    HP240921   8.381   8.882   2.519 -0.3398  1.0390  2.7310
18406THY    HP340922   8.239   8.770   2.486 -1.4469  1.5384 -0.3499
18406THY    HP440923   8.298   8.791   2.649  2.0035  1.3029  1.9839
18406THY    CP340924   8.058   8.943   2.589  0.5465 -0.2202 -0.0486
18406THY    HP540925   8.050   8.877   2.675  2.0392 -0.4013 -0.4876
18406THY    HP640926   8.006   8.903   2.501  1.9682 -1.0535 -0.1226
18406THY    HP740927   8.008   9.036   2.621 -1.3973  0.1584 -1.1615
18406THY    CA340928   8.212   9.014   2.296  0.3572 -0.1245 -0.1012
18406THY    HA340929   8.204   8.906   2.289  3.1657  1.1674 -0.4780
18406THY    CA440930   8.227   9.108   2.192  0.1101  0.0275  0.4793
18406THY    HA440931   8.221   9.077   2.088  1.5093 -0.1032  0.5966
18406THY    CA540932   8.226   9.250   2.214 -0.0318  0.6997  0.1740
18406THY    CM140933   8.208   9.347   2.095 -1.0044  0.4375  0.5796
18406THY    HM140934   8.237   9.303   1.999  2.9419  1.6649  0.1791
18406THY    HM240935   8.277   9.430   2.111  0.2205  0.7249 -0.4632
18406THY    HM340936   8.103   9.377   2.082 -2.2807 -1.2082 -3.7884
18406THY    CA640937   8.229   9.292   2.344 -1.0571  0.2108  0.5239
18406THY    HA640938   8.240   9.400   2.352 -0.3624  0.4928  0.4378
18407THY      O40939   6.334   9.278   5.532  0.8109 -0.4560 -0.1493
18407THY     HO40940   6.361   9.363   5.492  1.1523  1.3433  0.6178
18407THY    CA140941   6.200   9.270   5.535 -0.0014 -0.1257 -0.0006
18407THY    CA240942   6.135   9.144   5.520 -0.7943 -0.0864 -0.1673
18407THY    CP140943   6.222   9.022   5.483 -0.1219  0.4233  0.3020
18407THY    HP140944   6.326   9.049   5.463  0.4926  2.6910 -0.1921
18407THY    CP240945   6.156   8.953   5.366  0.1080 -0.4990  0.0958
18407THY    HP240946   6.057   8.919   5.399  0.8863  0.9373 -0.9145
18407THY    HP340947   6.215   8.864   5.339 -0.2259 -1.2728  0.1061
18407THY    HP440948   6.151   9.021   5.281 -0.0305  0.2010  0.9710
18407THY    CP340949   6.230   8.920   5.601 -0.5531  0.1777  0.3222
18407THY    HP540950   6.132   8.872   5.615  0.0482  1.9824 -0.4495
18407THY    HP640951   6.258   8.980   5.688  1.2118 -1.3390  1.8461
18407THY    HP740952   6.300   8.836   5.590  1.1790  0.9332  1.6035
18407THY    CA340953   6.000   9.141   5.542  0.1843  0.4508  0.6920
18407THY    HA340954   5.948   9.046   5.533  1.6875 -1.6294  0.0030
18407THY    CA440955   5.933   9.254   5.591 -0.7669 -1.1245  0.4793
18407THY    HA440956   5.831   9.246   5.627 -0.1555  0.4386 -1.0165
18407THY    CA540957   6.003   9.366   5.618  0.0299 -0.4001 -0.3196
18407THY    CM140958   5.946   9.484   5.693  0.1416  0.5097  0.0960
18407THY    HM140959   5.876   9.454   5.772 -2.2146 -1.4244  0.1400
18407THY    HM240960   5.864   9.526   5.632  0.5851 -1.4176 -1.7002
18407THY    HM340961   6.021   9.553   5.734 -0.0979  0.1938  0.5487
18407THY    CA640962   6.135   9.378   5.590 -0.0368 -0.5888 -0.2330
18407THY    HA640963   6.194   9.464   5.622  1.9096  1.3435 -2.1624
18408THY      O40964   3.019   1.911   1.739 -0.1805  0.2927  0.1967
18408THY     HO40965   2.943   1.967   1.716 -0.1822  2.2335  1.0598
18408THY    CA140966   2.965   1.808   1.803  0.8308 -0.1418 -0.5868
18408THY    CA240967   3.049   1.717   1.872  0.4173  0.0101 -1.0781
18408THY    CP140968   3.206   1.737   1.884  0.5155 -0.9633  0.0543
18408THY    HP140969   3.233   1.836   1.845  2.0871  0.1252  0.1027
18408THY    CP240970   3.271   1.620   1.798  0.0295  0.2251 -0.3727
18408THY    HP240971   3.224   1.620   1.699 -1.6775  0.9864  0.1361
18408THY    HP340972   3.243   1.527   1.849  0.4888 -0.4987 -0.9132
18408THY    HP440973   3.380   1.626   1.787 -0.0375 -0.0557  0.3809
18408THY    CP340974   3.254   1.730   2.029  0.8395 -0.9599  0.3403
18408THY    HP540975   3.363   1.739   2.033  1.0567  3.2979 -1.7213
18408THY    HP640976   3.232   1.635   2.080 -2.9284 -0.8413  1.1037
18408THY    HP740977   3.215   1.809   2.095  0.3111 -0.2983 -0.4555
18408THY    CA340978   2.991   1.605   1.939 -0.7668  0.2218 -0.2881
18408THY    HA340979   3.051   1.535   1.997  1.0061 -0.9404  0.2036
18408THY    CA440980   2.858   1.580   1.917  0.0517 -0.1782  0.0614
18408THY    HA440981   2.814   1.508   1.986  2.0318  1.5484  0.3944
18408THY    CA540982   2.783   1.658   1.834  1.2464 -0.0888 -0.1082
18408THY    CM140983   2.630   1.646   1.834 -0.5092 -0.1135  0.6540
18408THY    HM140984   2.591   1.617   1.932 -1.9207 -0.9278 -0.3458
18408THY    HM240985   2.604   1.575   1.754 -0.2994 -0.1808  0.6538
18408THY    HM340986   2.586   1.745   1.815 -1.1665 -0.7643  0.2540
18408THY    CA640987   2.832   1.773   1.788 -0.1986 -0.5233 -0.5926
18408THY    HA640988   2.763   1.833   1.730  2.1386  0.4409  3.3620
18409THY      O40989   8.245   6.849   5.389 -0.0618 -0.4483 -0.1054
18409THY     HO40990   8.316   6.903   5.428  2.1596  0.6549 -3.4794
18409THY    CA140991   8.246   6.851   5.256 -0.5923 -0.2118  0.0769
18409THY    CA240992   8.169   6.762   5.181  0.4225  0.2238  0.7001
18409THY    CP140993   8.071   6.664   5.236  0.1916  0.1761  0.3970
18409THY    HP140994   8.073   6.667   5.346 -0.5310  0.2219 -0.2496
18409THY    CP240995   8.106   6.523   5.198 -0.4330 -0.4906 -0.4991
18409THY    HP240996   8.100   6.492   5.093 -0.4825 -0.6729  0.1182
18409THY    HP340997   8.037   6.451   5.244 -0.1894  0.0364 -0.3973
18409THY    HP440998   8.210   6.507   5.229 -0.3131  0.2812  1.4748
18409THY    CP340999   7.927   6.699   5.196  0.3247 -0.5120  0.3726
18409THY    HP541000   7.926   6.735   5.092  3.0964 -0.6738  0.1845
18409THY    HP641001   7.889   6.775   5.265  0.4901 -0.0020 -0.0048
18409THY    HP741002   7.858   6.613   5.198  0.7557 -1.1116  0.0012
18409THY    CA341003   8.175   6.773   5.042  0.3878 -0.3008 -0.3354
18409THY    HA341004   8.109   6.716   4.977 -2.0817  1.4013  0.4427
18409THY    CA441005   8.270   6.863   4.982 -0.1455  0.2156 -0.1989
18409THY    HA441006   8.255   6.889   4.878 -0.8195  0.2201 -0.5638
18409THY    CA541007   8.343   6.956   5.059 -0.4728  0.3809  0.0704
18409THY    CM141008   8.416   7.074   5.001 -0.2819  0.1914  0.5725
18409THY    HM141009   8.441   7.147   5.080  0.5341 -0.4096  0.9652
18409THY    HM241010   8.353   7.133   4.934  2.3722 -1.4174  1.7738
18409THY    HM341011   8.508   7.049   4.947  0.4474  0.7167  2.0070
18409THY    CA641012   8.326   6.946   5.196 -0.6188 -0.2808  0.6059
18409THY    HA641013   8.392   7.006   5.258 -0.4937  1.1348 -0.9011
18410THY      O41014   4.264   3.873   6.899 -0.2724 -0.0385 -0.4289
18410THY     HO41015   4.285   3.827   6.982  0.2939  0.2666  0.3716
18410THY    CA141016   4.338   3.795   6.813  0.8430 -0.0853 -0.0588
18410THY    CA241017   4.382   3.842   6.686  0.2892 -0.7146  0.2101
18410THY    CP141018   4.355   3.989   6.644  0.6429  0.8305  0.3197
18410THY    HP141019   4.323   4.049   6.731 -0.4946  1.4764 -1.1613
18410THY    CP241020   4.225   4.005   6.559  0.6747  1.2124 -0.0534
18410THY    HP241021   4.145   3.958   6.617 -0.0818  0.7502  0.6367
18410THY    HP341022   4.239   3.958   6.461 -0.9275  0.9693 -0.0825
18410THY    HP441023   4.181   4.104   6.544 -0.1995 -2.3134 -0.8323
18410THY    CP341024   4.477   4.063   6.575 -0.1724 -0.3582  0.0186
18410THY    HP541025   4.560   4.088   6.641 -0.2575 -0.5251  0.7515
18410THY    HP641026   4.433   4.159   6.545 -2.1354  0.8101 -0.4610
18410THY    HP741027   4.519   4.002   6.493  0.5461  1.0036 -1.3810
18410THY    CA341028   4.458   3.762   6.599  0.4070 -0.3345  0.5194
18410THY    HA341029   4.487   3.798   6.501  1.2467 -0.4199 -0.3452
18410THY    CA441030   4.486   3.633   6.649  0.5046 -0.1733  0.0124
18410THY    HA441031   4.533   3.562   6.582 -2.9218 -0.3842 -2.2693
18410THY    CA541032   4.443   3.589   6.774 -0.4243  0.2914  0.2746
18410THY    CM141033   4.476   3.448   6.810  1.0175  0.5454 -0.1297
18410THY    HM141034   4.455   3.445   6.917 -0.1864  0.3092 -1.5591
18410THY    HM241035   4.583   3.427   6.798  0.9115 -2.4821  0.5287
18410THY    HM341036   4.409   3.381   6.755  0.4626  1.0580 -0.0024
18410THY    CA641037   4.371   3.667   6.855 -0.5258  0.2389  0.4011
18410THY    HA641038   4.338   3.633   6.953  0.6266  0.9277  1.1777
18411THY      O41039   6.629   3.085   6.784 -0.6481 -0.5268  0.4913
18411THY     HO41040   6.557   3.019   6.790  0.2307  0.3381 -0.4221
18411THY    CA141041   6.729   3.048   6.864 -0.3799 -0.7197  0.4554
18411THY    CA241042   6.835   3.133   6.893 -0.4893 -0.1482  0.9891
18411THY    CP141043   6.836   3.275   6.837 -0.0804  0.5998  0.0764
18411THY    HP141044   6.735   3.295   6.798  0.6141 -1.2647  0.1208
18411THY    CP241045   6.936   3.283   6.727 -0.1954  0.2800 -0.5268
18411THY    HP241046   7.036   3.288   6.771 -0.9426  2.0861 -0.2945
18411THY    HP341047   6.920   3.377   6.673  0.6794 -1.7036 -1.4739
18411THY    HP441048   6.924   3.187   6.675  0.3912  2.2518 -1.7255
18411THY    CP341049   6.859   3.375   6.948  0.2871  0.2248  0.0669
18411THY    HP541050   6.787   3.365   7.031 -0.5672 -0.7527 -3.0560
18411THY    HP641051   6.859   3.478   6.912 -1.5318  0.8365  0.3143
18411THY    HP741052   6.955   3.364   7.001  0.7470 -0.7308 -0.5902
18411THY    CA341053   6.940   3.091   6.970 -0.3688 -0.0010  0.0003
18411THY    HA341054   7.009   3.167   7.005 -0.9332 -2.5637  1.8201
18411THY    CA441055   6.945   2.961   7.020 -0.1053  0.0717 -0.1160
18411THY    HA441056   7.029   2.945   7.087  2.0948 -1.6807  2.9675
18411THY    CA541057   6.848   2.873   6.982  0.2981  0.0069 -0.0214
18411THY    CM141058   6.850   2.730   7.035  1.0100  0.3444 -0.9845
18411THY    HM141059   6.951   2.706   7.069  1.5383  0.3078  1.0144
18411THY    HM241060   6.815   2.658   6.960 -0.3667  0.6200 -0.6407
18411THY    HM341061   6.786   2.717   7.123  2.2495  1.1854 -1.5312
18411THY    CA641062   6.741   2.917   6.904 -0.0661 -0.0286 -0.3271
18411THY    HA641063   6.664   2.849   6.869 -0.9732  0.7553  0.2879
18412THY      O41064   8.834   3.085   7.471  0.2960 -0.1915 -0.0216
18412THY     HO41065   8.861   3.028   7.397 -1.0064 -0.7641  0.0578
18412THY    CA141066   8.763   3.009   7.561  0.5988  0.7403  0.5099
18412THY    CA241067   8.679   3.060   7.659  0.0465  0.7824 -0.4410
18412THY    CP141068   8.665   3.210   7.673 -0.0217 -0.0296  0.4966
18412THY    HP141069   8.731   3.256   7.598 -0.3882  0.1000  1.2438
18412THY    CP241070   8.731   3.259   7.811  0.6941  0.5799 -0.7394
18412THY    HP241071   8.818   3.194   7.827  0.7849  1.6407 -0.3652
18412THY    HP341072   8.669   3.251   7.900  1.1622  1.2097  1.6815
18412THY    HP441073   8.752   3.366   7.798 -2.0753 -1.1422 -0.3168
18412THY    CP341074   8.522   3.271   7.641  0.0840  0.0700  0.2893
18412THY    HP541075   8.494   3.252   7.537  0.4751  0.2147 -1.2453
18412THY    HP641076   8.538   3.379   7.648 -1.1123 -0.4751  0.5115
18412THY    HP741077   8.451   3.247   7.721  2.4804  1.6554 -2.2892
18412THY    CA341078   8.610   2.977   7.752 -0.3785  0.0498 -0.4651
18412THY    HA341079   8.543   3.024   7.824  1.4482 -0.6902  3.6771
18412THY    CA441080   8.624   2.833   7.732  0.5147  0.1830 -0.3229
18412THY    HA441081   8.577   2.763   7.801 -2.6866 -1.4432  0.0300
18412THY    CA541082   8.699   2.783   7.628  0.3131  0.8487  0.1392
18412THY    CM141083   8.721   2.635   7.628 -0.0116  0.2491 -0.3034
18412THY    HM141084   8.625   2.583   7.631 -0.6987  0.7828  0.9259
18412THY    HM241085   8.756   2.600   7.726 -0.0779  0.2332 -0.4138
18412THY    HM341086   8.779   2.598   7.543 -0.7220  0.2366 -1.4185
18412THY    CA641087   8.768   2.871   7.548  0.3137 -0.0391 -0.3280
18412THY    HA641088   8.837   2.835   7.472 -0.0028 -0.3786 -0.2285
18413THY      O41089   1.613   3.902   5.025  0.5079  0.2111 -0.1406
18413THY     HO41090   1.538   3.945   4.978  0.6971 -2.4541 -2.4196
18413THY    CA141091   1.627   3.936   5.153  0.2083  0.1882  0.4650
18413THY    CA241092   1.707   3.860   5.241  0.0279  0.1796 -0.8612
18413THY    CP141093   1.776   3.741   5.190 -0.2147  0.3760  0.4358
18413THY    HP141094   1.741   3.710   5.091  2.7592 -0.2146 -1.4452
18413THY    CP241095   1.736   3.623   5.281  0.4285  0.1575  0.0510
18413THY    HP241096   1.797   3.613   5.371 -0.7261  1.1982  1.9146
18413THY    HP341097   1.750   3.526   5.231  0.4744 -0.3466  0.3132
18413THY    HP441098   1.629   3.632   5.305  0.7252  1.2500  0.9124
18413THY    CP341099   1.929   3.756   5.171  0.2173 -1.0809 -0.2019
18413THY    HP541100   1.953   3.838   5.103  2.8768  0.6968  0.6231
18413THY    HP641101   1.969   3.664   5.126  0.2723 -0.9636 -0.2357
18413THY    HP741102   1.973   3.764   5.271 -3.8684  0.8388  1.6635
18413THY    CA341103   1.722   3.906   5.374 -0.6036  0.1612 -1.2501
18413THY    HA341104   1.782   3.854   5.449  0.9341 -0.2865 -0.1787
18413THY    CA441105   1.654   4.020   5.418  0.6441  0.3999 -0.0521
18413THY    HA441106   1.667   4.058   5.519 -0.2296  0.0627  1.2167
18413THY    CA541107   1.585   4.098   5.320 -0.4394  0.3070 -0.4645
18413THY    CM141108   1.523   4.236   5.347 -0.1091  0.0359 -0.6380
18413THY    HM141109   1.535   4.292   5.254  4.0598  0.8367  0.1032
18413THY    HM241110   1.576   4.296   5.422  1.3546 -0.1595 -1.6401
18413THY    HM341111   1.419   4.233   5.382 -1.0377 -2.3812  0.4587
18413THY    CA641112   1.565   4.053   5.188  0.7047  0.3625  0.1584
18413THY    HA641113   1.514   4.114   5.114  2.5838  1.5202  3.3551
18414THY      O41114   7.184   3.944   5.490 -0.1695 -0.1244  0.0640
18414THY     HO41115   7.131   3.946   5.571  1.7441  1.1863 -0.4480
18414THY    CA141116   7.287   4.025   5.511 -0.3605  0.2090 -0.4836
18414THY    CA241117   7.312   4.151   5.447  0.0158 -0.3061  0.2281
18414THY    CP141118   7.203   4.203   5.344  0.4074  0.2523  0.1103
18414THY    HP141119   7.131   4.121   5.331  2.3634 -2.3444 -1.3657
18414THY    CP241120   7.260   4.213   5.199 -0.5147 -0.1672  0.2113
18414THY    HP241121   7.336   4.291   5.202  1.4446 -0.6089 -1.6001
18414THY    HP341122   7.176   4.232   5.131 -0.8781  0.3404  0.4615
18414THY    HP441123   7.313   4.122   5.170  1.0821  2.1553  0.3188
18414THY    CP341124   7.136   4.333   5.377 -0.4775  0.4584  0.0617
18414THY    HP541125   7.216   4.401   5.408 -0.5230 -1.2370  0.9465
18414THY    HP641126   7.070   4.314   5.462  0.7563  1.2548 -0.8817
18414THY    HP741127   7.074   4.376   5.297 -1.2964  2.1720  2.2955
18414THY    CA341128   7.429   4.228   5.478 -0.2150  0.2497  0.3926
18414THY    HA341129   7.432   4.330   5.439 -1.9161 -3.9828 -0.9403
18414THY    CA441130   7.534   4.165   5.549 -0.4250 -0.4190 -0.7843
18414THY    HA441131   7.629   4.215   5.567  1.1289 -2.6963 -2.6896
18414THY    CA541132   7.518   4.036   5.605  0.4852 -0.5576 -0.2354
18414THY    CM141133   7.631   3.968   5.686  0.1688  0.1480  0.0492
18414THY    HM141134   7.683   4.032   5.758 -0.5489 -0.1474  0.9905
18414THY    HM241135   7.707   3.918   5.624  1.6524  1.2851  0.8080
18414THY    HM341136   7.583   3.886   5.739  1.0121 -0.4149 -0.8263
18414THY    CA641137   7.393   3.968   5.580  0.8747 -0.6541 -0.6912
18414THY    HA641138   7.380   3.870   5.625  0.8204  0.5694 -0.1344
18415THY      O41139   2.711   2.493   5.119  0.6921  0.1674 -0.2190
18415THY     HO41140   2.743   2.407   5.152  2.6889 -0.6346  0.1516
18415THY    CA141141   2.582   2.493   5.145  0.0419 -0.1719  0.4015
18415THY    CA241142   2.503   2.610   5.132  0.6138  0.2111  0.2036
18415THY    CP141143   2.559   2.745   5.077 -0.2871 -0.2389  0.2633
18415THY    HP141144   2.669   2.746   5.078 -0.1358  1.6598 -2.9698
18415THY    CP241145   2.525   2.860   5.174 -0.6755  0.0616  0.4110
18415THY    HP241146   2.551   2.958   5.131 -0.3322  1.6922  1.0848
18415THY    HP341147   2.586   2.836   5.263  1.6173 -1.3635  0.6385
18415THY    HP441148   2.420   2.865   5.204 -0.6378  0.0100  2.2476
18415THY    CP341149   2.506   2.763   4.938 -0.0822  0.4831  0.9021
18415THY    HP541150   2.526   2.672   4.878  1.1026  1.4420  0.5112
18415THY    HP641151   2.559   2.837   4.878  2.1641 -0.1844 -1.1319
18415THY    HP741152   2.399   2.783   4.923  0.2115 -1.7496  1.1216
18415THY    CA341153   2.362   2.600   5.155  0.5035  0.7085  0.0960
18415THY    HA341154   2.291   2.683   5.159 -2.4232  3.3710 -2.2356
18415THY    CA441155   2.311   2.477   5.201  0.0815 -0.3683 -0.8725
18415THY    HA441156   2.207   2.473   5.233 -0.4705 -1.2083  3.2190
18415THY    CA541157   2.392   2.364   5.214 -0.5564  0.5902  0.0498
18415THY    CM141158   2.330   2.236   5.260 -0.0978 -0.5400 -0.4031
18415THY    HM141159   2.236   2.216   5.208  0.3949 -1.7287  0.2474
18415THY    HM241160   2.318   2.233   5.369 -0.4715 -0.5050  1.4555
18415THY    HM341161   2.394   2.154   5.225  2.5766  1.0566  0.8730
18415THY    CA641162   2.528   2.370   5.185  0.2000  0.1359  0.2632
18415THY    HA641163   2.588   2.282   5.206  0.4339 -0.0704  0.3721
18416THY      O41164   4.795   2.957   3.083  0.1957 -0.4531  0.5838
18416THY     HO41165   4.706   2.941   3.120  0.0972 -1.3974 -1.3094
18416THY    CA141166   4.829   2.836   3.017  0.4666 -0.5159  0.5830
18416THY    CA241167   4.956   2.812   2.956 -0.6426  0.3516 -0.0227
18416THY    CP141168   5.049   2.929   2.935 -0.3476  0.3091 -0.5629
18416THY    HP141169   5.029   3.010   3.007  1.4709  2.4148 -1.8605
18416THY    CP241170   5.027   2.984   2.794  0.1213  0.0900  0.0572
18416THY    HP241171   5.081   3.078   2.779  2.0341  2.4432 -0.5594
18416THY    HP341172   4.919   2.992   2.780  0.0690  0.9070  0.7906
18416THY    HP441173   5.074   2.912   2.725 -0.0045  0.6004 -0.5179
18416THY    CP341174   5.193   2.897   2.961 -0.5765  0.3628  0.1275
18416THY    HP541175   5.199   2.827   3.046  1.2256 -1.3620 -1.9729
18416THY    HP641176   5.245   2.992   2.979  1.6254 -0.6649 -0.8130
18416THY    HP741177   5.234   2.853   2.870 -2.0887  0.0027 -0.5881
18416THY    CA341178   4.989   2.688   2.900  0.1527 -0.0656  0.1505
18416THY    HA341179   5.088   2.686   2.855  0.1442 -0.0738 -0.5703
18416THY    CA441180   4.904   2.584   2.916  0.8764  0.2427 -0.3745
18416THY    HA441181   4.926   2.491   2.864  0.0006 -1.7943  0.4913
18416THY    CA541182   4.771   2.615   2.959  0.4869  0.3290  0.3613
18416THY    CM141183   4.668   2.509   2.949 -0.6293  0.6180  0.4116
18416THY    HM141184   4.708   2.407   2.956  1.1010  1.8847  1.1511
18416THY    HM241185   4.603   2.509   2.860  1.0327 -0.6500  0.4815
18416THY    HM341186   4.590   2.512   3.026 -1.8733 -0.6278  2.8729
18416THY    CA641187   4.733   2.734   3.014  0.2111  0.9889 -0.4424
18416THY    HA641188   4.639   2.744   3.066  0.4775  1.2469  0.8262
18417THY      O41189   1.891   4.915   6.361  0.5340 -0.0297 -0.0027
18417THY     HO41190   1.849   4.828   6.361  0.7751  1.1552 -0.1323
18417THY    CA141191   1.834   4.985   6.468 -0.2597  0.0110 -0.7357
18417THY    CA241192   1.799   5.123   6.465  0.7884 -0.6278  0.0999
18417THY    CP141193   1.839   5.206   6.345  0.7594 -0.1956  0.5011
18417THY    HP141194   1.940   5.175   6.312  1.9081  2.5354  1.0364
18417THY    CP241195   1.854   5.357   6.379 -0.7445 -0.6061  0.1459
18417THY    HP241196   1.912   5.349   6.471 -1.4620 -0.2283 -0.8454
18417THY    HP341197   1.755   5.401   6.397 -0.9608 -1.2678 -0.0592
18417THY    HP441198   1.914   5.415   6.307  0.2104 -0.7521 -0.9855
18417THY    CP341199   1.732   5.171   6.243  0.0655  0.5750 -0.8843
18417THY    HP541200   1.708   5.065   6.236 -1.5887  3.0415 -0.7630
18417THY    HP641201   1.761   5.210   6.145 -2.4324  0.1177  0.0545
18417THY    HP741202   1.633   5.207   6.276 -1.5435 -2.5627 -2.1284
18417THY    CA341203   1.727   5.176   6.577 -0.9424 -0.2964  0.1677
18417THY    HA341204   1.693   5.279   6.573 -1.2292  0.2043  0.0942
18417THY    CA441205   1.698   5.097   6.688 -0.3051  0.4231 -0.1453
18417THY    HA441206   1.634   5.130   6.769 -1.3995  0.5776 -2.4438
18417THY    CA541207   1.731   4.958   6.676  0.0205  0.1520  0.0568
18417THY    CM141208   1.700   4.868   6.793  0.6599 -0.4972 -0.7600
18417THY    HM141209   1.758   4.774   6.794  1.3274  0.1530 -0.3571
18417THY    HM241210   1.593   4.846   6.801  0.1407  2.2879  2.1362
18417THY    HM341211   1.730   4.921   6.884 -2.9706  0.2724  0.2617
18417THY    CA641212   1.799   4.906   6.569  0.4074 -0.0410 -0.2553
18417THY    HA641213   1.826   4.801   6.567  1.3613  1.8886 -0.1009
18418THY      O41214   4.548   2.258   2.613  0.0550  0.0547  0.0471
18418THY     HO41215   4.482   2.233   2.680  0.3101  0.4645  0.4553
18418THY    CA141216   4.682   2.230   2.650  0.2958  0.2226 -0.4080
18418THY    CA241217   4.790   2.236   2.565 -0.0081 -0.2543  0.4526
18418THY    CP141218   4.766   2.280   2.424 -0.0343  0.4544 -0.9048
18418THY    HP141219   4.671   2.336   2.425  0.4801 -1.6473  0.0768
18418THY    CP241220   4.738   2.173   2.326 -0.3043  0.1492  0.7062
18418THY    HP241221   4.713   2.214   2.227 -0.7979  0.8543  2.1651
18418THY    HP341222   4.647   2.123   2.362  0.1872  0.5317  0.0775
18418THY    HP441223   4.830   2.114   2.322  1.0174  1.5211  2.5862
18418THY    CP341224   4.866   2.388   2.368  0.0574 -0.1502 -0.5711
18418THY    HP541225   4.964   2.347   2.344  0.3726 -0.7040  0.4733
18418THY    HP641226   4.889   2.466   2.441 -0.6493 -1.3329  0.8085
18418THY    HP741227   4.838   2.427   2.269 -0.1578  0.1332  0.0103
18418THY    CA341228   4.918   2.209   2.610 -0.2845 -0.5551 -0.5008
18418THY    HA341229   5.002   2.211   2.541  0.7775  0.6268  2.6619
18418THY    CA441230   4.946   2.184   2.744  0.5003 -0.1801 -0.6044
18418THY    HA441231   5.045   2.171   2.787  0.5547 -0.4422 -1.1025
18418THY    CA541232   4.839   2.188   2.837  0.5638 -0.1603 -0.0467
18418THY    CM141233   4.859   2.163   2.986 -0.0190  0.4475  0.5130
18418THY    HM141234   4.895   2.255   3.032 -1.0763 -0.7896  1.5818
18418THY    HM241235   4.924   2.076   3.005  2.8631  0.0279  2.4319
18418THY    HM341236   4.767   2.133   3.037  0.2766  0.6426 -0.0929
18418THY    CA641237   4.711   2.222   2.789  0.6192 -0.5856 -0.0208
18418THY    HA641238   4.632   2.224   2.864  0.5606 -0.6468  1.6909
18419THY      O41239   1.374   6.517   5.757  0.3534  0.6982 -0.4774
18419THY     HO41240   1.359   6.424   5.732 -0.7696 -1.4717  0.2103
18419THY    CA141241   1.442   6.514   5.873  0.4784 -0.6811 -0.1012
18419THY    CA241242   1.363   6.492   5.995  0.0663  0.0555 -0.4854
18419THY    CP141243   1.210   6.461   5.999  0.0373 -0.6786  0.2310
18419THY    HP141244   1.173   6.438   5.898 -0.9840  0.0902 -1.7899
18419THY    CP241245   1.135   6.565   6.062  0.0196  0.3530  0.1105
18419THY    HP241246   1.028   6.541   6.058  0.0519  2.8632 -0.7303
18419THY    HP341247   1.148   6.658   6.005  1.1988 -1.4169 -1.0836
18419THY    HP441248   1.173   6.574   6.164 -0.8790  0.6872  0.1981
18419THY    CP341249   1.194   6.327   6.076  0.3072  0.1550 -0.0867
18419THY    HP541250   1.222   6.329   6.182 -3.6459  1.3255  1.1391
18419THY    HP641251   1.251   6.252   6.019  0.7223  2.6419 -1.7917
18419THY    HP741252   1.092   6.288   6.070  0.6978  1.4600 -1.4138
18419THY    CA341253   1.437   6.479   6.116  0.0100  0.0907 -0.5561
18419THY    HA341254   1.386   6.466   6.212 -0.5217  0.2678  2.2573
18419THY    CA441255   1.582   6.490   6.112 -0.2634 -0.1616 -0.0553
18419THY    HA441256   1.643   6.474   6.201  2.8239 -2.4954 -2.5227
18419THY    CA541257   1.652   6.516   5.996 -0.1604  0.1594  0.3488
18419THY    CM141258   1.798   6.521   5.990 -0.3931 -0.3677 -0.4792
18419THY    HM141259   1.831   6.597   5.918 -2.1530 -0.7090  0.0046
18419THY    HM241260   1.848   6.425   5.974  1.1963  0.0158  0.2466
18419THY    HM341261   1.836   6.555   6.087 -1.1577 -0.0259 -0.5830
18419THY    CA641262   1.581   6.524   5.872  0.1861 -0.1348 -1.0012
18419THY    HA641263   1.635   6.545   5.781  2.4265  1.5344  1.0525
18420THY      O41264   8.988   6.402   3.059  0.4238 -0.0050 -0.1669
18420THY     HO41265   8.966   6.353   3.141 -1.9929 -0.8426 -0.6477
18420THY    CA141266   8.962   6.535   3.085 -0.0942 -0.7300  0.3431
18420THY    CA241267   8.989   6.645   2.996  0.3264 -0.2258 -0.3373
18420THY    CP141268   9.051   6.620   2.863  0.2219  0.3902 -0.0074
18420THY    HP141269   9.089   6.518   2.854  0.3992  0.6007  0.0402
18420THY    CP241270   9.158   6.723   2.843  0.0143 -0.4612  0.5150
18420THY    HP241271   9.121   6.816   2.798  2.1877 -0.7064  1.3171
18420THY    HP341272   9.236   6.689   2.775 -0.0816 -1.3944  2.0345
18420THY    HP441273   9.213   6.751   2.934 -0.1808  0.1886 -1.0759
18420THY    CP341274   8.937   6.618   2.766  0.0306  0.2243 -0.1311
18420THY    HP541275   8.876   6.709   2.773 -0.8284  0.9110 -0.7423
18420THY    HP641276   8.865   6.535   2.779  1.6780  0.1171 -1.6359
18420THY    HP741277   8.973   6.608   2.663 -0.8990  0.0503 -2.7512
18420THY    CA341278   8.935   6.766   3.030  0.2419  0.4372  0.1842
18420THY    HA341279   8.938   6.849   2.960 -0.8316  0.8485  0.5806
18420THY    CA441280   8.877   6.793   3.156  0.3411 -0.0296 -0.0445
18420THY    HA441281   8.843   6.895   3.175  0.7288 -1.7735  0.4430
18420THY    CA541282   8.868   6.690   3.253  0.2907  0.3229  0.3372
18420THY    CM141283   8.791   6.708   3.382 -0.7377  0.3190  0.2621
18420THY    HM141284   8.683   6.710   3.366 -0.6461 -0.4131 -0.3872
18420THY    HM241285   8.813   6.808   3.423 -0.2184 -0.5847  0.5374
18420THY    HM341286   8.812   6.617   3.439  2.2339 -0.1619  0.5446
18420THY    CA641287   8.910   6.562   3.211  0.6790  0.2604  0.5136
18420THY    HA641288   8.891   6.471   3.267  0.0280 -2.0653 -0.8844
18421THY      O41289   6.351   0.783   7.051 -0.0467  0.1403  0.7434
18421THY     HO41290   6.321   0.720   6.983 -1.9403  2.3220 -0.8823
18421THY    CA141291   6.470   0.834   7.020 -0.2260 -1.0496  0.2167
18421THY    CA241292   6.521   0.947   7.079 -0.1978  0.3278 -0.0294
18421THY    CP141293   6.436   1.036   7.170  0.2217 -0.2483 -0.0681
18421THY    HP141294   6.335   0.996   7.180  0.7225  1.7972 -0.9542
18421THY    CP241295   6.422   1.190   7.135 -0.4686  0.0021  0.5029
18421THY    HP241296   6.379   1.196   7.035  0.2035 -0.3771 -0.5701
18421THY    HP341297   6.516   1.245   7.147 -0.8166  0.5361  0.9965
18421THY    HP441298   6.353   1.237   7.206 -0.4070  0.5668 -0.2379
18421THY    CP341299   6.471   1.018   7.317 -0.2488 -0.3175  0.3379
18421THY    HP541300   6.578   1.020   7.339 -0.4607  1.0253 -1.0061
18421THY    HP641301   6.446   0.915   7.347  2.6457  0.4174 -0.2250
18421THY    HP741302   6.407   1.085   7.376 -1.2705 -1.2520  0.2225
18421THY    CA341303   6.643   0.999   7.034  0.6631  0.2507  0.7711
18421THY    HA341304   6.690   1.091   7.068  0.7983  1.2738  0.3428
18421THY    CA441305   6.706   0.937   6.929  0.0797  0.1518  0.1534
18421THY    HA441306   6.795   0.973   6.879 -1.3588 -2.2302  0.7032
18421THY    CA541307   6.660   0.807   6.877 -0.3361 -0.7509  0.2231
18421THY    CM141308   6.737   0.715   6.780  0.8303  0.4709 -0.7144
18421THY    HM141309   6.799   0.636   6.824  1.1930  1.6574  0.2101
18421THY    HM241310   6.789   0.775   6.704  1.3458 -0.7393 -2.6033
18421THY    HM341311   6.668   0.657   6.718  1.8459 -0.8262 -0.5901
18421THY    CA641312   6.536   0.767   6.918 -0.4018  0.8671  0.1975
18421THY    HA641313   6.494   0.676   6.879 -1.6032  0.3838  0.9381
18422THY      O41314   8.369   7.867   4.323  0.1244 -0.6366  0.9331
18422THY     HO41315   8.455   7.841   4.285 -0.1068 -0.4625 -0.1254
18422THY    CA141316   8.273   7.844   4.238  0.1596 -0.3364 -0.1822
18422THY    CA241317   8.140   7.875   4.266  0.5834 -0.3267 -0.9203
18422THY    CP141318   8.093   7.923   4.404 -0.8990 -0.3973 -0.5537
18422THY    HP141319   8.165   7.914   4.486 -0.9632 -0.1562  0.9164
18422THY    CP241320   7.971   7.831   4.438 -0.0060  0.2454  0.0547
18422THY    HP241321   7.950   7.850   4.543  0.0863 -0.1830  2.9699
18422THY    HP341322   7.998   7.726   4.420  0.3467 -0.6267  0.2802
18422THY    HP441323   7.881   7.863   4.385  1.9886 -2.9864  0.8535
18422THY    CP341324   8.063   8.073   4.407  0.4026  0.0630  0.3933
18422THY    HP541325   8.145   8.127   4.359  0.3007 -1.2907 -0.6024
18422THY    HP641326   8.034   8.110   4.506  0.8653  0.4317 -0.2206
18422THY    HP741327   7.976   8.084   4.341  0.1905  0.4735  1.3393
18422THY    CA341328   8.043   7.875   4.160 -0.1525 -0.1533  1.2597
18422THY    HA341329   7.938   7.891   4.180 -0.5888 -0.4850 -0.8869
18422THY    CA441330   8.086   7.849   4.030  0.0716  0.0456 -0.4359
18422THY    HA441331   8.018   7.858   3.945 -1.0122  0.9694  0.4050
18422THY    CA541332   8.215   7.811   4.008 -0.5882 -0.0424  0.4135
18422THY    CM141333   8.246   7.765   3.873  0.9184 -0.5659 -0.1190
18422THY    HM141334   8.235   7.657   3.865  2.8257 -1.2853 -0.2975
18422THY    HM241335   8.351   7.786   3.850  1.0118 -1.9945 -1.9490
18422THY    HM341336   8.191   7.809   3.789  2.6198 -1.6980 -0.0651
18422THY    CA641337   8.309   7.807   4.110  0.5970  0.6099  0.6062
18422THY    HA641338   8.407   7.764   4.093  1.6035  0.2273  2.8717
18423THY      O41339   5.715   6.428   4.997  0.6765  0.4883  0.0468
18423THY     HO41340   5.720   6.524   5.013  0.0480 -0.8853  0.3327
18423THY    CA141341   5.774   6.377   5.106  0.5307 -0.1825  0.0286
18423THY    CA241342   5.763   6.244   5.145  0.6175 -0.2363  0.7835
18423THY    CP141343   5.655   6.159   5.065 -0.6415 -0.2337 -0.1343
18423THY    HP141344   5.653   6.197   4.962  0.3203  0.0857  0.8556
18423THY    CP241345   5.514   6.177   5.114  0.4786 -0.0619 -0.3891
18423THY    HP241346   5.448   6.115   5.051  0.2338  0.1692 -0.3677
18423THY    HP341347   5.493   6.282   5.094  2.5899 -1.4162 -0.1906
18423THY    HP441348   5.516   6.138   5.217  0.7595 -1.1237 -3.5262
18423THY    CP341349   5.694   6.012   5.064  0.0983 -0.2175  0.2408
18423THY    HP541350   5.620   5.975   4.993 -2.3010  2.3665 -0.2691
18423THY    HP641351   5.676   5.962   5.160 -2.5679  0.1961  1.7973
18423THY    HP741352   5.795   6.005   5.023  0.3145  0.5575 -2.0811
18423THY    CA341353   5.828   6.199   5.261  0.6676  0.2332 -0.2930
18423THY    HA341354   5.826   6.094   5.286  1.6260 -0.3507 -0.4595
18423THY    CA441355   5.915   6.287   5.329  0.7385  0.1108  0.0150
18423THY    HA441356   5.977   6.259   5.414 -2.3561  2.6766  0.3327
18423THY    CA541357   5.921   6.418   5.290  0.4098  0.4195 -0.1634
18423THY    CM141358   6.009   6.503   5.369 -0.3126  0.0722  0.1840
18423THY    HM141359   5.956   6.534   5.460  0.8452  0.8152  0.0371
18423THY    HM241360   6.043   6.592   5.315  1.1738  2.5081  1.1879
18423THY    HM341361   6.098   6.449   5.403  0.3499 -2.5226 -0.5401
18423THY    CA641362   5.849   6.467   5.183 -1.1276 -0.0782  0.3455
18423THY    HA641363   5.864   6.571   5.155  0.2671  0.7844  0.4083
18424THY      O41364   8.478   3.088   6.018  0.2744 -0.2116 -0.3119
18424THY     HO41365   8.535   3.132   6.084  0.6561 -1.3717  0.9853
18424THY    CA141366   8.357   3.148   6.028 -0.0083 -0.5453 -0.2415
18424THY    CA241367   8.272   3.186   5.920  0.2183  0.9125 -0.0649
18424THY    CP141368   8.323   3.155   5.780 -0.2005 -0.1686 -0.2204
18424THY    HP141369   8.373   3.059   5.760  1.9274 -0.4945  0.8979
18424THY    CP241370   8.435   3.255   5.743 -1.1455  0.4866 -1.1587
18424THY    HP241371   8.447   3.255   5.634  2.4061  0.7654 -1.0626
18424THY    HP341372   8.526   3.215   5.789  0.1118  0.3292  1.3568
18424THY    HP441373   8.409   3.358   5.770  0.4191 -0.1626 -0.5639
18424THY    CP341374   8.209   3.165   5.673  0.0535  0.7464 -0.0255
18424THY    HP541375   8.163   3.265   5.670 -0.5505  0.6791 -0.3028
18424THY    HP641376   8.130   3.091   5.690 -0.2058 -1.9671 -0.4891
18424THY    HP741377   8.245   3.144   5.572 -0.3886  0.1544  1.8190
18424THY    CA341378   8.159   3.269   5.952  0.1157  0.0340 -0.2912
18424THY    HA341379   8.098   3.309   5.871 -0.7084  0.5288 -0.5263
18424THY    CA441380   8.120   3.291   6.080  0.5750  0.1109  0.3195
18424THY    HA441381   8.027   3.344   6.097  0.2431  1.4498 -0.6403
18424THY    CA541382   8.193   3.238   6.193 -0.1626  0.2160  0.5529
18424THY    CM141383   8.142   3.240   6.331  0.2423 -0.4101 -0.2320
18424THY    HM141384   8.034   3.249   6.348  0.4035  0.9176 -0.4506
18424THY    HM241385   8.182   3.332   6.375  1.6828 -3.9578  0.9939
18424THY    HM341386   8.173   3.150   6.387 -1.1229  2.0735  0.7263
18424THY    CA641387   8.316   3.178   6.164 -0.1900 -1.4246  0.2921
18424THY    HA641388   8.384   3.167   6.247  0.6346 -2.2383 -1.0436
18425THY      O41389   2.231   5.087   6.195  0.6815  0.1512 -0.0613
18425THY     HO41390   2.182   5.013   6.235 -0.4895  0.1639  0.6892
18425THY    CA141391   2.238   5.173   6.297  0.1450 -0.0108 -0.4153
18425THY    CA241392   2.265   5.310   6.286  0.1740  0.6982  0.4833
18425THY    CP141393   2.313   5.366   6.147  0.7892 -0.9642 -0.3303
18425THY    HP141394   2.258   5.312   6.069 -0.6242 -0.3668  0.2139
18425THY    CP241395   2.463   5.322   6.142 -0.1837 -0.9278  0.3857
18425THY    HP241396   2.522   5.366   6.061  0.0086  1.1856  4.5030
18425THY    HP341397   2.464   5.213   6.129 -1.6426 -0.9234  0.3609
18425THY    HP441398   2.524   5.348   6.229  1.5637 -1.8856 -0.3283
18425THY    CP341399   2.309   5.513   6.123  0.3799  0.1671 -0.1871
18425THY    HP541400   2.397   5.564   6.164  1.3370 -0.7428 -1.0479
18425THY    HP641401   2.218   5.565   6.152 -0.3080 -0.3311 -1.0836
18425THY    HP741402   2.319   5.532   6.015 -1.9358  0.1223  1.0265
18425THY    CA341403   2.233   5.393   6.393  0.0371  0.4790 -0.2750
18425THY    HA341404   2.242   5.500   6.381  0.6621 -1.0473 -0.4753
18425THY    CA441405   2.187   5.336   6.513  0.0034  0.7060  0.1359
18425THY    HA441406   2.165   5.401   6.597 -2.2008  0.5584 -0.3224
18425THY    CA541407   2.158   5.206   6.525  0.0671 -0.1555  0.3544
18425THY    CM141408   2.118   5.142   6.661 -0.6366  0.0016 -0.5877
18425THY    HM141409   2.214   5.117   6.707  0.5453 -0.9041  1.9578
18425THY    HM241410   2.066   5.047   6.643  2.0656 -1.1963 -1.9585
18425THY    HM341411   2.065   5.213   6.726  2.4686  1.6140  0.4338
18425THY    CA641412   2.186   5.127   6.415 -0.6741 -0.2711  0.3025
18425THY    HA641413   2.153   5.024   6.423 -1.4629 -0.5348  0.5344
18426THY      O41414   8.736   4.691   5.928  0.1066  0.1461 -0.1458
18426THY     HO41415   8.759   4.754   5.857  0.6736 -0.4164 -0.9511
18426THY    CA141416   8.824   4.592   5.901  0.3119 -0.3486  0.2281
18426THY    CA241417   8.863   4.499   6.007  0.3170 -0.0527 -0.1792
18426THY    CP141418   8.801   4.504   6.149  0.0281  0.4319 -0.1234
18426THY    HP141419   8.742   4.595   6.163  0.1489  1.7848 -0.2439
18426THY    CP241420   8.920   4.527   6.237  0.0620 -0.6621 -0.5871
18426THY    HP241421   8.882   4.528   6.340  1.9449  0.1162 -2.0553
18426THY    HP341422   8.977   4.618   6.217  0.1405  1.6076 -0.0900
18426THY    HP441423   8.985   4.440   6.251  0.6698 -0.7174 -0.1469
18426THY    CP341424   8.721   4.375   6.186  0.2905  0.6392  0.1240
18426THY    HP541425   8.686   4.380   6.290 -2.2145 -0.1652  0.9302
18426THY    HP641426   8.789   4.289   6.187  0.2359 -0.3203  0.0641
18426THY    HP741427   8.639   4.339   6.123  0.1824  1.8216 -1.8431
18426THY    CA341428   8.957   4.403   5.975 -0.0908  0.2853  0.0073
18426THY    HA341429   8.995   4.337   6.053 -1.9393  2.3495  1.2170
18426THY    CA441430   9.010   4.401   5.845 -0.3853  0.1892  0.4978
18426THY    HA441431   9.093   4.334   5.826  0.1876  0.8017  1.0241
18426THY    CA541432   8.963   4.479   5.742  0.1459 -0.0479 -0.3031
18426THY    CM141433   9.014   4.465   5.600 -0.0720 -0.6796 -0.3681
18426THY    HM141434   8.966   4.379   5.550 -0.6565  2.0414 -1.7525
18426THY    HM241435   9.123   4.453   5.600  0.2327  0.3913  1.8646
18426THY    HM341436   8.991   4.556   5.543  1.5557 -1.3345 -0.3367
18426THY    CA641437   8.875   4.585   5.774  0.0009  0.2127 -0.2865
18426THY    HA641438   8.844   4.651   5.694 -1.3590  0.4916 -0.5544
18427THY      O41439   1.687   4.072   4.654  0.7052 -0.7400 -0.4322
18427THY     HO41440   1.730   4.028   4.729 -1.2851  0.7095 -0.0458
18427THY    CA141441   1.675   3.976   4.562 -0.2524  0.1999  0.0246
18427THY    CA241442   1.656   4.005   4.424 -0.1046 -0.0463 -0.2614
18427THY    CP141443   1.625   4.141   4.374  0.6023 -0.1770  0.2125
18427THY    HP141444   1.607   4.202   4.464 -2.4426  2.7536 -4.4217
18427THY    CP241445   1.482   4.145   4.306 -0.6741 -0.3870  0.1550
18427THY    HP241446   1.450   4.248   4.288 -2.3285  0.2638 -0.1980
18427THY    HP341447   1.414   4.105   4.383  0.5700  0.7403  0.1523
18427THY    HP441448   1.469   4.087   4.214 -1.9792  0.0282 -0.2547
18427THY    CP341449   1.734   4.214   4.293 -0.3591  0.4828  0.0777
18427THY    HP541450   1.724   4.195   4.186 -0.8414  0.8976 -2.3435
18427THY    HP641451   1.836   4.203   4.332 -1.3850  3.6881  0.7546
18427THY    HP741452   1.705   4.319   4.285  1.6320 -3.0813  0.5212
18427THY    CA341453   1.646   3.891   4.334 -0.1020  0.2509  0.1155
18427THY    HA341454   1.616   3.903   4.231 -0.4394  0.3256 -0.0668
18427THY    CA441455   1.681   3.765   4.382  0.3986 -0.0715 -0.1757
18427THY    HA441456   1.691   3.679   4.316  0.8239 -1.1281  0.6801
18427THY    CA541457   1.717   3.738   4.516 -0.6224  0.5558  0.3386
18427THY    CM141458   1.759   3.606   4.574  0.4577  0.5835  0.8332
18427THY    HM141459   1.851   3.620   4.632  2.4941 -2.0794 -0.5654
18427THY    HM241460   1.784   3.552   4.482 -1.8476 -0.0691  0.7658
18427THY    HM341461   1.683   3.557   4.635  2.5333  0.8585 -2.3111
18427THY    CA641462   1.705   3.845   4.604 -0.2686 -0.0826  0.5565
18427THY    HA641463   1.720   3.820   4.708 -1.6527 -0.2721 -1.2426
18428THY      O41464   7.406   7.448   6.273  0.1781 -0.0380 -0.2696
18428THY     HO41465   7.353   7.387   6.327  1.4043  0.6893 -0.7185
18428THY    CA141466   7.429   7.372   6.161  0.2031 -0.1993  0.0796
18428THY    CA241467   7.556   7.346   6.105  0.2000  0.0536  0.0776
18428THY    CP141468   7.674   7.393   6.192  0.8830  0.2728  0.3947
18428THY    HP141469   7.643   7.419   6.293  2.1075  0.2233  2.2006
18428THY    CP241470   7.720   7.523   6.137  0.2620 -0.3346 -0.2935
18428THY    HP241471   7.729   7.518   6.028 -1.4750 -0.4926 -0.2861
18428THY    HP341472   7.805   7.568   6.190  0.1511 -0.0255 -0.4417
18428THY    HP441473   7.640   7.596   6.151  1.1089 -0.9447  0.7784
18428THY    CP341474   7.779   7.281   6.203  0.3850  0.1296  0.5387
18428THY    HP541475   7.735   7.187   6.238 -2.0939 -0.0173  1.5548
18428THY    HP641476   7.853   7.300   6.282  1.1450 -0.0644 -1.3749
18428THY    HP741477   7.832   7.267   6.108 -0.2841 -0.3621  1.2502
18428THY    CA341478   7.568   7.283   5.985  0.0433  0.1730 -0.3012
18428THY    HA341479   7.665   7.276   5.937 -0.0275  0.1781 -1.4020
18428THY    CA441480   7.454   7.241   5.917  0.0641 -0.5571 -0.5965
18428THY    HA441481   7.453   7.199   5.817  1.8279 -0.2986 -1.3296
18428THY    CA541482   7.327   7.267   5.973  0.5566 -0.6462  0.7644
18428THY    CM141483   7.203   7.220   5.908  0.4518 -0.1129 -0.2492
18428THY    HM141484   7.210   7.213   5.799 -1.4928 -0.2780 -0.2974
18428THY    HM241485   7.118   7.287   5.930 -0.7933 -0.3295 -1.7208
18428THY    HM341486   7.174   7.118   5.937  0.1024  0.5326  0.0213
18428THY    CA641487   7.314   7.332   6.097  0.1849 -0.3606  0.3511
18428THY    HA641488   7.216   7.343   6.142  0.3837  0.8777 -2.1661
18429THY      O41489   5.396   7.454   5.226 -0.1820  0.0294 -1.0893
18429THY     HO41490   5.489   7.483   5.234 -0.1671 -1.9671 -0.4575
18429THY    CA141491   5.373   7.446   5.093  0.5085  1.0404  0.5045
18429THY    CA241492   5.237   7.433   5.049  0.7055  0.2162 -0.0290
18429THY    CP141493   5.120   7.435   5.156 -0.2575  0.4026 -0.1118
18429THY    HP141494   5.154   7.447   5.260 -0.2635  0.1982  2.0525
18429THY    CP241495   5.035   7.308   5.141  0.2928 -0.7067  0.1600
18429THY    HP241496   5.105   7.223   5.146 -0.9954 -2.0834 -1.0299
18429THY    HP341497   4.975   7.307   5.049 -2.6382  1.0777 -0.2427
18429THY    HP441498   4.952   7.296   5.212 -1.1111 -2.2430  0.4128
18429THY    CP341499   5.032   7.554   5.140  0.8826 -0.0395 -0.3272
18429THY    HP541500   4.980   7.561   5.044 -0.0795  0.5259  0.6025
18429THY    HP641501   5.092   7.645   5.134  0.1838  0.9398  0.2231
18429THY    HP741502   4.948   7.570   5.209  1.7150  1.1276 -0.8483
18429THY    CA341503   5.212   7.441   4.913  0.3592  0.2413 -0.4728
18429THY    HA341504   5.109   7.453   4.880  0.2297  0.8368  0.1021
18429THY    CA441505   5.316   7.441   4.822 -0.0695  0.1671  0.2409
18429THY    HA441506   5.303   7.443   4.715  0.6185  0.0902  1.6739
18429THY    CA541507   5.450   7.438   4.862  0.1809 -0.4931  0.9863
18429THY    CM141508   5.558   7.450   4.759 -0.3312 -0.3717 -0.3529
18429THY    HM141509   5.627   7.530   4.789 -0.2827 -0.9127 -0.1907
18429THY    HM241510   5.522   7.475   4.658 -0.1829 -0.2868  0.2277
18429THY    HM341511   5.617   7.359   4.755 -1.4860  1.4924 -1.2353
18429THY    CA641512   5.473   7.448   5.004 -1.1557  0.4406  0.3570
18429THY    HA641513   5.574   7.474   5.032 -0.4576 -1.8404  0.3450
18430THY      O41514   3.481   5.583   4.621  0.1459 -0.4421 -0.0849
18430THY     HO41515   3.445   5.493   4.629 -2.3858  3.4027  1.0160
18430THY    CA141516   3.588   5.588   4.538 -0.0232 -0.4752  0.8297
18430THY    CA241517   3.619   5.703   4.473  0.1740  0.1582  0.4861
18430THY    CP141518   3.550   5.833   4.514 -0.0591  0.2101 -0.6504
18430THY    HP141519   3.443   5.811   4.515  0.0142 -1.1753 -1.2129
18430THY    CP241520   3.548   5.932   4.396 -0.4264 -0.6095 -0.0491
18430THY    HP241521   3.487   6.022   4.408  0.7454  1.9603  0.4915
18430THY    HP341522   3.515   5.870   4.312  0.7744  0.0716 -1.6885
18430THY    HP441523   3.652   5.962   4.377 -0.6566  0.7172  1.7225
18430THY    CP341524   3.612   5.905   4.639  0.9112  0.3935  0.0511
18430THY    HP541525   3.633   5.836   4.722  2.7306  0.5057  0.6869
18430THY    HP641526   3.543   5.981   4.677  1.3674  1.1198  0.1175
18430THY    HP741527   3.715   5.936   4.614  0.8094  0.8221  0.7551
18430THY    CA341528   3.722   5.699   4.384 -0.5596 -0.0200 -0.2519
18430THY    HA341529   3.750   5.785   4.325 -0.7520  0.7027  0.3104
18430THY    CA441530   3.784   5.579   4.351 -0.6160  0.5511 -0.3122
18430THY    HA441531   3.864   5.587   4.279 -1.8130 -0.7417  0.4801
18430THY    CA541532   3.752   5.459   4.415 -0.6237  0.6745  0.1615
18430THY    CM141533   3.820   5.327   4.379  0.3471 -0.0438 -1.2543
18430THY    HM141534   3.770   5.247   4.435 -1.0118 -2.2744 -2.0817
18430THY    HM241535   3.927   5.332   4.401  0.6207 -1.1910 -1.6115
18430THY    HM341536   3.816   5.294   4.274  1.0757 -1.0191  1.5048
18430THY    CA641537   3.654   5.464   4.510  0.1014 -0.3578 -0.2083
18430THY    HA641538   3.614   5.380   4.565  1.2187 -0.3910 -0.7762
18431THY      O41539   1.374   2.493   7.431 -0.0910  0.4821 -0.1839
18431THY     HO41540   1.296   2.448   7.395  1.2117 -3.5038  0.3125
18431THY    CA141541   1.391   2.594   7.340 -0.1371 -0.9848  0.4652
18431THY    CA241542   1.517   2.640   7.304 -0.5308 -0.1938 -1.1027
18431THY    CP141543   1.649   2.581   7.362 -0.0908  0.1418  1.3744
18431THY    HP141544   1.624   2.525   7.453  0.3584 -0.0668  0.8153
18431THY    CP241545   1.757   2.686   7.394  0.0907  0.1118 -0.0584
18431THY    HP241546   1.801   2.725   7.302 -2.0730 -0.6591  0.7011
18431THY    HP341547   1.829   2.644   7.466 -1.9104  0.9520 -2.2691
18431THY    HP441548   1.711   2.772   7.445 -0.3839 -0.1661 -0.1486
18431THY    CP341549   1.721   2.476   7.256 -0.0187 -0.3982 -0.1603
18431THY    HP541550   1.791   2.403   7.299  0.3213  0.0416  0.4193
18431THY    HP641551   1.780   2.511   7.171  0.8980 -0.6256 -2.1101
18431THY    HP741552   1.638   2.409   7.231 -1.5676  2.9641  0.3094
18431THY    CA341553   1.526   2.746   7.218  0.7009 -0.1976 -0.4813
18431THY    HA341554   1.620   2.791   7.189  0.2541 -2.2734 -0.7479
18431THY    CA441555   1.408   2.800   7.162 -0.2805 -0.3410 -0.1448
18431THY    HA441556   1.405   2.882   7.091 -1.6341  0.8008  0.8632
18431THY    CA541557   1.282   2.752   7.196  0.2975  0.4102 -0.1925
18431THY    CM141558   1.150   2.800   7.136  0.1759  0.4655  0.1007
18431THY    HM141559   1.145   2.794   7.027  1.7729  0.4272 -1.1216
18431THY    HM241560   1.150   2.906   7.163  0.0166 -1.9436  0.7547
18431THY    HM341561   1.065   2.745   7.178  0.8321 -1.0676 -2.2269
18431THY    CA641562   1.278   2.648   7.288  0.5039  0.8717  1.1206
18431THY    HA641563   1.183   2.604   7.319 -0.0720 -1.6123  0.4598
18432THY      O41564   6.802   4.517   5.201 -0.0668  0.5724  0.5033
18432THY     HO41565   6.829   4.518   5.107  1.1817  0.8780 -0.7951
18432THY    CA141566   6.787   4.391   5.229  0.0169  0.2724  0.2279
18432THY    CA241567   6.711   4.344   5.333  0.3228 -0.1409 -0.2792
18432THY    CP141568   6.633   4.437   5.424 -0.4073 -0.4184 -0.9022
18432THY    HP141569   6.632   4.543   5.397 -0.3590 -2.5825 -1.4030
18432THY    CP241570   6.671   4.442   5.574  0.0277 -0.3071 -0.2616
18432THY    HP241571   6.616   4.511   5.638  2.0438  0.9215  0.2987
18432THY    HP341572   6.774   4.477   5.588  0.2849 -0.4638 -0.9412
18432THY    HP441573   6.655   4.343   5.617  1.0072 -1.2969 -0.8816
18432THY    CP341574   6.481   4.410   5.402 -0.1808  0.1489  0.8878
18432THY    HP541575   6.449   4.412   5.297 -0.6474  0.1701 -1.5357
18432THY    HP641576   6.421   4.478   5.463 -1.8514  1.1459 -1.3352
18432THY    HP741577   6.459   4.305   5.426 -2.5832 -0.8753  1.0796
18432THY    CA341578   6.697   4.206   5.352 -0.2041  0.1141  0.0534
18432THY    HA341579   6.627   4.164   5.424  1.0966  0.0280 -2.3955
18432THY    CA441580   6.769   4.119   5.274  0.0414  0.2748  0.5398
18432THY    HA441581   6.753   4.013   5.289 -0.9420  1.5429  0.8364
18432THY    CA541582   6.852   4.164   5.175 -0.9885  0.2168 -0.5514
18432THY    CM141583   6.937   4.059   5.102  0.3751  0.0324 -0.0012
18432THY    HM141584   6.992   4.107   5.020  0.8456  0.8139  0.8241
18432THY    HM241585   6.875   3.986   5.048 -0.9633  1.7639 -0.2004
18432THY    HM341586   7.012   4.004   5.158  0.6739 -0.2836  0.0819
18432THY    CA641587   6.858   4.300   5.147  0.0797  0.4634  0.6536
18432THY    HA641588   6.926   4.342   5.073  1.9353  1.1861 -0.9463
18433THY      O41589   7.050   1.078   4.136 -0.0662  0.2044 -0.0412
18433THY     HO41590   7.101   1.159   4.155 -1.0697 -0.7199  0.8554
18433THY    CA141591   7.125   0.969   4.166 -0.6333  0.5871 -0.0005
18433THY    CA241592   7.076   0.841   4.186  0.1366 -0.7332  0.1883
18433THY    CP141593   6.930   0.806   4.158  0.2100  0.2017 -0.3587
18433THY    HP141594   6.872   0.898   4.148  2.4115  1.5332  1.2534
18433THY    CP241595   6.862   0.724   4.271 -0.4202  0.4714 -0.4189
18433THY    HP241596   6.905   0.755   4.367 -1.4211  0.7034  0.2955
18433THY    HP341597   6.873   0.616   4.255  2.2230 -0.9340 -0.0017
18433THY    HP441598   6.753   0.741   4.270 -0.5618  1.5190 -1.1598
18433THY    CP341599   6.921   0.736   4.022 -0.2564 -0.4190 -0.0124
18433THY    HP541600   6.974   0.640   4.030  2.0548  0.2951  1.2372
18433THY    HP641601   6.963   0.792   3.937 -1.4446 -0.2489  1.1756
18433THY    HP741602   6.814   0.722   4.005 -0.5569 -1.5494  2.9417
18433THY    CA341603   7.165   0.737   4.232  0.3008 -0.5402 -0.8180
18433THY    HA341604   7.136   0.633   4.242  0.1689 -0.8945 -0.8188
18433THY    CA441605   7.297   0.772   4.258 -0.6454  0.5201  0.9312
18433THY    HA441606   7.364   0.697   4.300 -2.1361  1.7359  0.2172
18433THY    CA541607   7.348   0.898   4.230 -0.6010  0.1591 -0.1723
18433THY    CM141608   7.497   0.923   4.240  0.0213  0.6906  0.2850
18433THY    HM141609   7.529   0.920   4.345  2.3112  0.0715  1.1022
18433THY    HM241610   7.512   1.022   4.196  1.3123  1.4208  0.4291
18433THY    HM341611   7.549   0.844   4.185 -2.7023 -0.5902 -0.7626
18433THY    CA641612   7.258   0.997   4.185 -0.5379  0.6198  0.0365
18433THY    HA641613   7.295   1.096   4.163 -0.0385 -1.0363 -0.4841
18434THY      O41614   8.585   0.802   7.079  0.1995  0.0272  0.6509
18434THY     HO41615   8.595   0.842   7.167 -0.1956  0.1443  0.4985
18434THY    CA141616   8.529   0.902   7.010 -0.2999 -0.5318 -0.3627
18434THY    CA241617   8.444   0.884   6.902 -0.2199 -0.1117  0.7211
18434THY    CP141618   8.385   0.739   6.858  0.4927 -0.4224  0.5735
18434THY    HP141619   8.410   0.654   6.922  1.3357 -1.6355 -0.1166
18434THY    CP241620   8.447   0.696   6.719 -0.1653  0.5061  0.0961
18434THY    HP241621   8.423   0.771   6.643 -0.1809 -0.1737 -0.5846
18434THY    HP341622   8.402   0.599   6.692  0.4542  0.6232 -0.2318
18434THY    HP441623   8.555   0.685   6.733 -0.2991  0.8476 -0.8712
18434THY    CP341624   8.233   0.737   6.858  0.5458  0.2479 -0.0839
18434THY    HP541625   8.192   0.815   6.793  0.2775 -0.5615 -0.8869
18434THY    HP641626   8.194   0.734   6.960 -2.0162 -0.6792 -2.4119
18434THY    HP741627   8.193   0.644   6.816  0.1595  1.4554 -0.4811
18434THY    CA341628   8.402   0.995   6.834 -0.0831  0.3720  0.1602
18434THY    HA341629   8.325   0.988   6.757  1.9755 -1.6340 -2.0636
18434THY    CA441630   8.457   1.125   6.863 -0.1069 -0.4623  0.3741
18434THY    HA441631   8.437   1.214   6.805  0.4568  0.1215  0.8974
18434THY    CA541632   8.541   1.137   6.971 -0.7808 -0.3461  0.4919
18434THY    CM141633   8.610   1.266   7.000  0.5363  0.1238  0.6103
18434THY    HM141634   8.669   1.255   7.092 -0.1755  0.7153  1.5403
18434THY    HM241635   8.554   1.360   6.993  0.3845 -1.0236  0.4413
18434THY    HM341636   8.696   1.272   6.932  1.7786  1.4676 -1.0605
18434THY    CA641637   8.571   1.026   7.049  0.0796  0.1890  0.9365
18434THY    HA641638   8.643   1.034   7.130  0.0631  0.2177  0.7894
18435THY      O41639   7.358   0.950   4.604  0.4284  0.0189  0.2433
18435THY     HO41640   7.350   0.903   4.519  2.7458  0.1329 -0.5109
18435THY    CA141641   7.243   1.022   4.630 -0.1968 -0.2163 -0.0366
18435THY    CA241642   7.245   1.105   4.741  0.1704 -0.5111 -0.2214
18435THY    CP141643   7.369   1.115   4.833  0.6674  0.0511  0.0872
18435THY    HP141644   7.432   1.026   4.820 -0.3967 -2.4719 -0.3826
18435THY    CP241645   7.330   1.117   4.982  0.5423 -0.4741 -0.6642
18435THY    HP241646   7.420   1.100   5.041 -1.2044  2.4504 -0.3413
18435THY    HP341647   7.264   1.038   5.018  0.2457  2.9579  0.9844
18435THY    HP441648   7.274   1.210   4.998  0.3880 -4.9365  0.2305
18435THY    CP341649   7.458   1.243   4.806  0.2376  0.1266 -0.3262
18435THY    HP541650   7.540   1.248   4.878 -1.2137  1.7686  1.8565
18435THY    HP641651   7.407   1.339   4.825  1.0127 -1.2675  0.3876
18435THY    HP741652   7.488   1.238   4.700  2.3471  0.4813  2.3795
18435THY    CA341653   7.127   1.186   4.760  0.0574  0.0133  0.5217
18435THY    HA341654   7.115   1.254   4.844 -3.0136  1.2517 -1.3510
18435THY    CA441655   7.017   1.170   4.672  0.0978 -0.0994 -0.2968
18435THY    HA441656   6.928   1.232   4.675  0.2998 -1.7932  0.1431
18435THY    CA541657   7.020   1.080   4.566  0.3312 -0.9168  0.4207
18435THY    CM141658   6.901   1.074   4.477  0.3219 -0.7915  0.2319
18435THY    HM141659   6.815   1.125   4.521  0.5439 -0.0668 -0.0063
18435THY    HM241660   6.897   0.967   4.454 -0.3405 -0.2880  0.1471
18435THY    HM341661   6.925   1.126   4.384 -0.0510 -0.3521  1.2028
18435THY    CA641662   7.134   1.009   4.544 -0.6298 -0.5337  0.3358
18435THY    HA641663   7.140   0.941   4.459  0.1432  0.6648 -1.1659
18436THY      O41664   7.542   2.183   4.780  0.0360  0.2493  0.0399
18436THY     HO41665   7.639   2.177   4.780  0.3060 -1.9490  2.4232
18436THY    CA141666   7.506   2.307   4.743 -0.5752  0.1635  0.3504
18436THY    CA241667   7.379   2.352   4.755  0.3240  0.2792 -0.4933
18436THY    CP141668   7.277   2.272   4.840 -0.4637  0.0485  0.3974
18436THY    HP141669   7.282   2.170   4.799  1.2113  0.0453  0.4451
18436THY    CP241670   7.132   2.317   4.823  0.6305 -0.0828  0.4366
18436THY    HP241671   7.111   2.306   4.716 -1.0225  0.1256  1.3108
18436THY    HP341672   7.109   2.417   4.862 -1.3723 -0.0810  0.0012
18436THY    HP441673   7.070   2.243   4.874 -1.7448 -1.4230  1.4041
18436THY    CP341674   7.312   2.276   4.990 -0.4025  0.2024  0.5999
18436THY    HP541675   7.408   2.227   5.011 -0.8790 -2.0990 -1.5366
18436THY    HP641676   7.237   2.233   5.058  1.2477  1.8302  0.1534
18436THY    HP741677   7.310   2.379   5.027 -2.6737  0.3408  0.5640
18436THY    CA341678   7.350   2.477   4.700  0.2917  0.3581  0.7829
18436THY    HA341679   7.254   2.526   4.710 -1.5823 -1.4571 -2.1811
18436THY    CA441680   7.454   2.552   4.637 -0.1750 -0.5188 -0.1829
18436THY    HA441681   7.441   2.652   4.596 -1.0480 -0.4711 -0.2703
18436THY    CA541682   7.581   2.502   4.623  0.7152 -0.3646  0.4925
18436THY    CM141683   7.686   2.568   4.554 -0.8522  0.8169  0.1822
18436THY    HM141684   7.737   2.494   4.492 -1.5393 -1.9591  1.8822
18436THY    HM241685   7.774   2.602   4.611 -0.9947  0.8981  0.4253
18436THY    HM341686   7.645   2.644   4.487  0.7325 -0.5710 -0.1311
18436THY    CA641687   7.602   2.377   4.675  0.2415  0.1062 -0.5212
18436THY    HA641688   7.699   2.332   4.653 -0.8083 -2.1731 -1.8450
18437THY      O41689   2.260   5.705   6.989 -0.2830 -0.0840  0.2485
18437THY     HO41690   2.189   5.769   7.003 -0.4431 -1.0786  0.3097
18437THY    CA141691   2.254   5.615   7.098  0.0431 -0.0958  0.2292
18437THY    CA241692   2.338   5.507   7.108  0.1033 -0.0950  0.5069
18437THY    CP141693   2.441   5.482   6.992 -0.2525 -0.9965 -0.2282
18437THY    HP141694   2.444   5.573   6.931  0.3271  0.8734  1.0595
18437THY    CP241695   2.409   5.364   6.891 -0.2719 -0.4597 -0.3125
18437THY    HP241696   2.335   5.390   6.815  0.3468 -1.0894 -0.3623
18437THY    HP341697   2.364   5.279   6.944 -3.1119 -0.5325  1.0329
18437THY    HP441698   2.498   5.341   6.831 -0.5738 -1.3160  0.6724
18437THY    CP341699   2.581   5.452   7.052 -0.6037 -0.2220  0.2255
18437THY    HP541700   2.580   5.357   7.107  0.5306  1.5011  1.1528
18437THY    HP641701   2.602   5.527   7.130  0.7723 -2.2207  2.0431
18437THY    HP741702   2.670   5.444   6.988  0.0893  0.6629  0.6795
18437THY    CA341703   2.333   5.425   7.220  0.2607 -0.1455  0.4792
18437THY    HA341704   2.404   5.344   7.231  1.5103  0.9035  1.6747
18437THY    CA441705   2.230   5.442   7.314  0.9793  0.2721 -0.4855
18437THY    HA441706   2.218   5.373   7.397  3.6179  1.5228  0.4151
18437THY    CA541707   2.140   5.543   7.296  0.6271  0.6586 -0.1492
18437THY    CM141708   2.029   5.560   7.395 -0.6830 -0.9725  0.3596
18437THY    HM141709   2.078   5.614   7.477  0.2990 -0.3157 -1.4816
18437THY    HM241710   1.990   5.464   7.428  1.6146 -0.0052 -0.3052
18437THY    HM341711   1.950   5.623   7.352  1.1489 -0.0791  3.5276
18437THY    CA641712   2.156   5.636   7.195 -0.5256 -0.8530 -0.1936
18437THY    HA641713   2.085   5.716   7.176 -1.6800 -1.7799 -1.3930
18438THY      O41714   7.217   0.515   6.156  0.0140 -0.2109 -1.0549
18438THY     HO41715   7.132   0.471   6.140  0.5422  0.1049 -2.2268
18438THY    CA141716   7.303   0.423   6.113 -0.6119  0.8607  0.0483
18438THY    CA241717   7.404   0.374   6.196  0.6217  0.2018 -0.5698
18438THY    CP141718   7.422   0.438   6.335 -0.4755 -0.3745 -0.0690
18438THY    HP141719   7.393   0.543   6.337 -3.1589 -1.0364 -0.7246
18438THY    CP241720   7.567   0.442   6.374 -0.7813  0.0013 -0.6939
18438THY    HP241721   7.611   0.344   6.395  2.1450  1.6795  0.8398
18438THY    HP341722   7.573   0.512   6.458 -0.7824 -0.8086  0.2998
18438THY    HP441723   7.630   0.488   6.297 -1.4762  0.0615  0.4170
18438THY    CP341724   7.337   0.356   6.442  0.3562 -0.0756  0.1518
18438THY    HP541725   7.367   0.251   6.452 -0.7127 -0.2129 -0.1782
18438THY    HP641726   7.233   0.346   6.409  0.8833 -1.8353  0.1323
18438THY    HP741727   7.338   0.401   6.542 -1.0556 -0.3795  0.8994
18438THY    CA341728   7.469   0.258   6.162 -0.2358  0.0072 -0.1573
18438THY    HA341729   7.557   0.228   6.218  0.5071 -1.0270  0.0477
18438THY    CA441730   7.437   0.192   6.044  0.9100  0.6060  0.8972
18438THY    HA441731   7.480   0.095   6.021  0.1120 -0.4571  0.7851
18438THY    CA541732   7.331   0.245   5.962  0.3438 -0.9766  0.1480
18438THY    CM141733   7.279   0.158   5.854  0.2313  0.2688  0.0766
18438THY    HM141734   7.366   0.119   5.800  0.6705  1.6614 -0.9593
18438THY    HM241735   7.209   0.216   5.793 -0.2300  0.5468 -0.1790
18438THY    HM341736   7.226   0.073   5.899 -0.4670 -0.8227 -0.0745
18438THY    CA641737   7.264   0.359   5.996  0.4841 -0.4464  0.3431
18438THY    HA641738   7.170   0.382   5.946 -1.6486  1.9092 -2.4047
18439THY      O41739   6.623   6.860   2.551 -0.3483  0.7234  0.1642
18439THY     HO41740   6.662   6.787   2.501 -2.7930 -2.1648  0.6314
18439THY    CA141741   6.567   6.803   2.661  0.2577  0.0869  0.2433
18439THY    CA241742   6.477   6.877   2.740  0.8218  0.2851 -0.1581
18439THY    CP141743   6.426   7.017   2.688 -0.2800 -0.2069 -0.2214
18439THY    HP141744   6.461   7.031   2.585  0.6665 -0.1029 -1.6618
18439THY    CP241745   6.485   7.137   2.769 -0.0362 -0.6588  0.8419
18439THY    HP241746   6.466   7.132   2.877  1.7154 -0.3742 -0.5824
18439THY    HP341747   6.448   7.236   2.743  0.9824 -1.0493  1.1245
18439THY    HP441748   6.594   7.143   2.767  0.1965 -0.7331 -1.8909
18439THY    CP341749   6.267   7.024   2.690  0.1332 -0.3972 -0.5090
18439THY    HP541750   6.234   7.117   2.643 -0.1595  1.5262  0.3876
18439THY    HP641751   6.231   7.020   2.793  0.1870 -0.1948  2.2601
18439THY    HP741752   6.216   6.941   2.640 -0.5424  1.4424 -1.2569
18439THY    CA341753   6.428   6.829   2.864  0.7616 -0.4104 -0.1971
18439THY    HA341754   6.341   6.874   2.912  1.0190 -0.6400  0.5530
18439THY    CA441755   6.465   6.694   2.898  0.0824 -0.1264 -0.3330
18439THY    HA441756   6.414   6.641   2.978  0.1830  0.0021 -0.2355
18439THY    CA541757   6.560   6.629   2.824 -0.3002 -0.0896  0.3839
18439THY    CM141758   6.600   6.484   2.863 -0.1264 -0.0524 -0.1556
18439THY    HM141759   6.692   6.473   2.921  0.2962 -0.8024 -0.5955
18439THY    HM241760   6.610   6.427   2.771 -3.0573 -1.8156  1.8672
18439THY    HM341761   6.524   6.442   2.931  0.7584  0.7236 -0.5368
18439THY    CA641762   6.615   6.684   2.707 -0.0203 -0.4374  0.7131
18439THY    HA641763   6.691   6.627   2.655  0.8320  2.5884 -1.1561
18440THY      O41764   5.053   4.589   2.309 -0.5290 -0.3541 -0.5684
18440THY     HO41765   4.969   4.637   2.300  0.7408  0.8428  2.0878
18440THY    CA141766   5.144   4.671   2.258  0.8875  0.4645  0.0070
18440THY    CA241767   5.276   4.637   2.251 -0.0611 -0.0484  0.0115
18440THY    CP141768   5.313   4.490   2.279  0.8778  0.1020 -0.2170
18440THY    HP141769   5.240   4.437   2.340 -0.8227 -0.8990  0.8691
18440THY    CP241770   5.443   4.479   2.359 -1.0924  0.8201 -0.2995
18440THY    HP241771   5.411   4.525   2.453 -0.6244  1.8214 -1.9201
18440THY    HP341772   5.524   4.523   2.300 -1.5897 -0.4606 -1.0261
18440THY    HP441773   5.471   4.375   2.381 -0.5710  0.0817 -0.3248
18440THY    CP341774   5.317   4.403   2.158 -0.6474  0.0468  0.0865
18440THY    HP541775   5.327   4.296   2.182 -2.9880 -1.6347 -0.5959
18440THY    HP641776   5.385   4.444   2.082 -2.7474 -1.1063  1.5838
18440THY    HP741777   5.216   4.386   2.119  0.4070 -2.4483 -0.9916
18440THY    CA341778   5.365   4.728   2.202 -0.8065  0.5688 -0.3325
18440THY    HA341779   5.469   4.704   2.186 -0.6714  2.4717 -1.1049
18440THY    CA441780   5.335   4.859   2.171 -0.0519 -0.5340  0.0750
18440THY    HA441781   5.418   4.922   2.139 -0.6238 -1.8796  0.1850
18440THY    CA541782   5.206   4.896   2.194  0.6871  0.1257 -0.4468
18440THY    CM141783   5.161   5.036   2.177  1.1608  0.2936  0.1253
18440THY    HM141784   5.085   5.040   2.098  0.4522  1.0173  3.1482
18440THY    HM241785   5.238   5.102   2.137 -1.2774 -1.8007  1.8881
18440THY    HM341786   5.117   5.078   2.268  2.8249  2.6828 -2.9153
18440THY    CA641787   5.105   4.801   2.219 -0.2793 -0.5882 -0.1190
18440THY    HA641788   5.004   4.840   2.233  0.3073 -0.8721  1.5914
18441THY      O41789   0.303   8.198   4.673  0.2457 -0.5159 -0.0870
18441THY     HO41790   0.274   8.147   4.750 -0.6702 -0.1150  0.9875
18441THY    CA141791   0.240   8.317   4.679  0.3977  0.6235  0.2513
18441THY    CA241792   0.198   8.386   4.564  0.0408  0.3294 -0.5906
18441THY    CP141793   0.225   8.326   4.427  0.4612  0.0075  0.0848
18441THY    HP141794   0.287   8.236   4.435  2.0711 -0.4624  1.1060
18441THY    CP241795   0.299   8.429   4.345  0.4107 -0.1296 -0.2700
18441THY    HP241796   0.229   8.494   4.291 -0.1388 -0.2841 -0.9687
18441THY    HP341797   0.371   8.382   4.277  3.1270  1.7487  0.9430
18441THY    HP441798   0.357   8.497   4.407 -0.2181  2.6455 -2.1045
18441THY    CP341799   0.089   8.293   4.361 -0.1068  0.5816 -0.2391
18441THY    HP541800   0.111   8.238   4.268  1.4045 -0.4067  1.8611
18441THY    HP641801   0.029   8.378   4.326 -0.8584  2.4580  0.0341
18441THY    HP741802   0.033   8.234   4.434 -2.1972  0.1658  1.1416
18441THY    CA341803   0.132   8.515   4.577 -0.1829  0.2338 -0.0141
18441THY    HA341804   0.103   8.559   4.483 -2.1888  0.3967 -0.8702
18441THY    CA441805   0.107   8.571   4.698 -0.5718 -0.5190 -0.1782
18441THY    HA441806   0.054   8.666   4.706 -2.6474 -1.2918 -1.2284
18441THY    CA541807   0.154   8.500   4.812  0.0597  0.1436 -0.2808
18441THY    CM141808   0.137   8.564   4.944 -0.5901  0.4105 -0.3046
18441THY    HM141809   0.181   8.506   5.025 -0.4114  1.4297  1.2086
18441THY    HM241810   0.032   8.553   4.974 -0.8078  0.5573  1.7727
18441THY    HM341811   0.160   8.671   4.948  0.1308 -1.1229 -0.3641
18441THY    CA641812   0.205   8.368   4.800  0.3594  0.0015  0.2604
18441THY    HA641813   0.243   8.318   4.888  0.5776  0.1104  0.6098
18442THY      O41814   7.986   3.128   2.167 -0.1953 -0.1220 -0.2191
18442THY     HO41815   8.015   3.211   2.124  0.9763  0.4734 -0.3165
18442THY    CA141816   8.009   3.036   2.078  0.6620  0.2523 -0.1668
18442THY    CA241817   7.945   2.903   2.085  0.5577  0.4529  0.0956
18442THY    CP141818   7.854   2.868   2.199  0.1028  0.1762  0.2954
18442THY    HP141819   7.848   2.958   2.262 -1.6213  0.8000 -0.2119
18442THY    CP241820   7.918   2.750   2.274  0.3213 -0.0858  0.0545
18442THY    HP241821   7.893   2.654   2.227 -0.0740 -2.5039  1.2699
18442THY    HP341822   7.869   2.743   2.372 -0.4309 -0.4297  0.3355
18442THY    HP441823   8.026   2.763   2.280  0.1994 -0.7329  1.5632
18442THY    CP341824   7.706   2.833   2.153 -0.0706  0.1188 -0.3488
18442THY    HP541825   7.701   2.724   2.149 -1.7060  2.2114 -0.4238
18442THY    HP641826   7.676   2.871   2.055 -0.7119 -0.0778 -1.3288
18442THY    HP741827   7.636   2.878   2.224  0.8330  0.8666 -0.0892
18442THY    CA341828   7.960   2.813   1.976  0.0253 -0.8998 -0.3733
18442THY    HA341829   7.911   2.717   1.964  2.1000 -3.8375 -1.1925
18442THY    CA441830   8.043   2.846   1.873  0.0822 -0.4946 -0.1347
18442THY    HA441831   8.065   2.782   1.789  0.7860  0.5445 -1.3046
18442THY    CA541832   8.105   2.977   1.870  0.7394 -0.0790  0.2107
18442THY    CM141833   8.188   3.016   1.747  1.0598  0.2627 -0.8583
18442THY    HM141834   8.276   3.079   1.766  1.1113  0.3733 -0.9659
18442THY    HM241835   8.124   3.073   1.678  1.5073  1.5415  1.3044
18442THY    HM341836   8.226   2.926   1.698  0.9497 -0.2649 -0.6257
18442THY    CA641837   8.080   3.072   1.967 -0.8465  0.5744 -0.3151
18442THY    HA641838   8.124   3.171   1.962  0.1918  1.2582 -0.7231
18443THY      O41839   6.857   2.795   2.280 -0.3295 -0.5871  0.0237
18443THY     HO41840   6.829   2.846   2.357  0.6577  1.1202 -1.8810
18443THY    CA141841   6.864   2.889   2.180  0.2889 -0.3404 -0.5177
18443THY    CA241842   6.872   2.854   2.046  0.0646 -0.2262  0.2454
18443THY    CP141843   6.867   2.709   1.998 -0.4238 -0.7136 -0.0873
18443THY    HP141844   6.843   2.645   2.084 -0.4206  0.3444  1.2887
18443THY    CP241845   7.004   2.662   1.948  0.9026  0.3601 -0.6338
18443THY    HP241846   7.089   2.712   1.995  0.6898  1.4030 -1.2075
18443THY    HP341847   7.007   2.669   1.839 -0.7534  0.2710 -0.8632
18443THY    HP441848   7.011   2.560   1.988  2.0971  2.3136  0.1563
18443THY    CP341849   6.761   2.667   1.902  0.6737 -0.8430  0.2000
18443THY    HP541850   6.783   2.569   1.858  0.1008 -1.7837  0.4830
18443THY    HP641851   6.745   2.745   1.827  1.3058  0.2771  1.4357
18443THY    HP741852   6.673   2.649   1.965  1.3890  0.0880 -0.1288
18443THY    CA341853   6.892   2.956   1.954 -0.1402 -0.5211  0.0839
18443THY    HA341854   6.901   2.928   1.849  1.0926 -0.4514  0.1839
18443THY    CA441855   6.909   3.089   1.998 -0.3964  0.1076 -0.7883
18443THY    HA441856   6.942   3.164   1.927  0.4991  1.4136  0.0977
18443THY    CA541857   6.914   3.119   2.133 -0.2668  0.6667 -0.2787
18443THY    CM141858   6.937   3.263   2.176 -0.2057 -0.1557  0.1095
18443THY    HM141859   6.960   3.329   2.091 -3.6047 -2.1588 -1.0455
18443THY    HM241860   7.012   3.280   2.255 -0.6340  0.6816 -1.6387
18443THY    HM341861   6.837   3.291   2.210 -0.0023  3.3857 -2.7968
18443THY    CA641862   6.887   3.015   2.224 -0.7924 -0.6066 -0.1291
18443THY    HA641863   6.870   3.033   2.329 -0.3641 -0.8247  1.7305
18444THY      O41864   6.436   5.438   6.484 -0.7416  0.1932  0.7584
18444THY     HO41865   6.519   5.429   6.533  1.5345 -3.4163 -0.2062
18444THY    CA141866   6.372   5.553   6.523  0.8565 -0.1110 -0.1858
18444THY    CA241867   6.254   5.591   6.462 -0.0854  0.1767 -0.8760
18444THY    CP141868   6.188   5.498   6.353 -0.1703 -0.4651 -0.5271
18444THY    HP141869   6.256   5.423   6.312  1.4376  2.0120 -0.5326
18444THY    CP241870   6.118   5.561   6.226 -0.0383  0.2567 -0.0172
18444THY    HP241871   6.181   5.625   6.164 -2.4566 -2.0857  0.2603
18444THY    HP341872   6.027   5.620   6.243  0.3738 -1.4177  1.1707
18444THY    HP441873   6.105   5.473   6.164  3.1264 -2.5718  1.2966
18444THY    CP341874   6.092   5.397   6.427  0.3355  0.2853 -0.0362
18444THY    HP541875   6.059   5.320   6.356 -2.4800  0.7151  0.6436
18444THY    HP641876   5.999   5.441   6.465 -0.2405 -0.4616 -0.5880
18444THY    HP741877   6.147   5.352   6.511 -0.2535  1.1900  0.8796
18444THY    CA341878   6.197   5.717   6.495 -0.2443 -0.6867 -0.8268
18444THY    HA341879   6.110   5.752   6.439 -0.8777 -0.6324 -2.2466
18444THY    CA441880   6.257   5.796   6.600 -0.5116 -0.5342 -0.3261
18444THY    HA441881   6.212   5.889   6.632  1.2808  0.1735  0.3431
18444THY    CA541882   6.378   5.762   6.655 -0.6904 -0.2406  1.0617
18444THY    CM141883   6.455   5.850   6.750  0.1085 -0.4035 -0.4133
18444THY    HM141884   6.550   5.888   6.710  1.9568  2.6983 -1.3997
18444THY    HM241885   6.460   5.794   6.845 -0.6135 -0.2975 -0.3102
18444THY    HM341886   6.404   5.939   6.787  0.7758  0.4745 -0.3785
18444THY    CA641887   6.434   5.639   6.615  0.2413 -0.5704  0.1502
18444THY    HA641888   6.528   5.615   6.665 -0.4391  2.2143  2.7657
18445THY      O41889   0.893   5.181   6.301 -0.0421 -0.5813 -0.4113
18445THY     HO41890   0.874   5.229   6.219 -1.6437 -0.0499 -0.0849
18445THY    CA141891   1.021   5.148   6.299 -0.2239  0.2473  0.1018
18445THY    CA241892   1.090   5.093   6.407  0.3025  0.6466  0.5510
18445THY    CP141893   1.009   5.052   6.532  0.1508 -0.2747 -0.1810
18445THY    HP141894   0.953   5.137   6.572  0.3315  1.5008 -0.8503
18445THY    CP241895   1.093   5.015   6.657  0.2695 -0.6130  0.4192
18445THY    HP241896   1.133   4.914   6.642 -1.0190 -2.0712  0.1068
18445THY    HP341897   1.022   5.021   6.740  0.5907  0.0121 -2.7444
18445THY    HP441898   1.174   5.083   6.688  1.2293 -0.6135 -0.6930
18445THY    CP341899   0.921   4.929   6.508 -0.1603 -0.0180  0.0535
18445THY    HP541900   0.980   4.839   6.490  0.5394 -0.0556  0.5165
18445THY    HP641901   0.853   4.943   6.422 -1.6680  1.3604  1.7507
18445THY    HP741902   0.864   4.919   6.601  1.3328  0.9033 -0.2186
18445THY    CA341903   1.230   5.081   6.393 -0.1243  0.3699 -0.3557
18445THY    HA341904   1.288   5.052   6.481 -0.3241  0.9631  0.9264
18445THY    CA441905   1.303   5.109   6.272  0.3274  0.3607  0.0937
18445THY    HA441906   1.409   5.085   6.264  0.3855 -2.9250  0.9901
18445THY    CA541907   1.225   5.151   6.171  0.1373  0.6136 -0.2942
18445THY    CM141908   1.285   5.159   6.025  0.2331  0.0466 -0.1516
18445THY    HM141909   1.279   5.261   5.986  0.2536 -0.0666 -0.1929
18445THY    HM241910   1.221   5.112   5.949 -0.5715 -1.1819  2.6831
18445THY    HM341911   1.387   5.120   6.016 -0.4397 -1.0671 -1.7925
18445THY    CA641912   1.086   5.167   6.182 -0.9627  0.0667 -0.9938
18445THY    HA641913   1.039   5.179   6.085  1.1307 -0.8867  0.0868
18446THY      O41914   0.655   8.915   6.653 -0.4299 -0.7607 -0.0356
18446THY     HO41915   0.562   8.906   6.682  0.2580  1.9650  0.6455
18446THY    CA141916   0.722   8.978   6.752  0.3409  0.3671  0.3843
18446THY    CA241917   0.848   8.931   6.795  0.5525  0.1809  0.2750
18446THY    CP141918   0.914   8.801   6.745  0.0806 -0.6082 -0.1796
18446THY    HP141919   0.864   8.760   6.656  1.7438 -1.0485 -1.3036
18446THY    CP241920   0.895   8.686   6.837  0.4620  0.0467  0.1872
18446THY    HP241921   0.934   8.592   6.797 -0.6429 -0.4083 -0.0978
18446THY    HP341922   0.789   8.672   6.862  0.3247 -0.9767 -0.7909
18446THY    HP441923   0.950   8.712   6.928  0.6075 -0.8557  3.3934
18446THY    CP341924   1.060   8.822   6.707 -0.2616 -0.3550  0.1573
18446THY    HP541925   1.124   8.848   6.792 -2.1991  1.3576 -0.4653
18446THY    HP641926   1.076   8.895   6.626  1.1876 -0.5573 -0.3363
18446THY    HP741927   1.102   8.732   6.659 -0.6052  0.2283 -0.3258
18446THY    CA341928   0.898   8.996   6.906  0.1014 -0.9334 -0.2572
18446THY    HA341929   0.991   8.961   6.951  0.2856 -0.1009  1.2182
18446THY    CA441930   0.846   9.116   6.948  0.3118  0.6988 -0.9833
18446THY    HA441931   0.892   9.180   7.022 -0.8401  0.2413  0.4362
18446THY    CA541932   0.726   9.171   6.893  0.2474  0.0042  0.8254
18446THY    CM141933   0.671   9.309   6.924  0.2488 -0.4836 -0.2785
18446THY    HM141934   0.751   9.361   6.978  2.2459 -1.8558 -1.7758
18446THY    HM241935   0.575   9.299   6.977  0.2426 -0.4160  0.1230
18446THY    HM341936   0.649   9.364   6.832 -2.2622 -0.9965 -1.9503
18446THY    CA641937   0.662   9.093   6.795  0.1228 -0.2391  0.2733
18446THY    HA641938   0.571   9.128   6.748 -0.9239  2.6249  1.7032
18447THY      O41939   2.492   8.368   6.661  0.1661 -0.2089 -0.0975
18447THY     HO41940   2.480   8.272   6.671 -4.6503  0.3960  0.3523
18447THY    CA141941   2.610   8.401   6.722  0.2340  0.0369  0.0793
18447THY    CA241942   2.642   8.540   6.740  0.4744  0.3711 -0.0187
18447THY    CP141943   2.541   8.648   6.697 -0.3638  0.2650  0.7703
18447THY    HP141944   2.476   8.613   6.617 -1.8106  1.0310  1.6396
18447THY    CP241945   2.622   8.764   6.649 -0.5991  0.1816 -0.5988
18447THY    HP241946   2.558   8.834   6.593 -0.2585  1.3729  0.7111
18447THY    HP341947   2.699   8.731   6.578  0.4906  1.1620 -0.1838
18447THY    HP441948   2.680   8.816   6.725 -0.8344  0.2593 -0.4510
18447THY    CP341949   2.444   8.700   6.803 -0.3801  0.3457 -0.0079
18447THY    HP541950   2.503   8.770   6.864 -0.5692 -0.1064  0.5461
18447THY    HP641951   2.403   8.625   6.872  0.0919 -2.8257 -3.4693
18447THY    HP741952   2.364   8.757   6.756  1.3583 -2.4387  0.3003
18447THY    CA341953   2.769   8.570   6.795  0.3294  0.4818 -0.6992
18447THY    HA341954   2.809   8.670   6.814 -1.9229 -0.3720  0.4365
18447THY    CA441955   2.843   8.465   6.858  0.7055  0.0815  0.5788
18447THY    HA441956   2.921   8.492   6.929  1.8166 -0.4074 -1.1333
18447THY    CA541957   2.801   8.327   6.842 -0.0316 -0.2357  0.1552
18447THY    CM141958   2.886   8.213   6.905 -0.1471  0.1917  0.2781
18447THY    HM141959   2.831   8.148   6.974 -0.1232 -1.3661 -1.4879
18447THY    HM241960   2.974   8.248   6.960  0.2606  0.4671 -1.1274
18447THY    HM341961   2.923   8.153   6.820  0.2008  0.0138  0.7401
18447THY    CA641962   2.690   8.295   6.770  0.4490 -0.1232 -0.1477
18447THY    HA641963   2.664   8.191   6.751 -0.1475  1.2637 -0.2767
18448THY      O41964   7.057   7.711   5.915 -0.2017 -0.1225 -0.3128
18448THY     HO41965   7.072   7.643   5.847  2.4211 -0.3629  0.4158
18448THY    CA141966   7.036   7.646   6.032  0.8286  0.2368  0.0908
18448THY    CA241967   7.102   7.682   6.146 -0.2371 -0.1508  0.0776
18448THY    CP141968   7.203   7.795   6.139 -0.0805 -0.4687  0.1177
18448THY    HP141969   7.224   7.834   6.038 -0.8273 -0.2414  1.1350
18448THY    CP241970   7.340   7.759   6.181 -0.1200  0.2535  0.0364
18448THY    HP241971   7.420   7.831   6.160  0.5948  0.8286 -0.5736
18448THY    HP341972   7.371   7.676   6.115  0.4331 -1.3302  1.4533
18448THY    HP441973   7.350   7.726   6.285  1.0658  0.2554  0.3378
18448THY    CP341974   7.160   7.919   6.217 -0.5232 -0.0213 -0.1641
18448THY    HP541975   7.224   8.007   6.203  0.4174 -1.0328 -0.9750
18448THY    HP641976   7.165   7.883   6.321  0.9606  0.7553  2.0473
18448THY    HP741977   7.058   7.948   6.190 -0.6571 -3.4664 -3.1242
18448THY    CA341978   7.101   7.591   6.256  0.6663 -0.1906 -0.2416
18448THY    HA341979   7.167   7.614   6.339  0.0942  1.2182 -3.2066
18448THY    CA441980   7.019   7.472   6.252  0.6326  0.4026 -0.5447
18448THY    HA441981   7.008   7.399   6.331  0.3109 -0.0828 -1.0263
18448THY    CA541982   6.952   7.440   6.132  0.2058 -0.4285  0.4351
18448THY    CM141983   6.898   7.302   6.115  0.2226  0.1104 -0.6328
18448THY    HM141984   6.900   7.257   6.015 -1.4566  0.8040 -2.4124
18448THY    HM241985   6.798   7.299   6.161 -1.5992 -3.4296  0.2397
18448THY    HM341986   6.962   7.227   6.164  0.9972 -2.3316 -1.6636
18448THY    CA641987   6.968   7.523   6.020  0.1393 -0.0599  0.2106
18448THY    HA641988   6.927   7.488   5.926  0.2300  0.0938 -0.3143
18449THY      O41989   4.439   8.489   6.822  0.8851 -0.2567 -0.6611
18449THY     HO41990   4.408   8.573   6.785 -0.9095  1.4991 -0.4871
18449THY    CA141991   4.396   8.396   6.725  0.0112 -0.7973 -0.3628
18449THY    CA241992   4.391   8.256   6.758 -0.6220 -0.2353 -0.6867
18449THY    CP141993   4.457   8.214   6.892  0.2076  0.9725  0.1361
18449THY    HP141994   4.464   8.302   6.958  1.3207  0.1130  0.7094
18449THY    CP241995   4.598   8.171   6.867 -0.0338 -0.2970 -0.3008
18449THY    HP241996   4.598   8.071   6.823  1.8819  0.1483 -0.5331
18449THY    HP341997   4.653   8.173   6.962 -0.2511 -0.1797  0.5924
18449THY    HP441998   4.640   8.240   6.794  0.6272 -1.1069 -1.5218
18449THY    CP341999   4.371   8.111   6.965  0.0583  0.6290  0.0894
18449THY    HP542000   4.389   8.008   6.933  2.2926 -0.8842  0.8757
18449THY    HP642001   4.265   8.138   6.959  0.3454 -2.5658  0.9467
18449THY    HP742002   4.390   8.127   7.072  0.6976  0.5522 -0.1041
18449THY    CA342003   4.332   8.165   6.671  0.4193 -0.4786  0.0753
18449THY    HA342004   4.330   8.059   6.694  0.5964 -0.2978  0.1087
18449THY    CA442005   4.275   8.217   6.556 -0.1354  0.1247 -0.9625
18449THY    HA442006   4.221   8.146   6.495  1.7816  1.3453 -3.6597
18449THY    CA542007   4.278   8.351   6.520  0.0618 -0.1232  0.1370
18449THY    CM142008   4.199   8.405   6.396  0.3456 -0.6574  0.7317
18449THY    HM142009   4.268   8.467   6.339  1.5121 -1.5124 -1.2528
18449THY    HM242010   4.118   8.474   6.424 -1.3642 -1.0868 -1.0229
18449THY    HM342011   4.160   8.318   6.342  0.0437  1.4936 -0.5418
18449THY    CA642012   4.341   8.441   6.608 -0.1836 -0.3122 -0.5849
18449THY    HA642013   4.338   8.547   6.584  4.5805  0.9408  0.0532
18450THY      O42014   1.897   7.317   3.201  1.0867 -0.8177  0.5903
18450THY     HO42015   1.933   7.244   3.254  2.4780 -0.2626  1.6322
18450THY    CA142016   1.973   7.343   3.094  0.3529  0.4807  0.0837
18450THY    CA242017   1.974   7.463   3.023 -0.3386 -0.4212  0.1690
18450THY    CP142018   1.916   7.592   3.087 -0.1179  0.2144  0.9307
18450THY    HP142019   1.892   7.581   3.193 -0.8978 -0.0624 -0.2228
18450THY    CP242020   1.778   7.623   3.018 -0.0345 -0.9257 -1.0166
18450THY    HP242021   1.733   7.711   3.064 -1.7654 -0.2456 -2.2004
18450THY    HP342022   1.713   7.536   3.033 -0.5923 -0.0207 -0.4541
18450THY    HP442023   1.782   7.637   2.909 -1.0058 -0.9114 -0.5438
18450THY    CP342024   2.009   7.720   3.081 -1.0291  0.1463  0.1067
18450THY    HP542025   1.969   7.810   3.128 -0.4912 -0.7142  0.8165
18450THY    HP642026   2.042   7.749   2.980  2.7597  1.3677  0.4897
18450THY    HP742027   2.101   7.705   3.138  0.1952 -1.3431  1.5795
18450THY    CA342028   2.050   7.473   2.905  0.1165 -0.0099 -0.1290
18450THY    HA342029   2.059   7.569   2.855 -0.6626  0.2887  0.1082
18450THY    CA442030   2.110   7.365   2.857  0.4220  0.1418  0.2914
18450THY    HA442031   2.170   7.362   2.767  0.2186  0.0219 -1.4188
18450THY    CA542032   2.101   7.247   2.923  0.9585  0.1582  0.3907
18450THY    CM142033   2.170   7.124   2.869 -0.4067  0.3058 -0.4349
18450THY    HM142034   2.202   7.064   2.955 -2.4011  1.8303  0.5637
18450THY    HM242035   2.259   7.157   2.813 -0.0286  1.5806  0.8280
18450THY    HM342036   2.103   7.062   2.808 -0.1373  1.1045 -1.5492
18450THY    CA642037   2.037   7.233   3.041  0.4991 -0.3637  0.8713
18450THY    HA642038   2.030   7.136   3.090 -0.1857 -0.7439  0.7198
18451THY      O42039   3.803   6.337   3.870 -0.1464 -0.3164 -1.0416
18451THY     HO42040   3.863   6.297   3.805  1.9483  1.2021 -0.5071
18451THY    CA142041   3.876   6.444   3.924 -0.4284 -0.2334  0.1606
18451THY    CA242042   3.813   6.535   4.013  0.0932  0.0895  0.3797
18451THY    CP142043   3.669   6.510   4.070  0.0955 -0.3440  0.7788
18451THY    HP142044   3.635   6.410   4.044 -1.7691 -2.0624  1.7838
18451THY    CP242045   3.579   6.611   4.004 -0.4362 -0.2535 -0.6686
18451THY    HP242046   3.580   6.591   3.896  0.8869  0.0025 -2.2073
18451THY    HP342047   3.615   6.714   4.017  0.0631 -0.3152 -0.8359
18451THY    HP442048   3.476   6.609   4.041 -0.8863 -1.3273  0.6205
18451THY    CP342049   3.648   6.521   4.224  0.0870 -0.0043 -0.2436
18451THY    HP542050   3.543   6.497   4.242  0.5375 -0.4547 -2.8478
18451THY    HP642051   3.685   6.620   4.253  0.0647  1.6593 -0.6937
18451THY    HP742052   3.709   6.450   4.281 -1.2733 -1.3800 -2.6453
18451THY    CA342053   3.890   6.642   4.057  0.3707  0.8267  0.1727
18451THY    HA342054   3.848   6.716   4.124 -0.6985  1.3433 -0.8551
18451THY    CA442055   4.026   6.661   4.023 -0.3016  0.2832  1.2138
18451THY    HA442056   4.088   6.738   4.066  1.5549 -1.0349  0.5384
18451THY    CA542057   4.078   6.573   3.921 -0.7844  1.4839  0.9848
18451THY    CM142058   4.217   6.593   3.874 -0.3824 -0.0723 -0.3848
18451THY    HM142059   4.203   6.659   3.788  0.1700 -1.7297 -2.3190
18451THY    HM242060   4.256   6.496   3.842 -1.6362 -2.3798 -0.2035
18451THY    HM342061   4.273   6.638   3.956  0.7828 -2.4695  2.9065
18451THY    CA642062   4.002   6.475   3.868  0.7018  0.2138  0.1421
18451THY    HA642063   4.040   6.399   3.801 -2.1496 -0.1585 -1.0809
18452THY      O42064   2.396   4.160   3.001 -0.0017 -0.5621 -0.4631
18452THY     HO42065   2.457   4.234   3.021  0.7838  0.1627 -1.2793
18452THY    CA142066   2.467   4.046   3.033 -0.1160  0.2026 -0.4866
18452THY    CA242067   2.417   3.918   3.019  0.0803 -0.4791  0.1283
18452THY    CP142068   2.280   3.897   2.969  0.5263 -0.3565  0.7791
18452THY    HP142069   2.231   3.992   2.944  2.4450  0.9824  2.2086
18452THY    CP242070   2.195   3.828   3.075  0.2592  0.4662  0.1643
18452THY    HP242071   2.208   3.721   3.054 -1.2709  2.6195 -0.5323
18452THY    HP342072   2.089   3.852   3.062  0.4617 -0.0655  0.7897
18452THY    HP442073   2.228   3.860   3.175 -0.6032  1.1122 -0.8852
18452THY    CP342074   2.279   3.819   2.836 -0.2273  0.1929 -0.1156
18452THY    HP542075   2.203   3.867   2.772  0.9190  0.3145  1.9368
18452THY    HP642076   2.251   3.714   2.852 -0.4743 -0.8527 -0.2269
18452THY    HP742077   2.373   3.829   2.780  0.7862  1.3593 -2.3580
18452THY    CA342078   2.507   3.812   3.049  0.6418  0.3273  0.1892
18452THY    HA342079   2.470   3.710   3.042  0.8308 -0.3582  0.1586
18452THY    CA442080   2.637   3.843   3.094 -0.6406 -0.6504 -0.5477
18452THY    HA442081   2.715   3.775   3.127 -0.0915 -1.0232 -0.1181
18452THY    CA542082   2.681   3.977   3.102  0.4415 -0.3095  0.2589
18452THY    CM142083   2.822   4.017   3.141  0.0094  0.1516 -0.1639
18452THY    HM142084   2.888   4.027   3.054 -0.7634 -0.9519 -3.4006
18452THY    HM242085   2.865   3.935   3.200  0.8616 -1.0327 -0.6006
18452THY    HM342086   2.821   4.108   3.202 -0.0395  0.6092 -0.4658
18452THY    CA642087   2.597   4.075   3.064 -0.2016 -0.2281 -0.4070
18452THY    HA642088   2.633   4.177   3.063 -3.0544 -0.1650  0.6839
18453THY      O42089   3.600   1.765   3.671  0.4301 -0.3469  0.1203
18453THY     HO42090   3.549   1.838   3.711  0.7789 -0.9345  0.6972
18453THY    CA142091   3.634   1.799   3.546 -0.2104 -0.3644  0.2106
18453THY    CA242092   3.703   1.705   3.464  0.0685  0.3939 -0.0962
18453THY    CP142093   3.738   1.566   3.500 -0.0201  0.2453  0.5337
18453THY    HP142094   3.700   1.528   3.596  1.1495 -0.4288 -2.6310
18453THY    CP242095   3.892   1.552   3.500 -0.0184 -0.0474  0.1508
18453THY    HP242096   3.929   1.589   3.404 -1.8639 -0.8800 -0.0602
18453THY    HP342097   3.915   1.445   3.516 -1.1800  1.3122  0.0788
18453THY    HP442098   3.942   1.609   3.579  1.2552 -0.7139  0.0010
18453THY    CP342099   3.674   1.465   3.406  0.5898  0.4414 -0.8046
18453THY    HP542100   3.675   1.363   3.446  1.8837 -0.9742 -1.3816
18453THY    HP642101   3.722   1.451   3.309 -0.2409  0.1336 -1.5468
18453THY    HP742102   3.570   1.488   3.384  1.0301 -0.9981 -0.0818
18453THY    CA342103   3.722   1.745   3.328 -0.7716 -0.1982 -0.6871
18453THY    HA342104   3.777   1.678   3.262  0.5794  0.7071 -0.5084
18453THY    CA442105   3.674   1.862   3.276 -0.6348 -0.9145  0.1220
18453THY    HA442106   3.698   1.897   3.176  0.9780 -0.7839 -0.5024
18453THY    CA542107   3.608   1.951   3.358 -0.4966 -0.4448 -0.4793
18453THY    CM142108   3.561   2.076   3.304 -0.4654 -0.0182 -0.0401
18453THY    HM142109   3.482   2.054   3.231 -0.4559  0.4244 -1.6188
18453THY    HM242110   3.639   2.127   3.246  0.2305  0.7889 -0.1714
18453THY    HM342111   3.515   2.144   3.376  2.0328  0.5444  1.1810
18453THY    CA642112   3.590   1.922   3.494 -0.1369 -0.1078 -0.2819
18453THY    HA642113   3.538   1.994   3.556 -0.3532 -0.2857 -0.2847
18454THY      O42114   1.076   7.919   3.004 -0.0062 -0.1583  0.2005
18454THY     HO42115   1.006   7.860   3.038  2.6533  3.3961 -1.2929
18454THY    CA142116   1.157   7.944   3.106  0.2201 -0.4450  0.4353
18454THY    CA242117   1.298   7.938   3.100 -0.0110 -0.9271 -0.2301
18454THY    CP142118   1.368   7.895   2.971  0.2436  0.3791  0.0578
18454THY    HP142119   1.290   7.897   2.893  0.2665  0.3265 -0.7875
18454THY    CP242120   1.430   7.748   2.978 -0.3277  0.3625 -0.2792
18454THY    HP242121   1.339   7.690   2.998 -2.0938  1.3297  2.6165
18454THY    HP342122   1.509   7.729   3.051 -0.2975  0.3137 -0.3417
18454THY    HP442123   1.485   7.724   2.886 -0.3681 -0.0289  1.0609
18454THY    CP342124   1.480   7.996   2.935  0.1392  0.2369  0.3293
18454THY    HP542125   1.566   8.003   3.002 -0.5998  1.0333  2.5789
18454THY    HP642126   1.443   8.099   2.931 -0.8689 -0.5694 -0.0476
18454THY    HP742127   1.519   7.970   2.835  0.6884  0.9454 -1.7313
18454THY    CA342128   1.364   7.972   3.219 -0.1948 -0.3132 -0.6501
18454THY    HA342129   1.472   7.961   3.229  0.1166  0.5561  2.3729
18454THY    CA442130   1.293   8.020   3.338 -1.0657  0.7176 -0.5435
18454THY    HA442131   1.356   8.047   3.422  1.5258 -1.4549  0.5814
18454THY    CA542132   1.157   8.020   3.339  0.3318  0.3095 -0.3509
18454THY    CM142133   1.079   8.064   3.460 -0.5897  0.3522 -0.5006
18454THY    HM142134   1.095   7.997   3.545 -1.1476  0.8074 -0.0642
18454THY    HM242135   0.972   8.065   3.436 -0.4284 -0.4331  0.7200
18454THY    HM342136   1.118   8.163   3.487  0.0624 -2.6452  0.1699
18454THY    CA642137   1.090   7.989   3.224  0.0794  0.2834  0.1212
18454THY    HA642138   0.982   7.990   3.229  0.0498 -0.0044 -0.5775
18455THY      O42139   6.924   2.744   2.646 -0.4284 -0.3018 -0.1565
18455THY     HO42140   7.001   2.789   2.607 -1.1156 -1.5100  0.0073
18455THY    CA142141   6.946   2.606   2.670  0.2250  0.1019 -0.0853
18455THY    CA242142   6.831   2.519   2.681  0.7995 -0.6000 -0.0564
18455THY    CP142143   6.688   2.578   2.655  0.5132 -0.1932 -0.1517
18455THY    HP142144   6.684   2.670   2.715  1.9321 -0.0287 -0.1708
18455THY    CP242145   6.572   2.485   2.713 -0.1921  0.4176  0.2145
18455THY    HP242146   6.481   2.545   2.703  0.0235  0.0285  0.4774
18455THY    HP342147   6.582   2.461   2.820 -0.9200 -0.0221 -2.3314
18455THY    HP442148   6.561   2.391   2.658 -1.5304  0.6985  0.1813
18455THY    CP342149   6.681   2.606   2.500 -0.3704 -0.2280  1.0225
18455THY    HP542150   6.587   2.654   2.468 -0.0450  1.3845  2.8860
18455THY    HP642151   6.680   2.509   2.451 -2.0036  0.1482  0.8175
18455THY    HP742152   6.765   2.671   2.472  0.0632 -0.1165  0.5169
18455THY    CA342153   6.859   2.381   2.709 -0.4718  0.2711  0.5065
18455THY    HA342154   6.772   2.317   2.718 -0.8994  0.5834  1.1251
18455THY    CA442155   6.996   2.333   2.713  0.2079 -0.1193  0.1018
18455THY    HA442156   7.025   2.228   2.715 -1.6261  0.8126 -0.4114
18455THY    CA542157   7.100   2.426   2.711 -0.0112  1.4096 -0.2203
18455THY    CM142158   7.242   2.373   2.726  0.1888  0.0636 -0.0562
18455THY    HM142159   7.267   2.302   2.647 -0.3919 -1.2996  1.2019
18455THY    HM242160   7.265   2.328   2.824 -0.8265 -0.7035 -2.3584
18455THY    HM342161   7.314   2.454   2.708 -0.1212 -2.3669 -0.2404
18455THY    CA642162   7.081   2.564   2.688 -0.1497 -0.0477 -1.0489
18455THY    HA642163   7.158   2.639   2.681 -2.6450 -3.8627  1.5542
18456THY      O42164   7.252   7.336   6.474  0.0245  0.2584 -0.1305
18456THY     HO42165   7.279   7.408   6.533 -2.2418  0.7832  0.3581
18456THY    CA142166   7.341   7.228   6.479  0.2762  0.1485  0.2706
18456THY    CA242167   7.310   7.104   6.436 -0.3167 -0.1210 -0.2258
18456THY    CP142168   7.162   7.087   6.388 -0.1151  0.2818 -0.2444
18456THY    HP142169   7.122   7.174   6.334 -1.5781 -1.8706 -2.1365
18456THY    CP242170   7.053   7.074   6.497 -0.0886 -0.1814 -0.2772
18456THY    HP242171   7.036   7.167   6.553 -1.6822 -0.6132 -0.2708
18456THY    HP342172   7.078   6.996   6.570 -1.0744  1.2582  0.7160
18456THY    HP442173   6.952   7.058   6.456 -0.7007  1.4192 -0.6721
18456THY    CP342174   7.139   6.966   6.291 -0.0969 -0.1854 -0.4733
18456THY    HP542175   7.179   6.871   6.330  0.6108 -0.3490 -0.2516
18456THY    HP642176   7.203   6.971   6.203  0.3255  0.1684  0.5368
18456THY    HP742177   7.032   6.960   6.270 -0.6513  2.1431  0.1228
18456THY    CA342178   7.402   7.000   6.449  0.2190 -0.1485  0.5562
18456THY    HA342179   7.388   6.895   6.424  0.9325 -1.4936  0.7678
18456THY    CA442180   7.524   7.026   6.506 -0.1615 -0.7526  0.3583
18456THY    HA442181   7.588   6.942   6.527  0.2802 -1.2721  0.5612
18456THY    CA542182   7.560   7.152   6.544  0.1605  0.7215  0.1032
18456THY    CM142183   7.693   7.167   6.614  0.2795  0.0260  0.2064
18456THY    HM142184   7.701   7.092   6.694 -0.6418  2.4580  2.4954
18456THY    HM242185   7.701   7.266   6.663  2.6402 -1.5360  0.8676
18456THY    HM342186   7.773   7.164   6.540  1.3629  1.1242  1.0971
18456THY    CA642187   7.469   7.255   6.533 -0.4899  0.2286 -0.3685
18456THY    HA642188   7.491   7.345   6.590 -1.2040  0.1978 -0.1629
18457THY      O42189   1.491   2.929   4.207 -0.3758  0.8907 -0.1238
18457THY     HO42190   1.446   2.975   4.134  0.0277 -0.9941 -2.5194
18457THY    CA142191   1.512   3.014   4.304  0.1424  0.6129  0.5642
18457THY    CA242192   1.565   2.970   4.428  0.6980  0.2165  0.5396
18457THY    CP142193   1.593   2.823   4.449  0.5161  0.1138 -0.6512
18457THY    HP142194   1.543   2.759   4.375 -1.1278  1.2175 -0.7013
18457THY    CP242195   1.536   2.777   4.580  0.2754  0.0464  0.4820
18457THY    HP242196   1.585   2.805   4.674 -0.4886  1.3262 -2.1064
18457THY    HP342197   1.526   2.668   4.591 -1.0737  0.9307  0.6639
18457THY    HP442198   1.439   2.825   4.601  1.0468  2.8946  0.9786
18457THY    CP342199   1.741   2.790   4.448 -0.0498  0.2665  0.0492
18457THY    HP542200   1.779   2.826   4.352 -0.0782  1.0847  2.4529
18457THY    HP642201   1.773   2.685   4.443  0.0982  0.4399  0.0840
18457THY    HP742202   1.798   2.848   4.522  1.7501 -2.2254  1.6631
18457THY    CA342203   1.590   3.063   4.529 -0.3576  0.0580 -0.1891
18457THY    HA342204   1.644   3.035   4.619  0.0916 -0.6210 -1.5758
18457THY    CA442205   1.572   3.200   4.505  0.1716  0.0659  0.7148
18457THY    HA442206   1.597   3.275   4.580  0.9111 -0.3253  0.8693
18457THY    CA542207   1.530   3.241   4.378  0.3952  0.0089  0.1132
18457THY    CM142208   1.481   3.378   4.358  0.0560  0.0107 -0.4207
18457THY    HM142209   1.526   3.410   4.263 -0.2381 -0.4844 -1.4311
18457THY    HM242210   1.503   3.453   4.434  0.3879 -0.5425  0.0497
18457THY    HM342211   1.373   3.380   4.341 -0.0340  0.5941 -0.0821
18457THY    CA642212   1.493   3.147   4.279 -0.3959 -0.7304 -0.3199
18457THY    HA642213   1.463   3.190   4.184  0.9207 -0.7205  0.7183
18458THY      O42214   6.690   8.325   4.184 -1.3033  0.2986  0.1522
18458THY     HO42215   6.677   8.228   4.185  1.7940 -0.1637 -0.3920
18458THY    CA142216   6.824   8.328   4.155 -0.3850 -0.4077  0.5115
18458THY    CA242217   6.887   8.450   4.123  0.3714 -0.2062  0.2191
18458THY    CP142218   6.812   8.586   4.091  0.1536 -0.3909  0.9528
18458THY    HP142219   6.706   8.568   4.114  0.3667  0.0663  0.2340
18458THY    CP242220   6.834   8.620   3.947  0.2136 -0.0143 -0.4303
18458THY    HP242221   6.776   8.555   3.880 -1.1305  0.9727 -0.3008
18458THY    HP342222   6.940   8.611   3.921  0.4126  0.6108  0.0463
18458THY    HP442223   6.793   8.718   3.920 -0.2220  1.5154 -0.1729
18458THY    CP342224   6.861   8.703   4.181 -1.1490  0.1578  0.0508
18458THY    HP542225   6.785   8.781   4.167  0.8476 -0.4320  1.9862
18458THY    HP642226   6.958   8.740   4.148 -1.4859  0.0167  0.8405
18458THY    HP742227   6.867   8.682   4.288  2.5763  0.1783  0.7119
18458THY    CA342228   7.031   8.440   4.115 -1.0064 -0.3364  0.1258
18458THY    HA342229   7.089   8.526   4.082 -0.2257  1.1944  0.2271
18458THY    CA442230   7.102   8.322   4.149 -0.0532 -0.4690  0.4636
18458THY    HA442231   7.210   8.310   4.142 -0.1322 -1.2752  0.1385
18458THY    CA542232   7.027   8.208   4.178  0.1875 -0.3208  0.8449
18458THY    CM142233   7.105   8.083   4.219 -0.1538 -0.0362 -0.1803
18458THY    HM142234   7.123   8.020   4.131 -1.1465 -1.0642  0.9539
18458THY    HM242235   7.053   8.023   4.295 -0.0878  1.3610  1.4535
18458THY    HM342236   7.207   8.111   4.248 -0.0294 -0.1828 -0.4720
18458THY    CA642237   6.891   8.211   4.180  0.1900  0.7523 -0.0996
18458THY    HA642238   6.833   8.122   4.201 -0.1613 -1.5536 -0.4808
18459THY      O42239   4.268   1.176   4.743 -0.1918  0.7302 -0.3941
18459THY     HO42240   4.332   1.180   4.671 -3.6070 -2.6498 -0.5070
18459THY    CA142241   4.187   1.080   4.704 -0.0010  0.5269  0.0129
18459THY    CA242242   4.050   1.077   4.739 -0.3033 -0.5070  0.0098
18459THY    CP142243   3.992   1.179   4.832  0.4191 -0.9048 -0.0442
18459THY    HP142244   4.061   1.262   4.852 -1.1998 -0.1798  1.1810
18459THY    CP242245   3.956   1.108   4.963  0.0390  0.0791 -0.5894
18459THY    HP242246   4.026   1.029   4.992  1.0674 -0.1286  0.2211
18459THY    HP342247   3.864   1.052   4.948  0.3299 -0.2646 -0.9828
18459THY    HP442248   3.947   1.185   5.041  0.2195 -0.4240 -0.0549
18459THY    CP342249   3.866   1.249   4.770  0.6210  0.0309 -0.0151
18459THY    HP542250   3.897   1.287   4.671  2.7341  1.2285  1.6102
18459THY    HP642251   3.845   1.336   4.834 -0.2446  0.7772 -0.7552
18459THY    HP742252   3.778   1.184   4.763 -0.3796 -0.0683  1.2851
18459THY    CA342253   3.978   0.967   4.694 -0.2408 -0.0753 -0.0836
18459THY    HA342254   3.876   0.959   4.731 -0.2874  0.1229  1.2544
18459THY    CA442255   4.041   0.875   4.611 -0.3013 -0.1905  0.4776
18459THY    HA442256   3.973   0.801   4.571 -2.3813 -0.2669  2.3165
18459THY    CA542257   4.176   0.880   4.574  0.0466 -0.8222 -0.3660
18459THY    CM142258   4.230   0.782   4.482  0.6936  0.0133  0.7016
18459THY    HM142259   4.257   0.690   4.535 -0.6305  0.0879  0.3365
18459THY    HM242260   4.319   0.824   4.433  1.0455 -0.7838 -0.8866
18459THY    HM342261   4.167   0.757   4.396 -0.2175  1.0353 -0.6794
18459THY    CA642262   4.258   0.976   4.631  0.1221 -0.4700 -0.0262
18459THY    HA642263   4.366   0.977   4.619  0.0744 -0.9037 -0.1995
18460THY      O42264   1.609   5.571   6.498  0.0096  0.1993 -0.1207
18460THY     HO42265   1.600   5.572   6.594 -1.0150  0.1134  0.9917
18460THY    CA142266   1.493   5.522   6.444  0.1620 -0.1139 -0.8769
18460THY    CA242267   1.478   5.502   6.303  0.5890  0.1201 -0.1383
18460THY    CP142268   1.578   5.554   6.199  0.1937 -0.4971  0.8534
18460THY    HP142269   1.678   5.563   6.244 -0.5267  1.2901  0.4321
18460THY    CP242270   1.545   5.692   6.147  0.5568  0.2348  0.3796
18460THY    HP242271   1.445   5.681   6.103  0.1061  1.3160  0.0413
18460THY    HP342272   1.620   5.722   6.073  2.8227  1.0175 -2.8161
18460THY    HP442273   1.541   5.763   6.230 -0.7764  0.6351 -0.1257
18460THY    CP342274   1.605   5.454   6.091 -0.1143  0.5543  0.0954
18460THY    HP542275   1.587   5.349   6.115  0.6546 -0.8017 -0.3844
18460THY    HP642276   1.709   5.464   6.056  0.1744  1.0869 -0.8495
18460THY    HP742277   1.542   5.481   6.005  1.2027 -0.2221  0.8130
18460THY    CA342278   1.349   5.462   6.258 -0.2756 -0.0866  0.2634
18460THY    HA342279   1.315   5.456   6.155 -4.2537  1.1426 -1.7784
18460THY    CA442280   1.244   5.439   6.347  0.6632  0.4689  0.2825
18460THY    HA442281   1.148   5.418   6.301 -0.0187  1.2802  1.4923
18460THY    CA542282   1.263   5.449   6.485  0.9626  0.2177  0.2011
18460THY    CM142283   1.150   5.419   6.578 -0.2772 -0.3116  0.3627
18460THY    HM142284   1.153   5.310   6.587  0.3775 -1.2337  0.2989
18460THY    HM242285   1.049   5.437   6.538 -0.2116 -0.5012  0.2989
18460THY    HM342286   1.149   5.479   6.671  0.7955 -0.9862  1.4726
18460THY    CA642287   1.391   5.493   6.532  0.3290 -0.8414 -0.1606
18460THY    HA642288   1.419   5.506   6.636  0.8564 -1.1328  1.2407
18461THY      O42289   5.325   6.015   6.735  0.2612 -0.3361 -0.4627
18461THY     HO42290   5.326   6.110   6.714  0.6719 -0.2146 -0.4401
18461THY    CA142291   5.194   5.981   6.735 -0.3348  0.1056 -0.7141
18461THY    CA242292   5.132   5.948   6.854 -0.5597 -1.1206 -0.3704
18461THY    CP142293   5.210   5.960   6.987 -0.5738 -0.1922 -0.6581
18461THY    HP142294   5.318   5.951   6.971 -0.0966  1.3992  1.2980
18461THY    CP242295   5.183   5.859   7.092  0.0843 -0.1534  0.0969
18461THY    HP242296   5.080   5.870   7.125  0.0394  0.7014 -2.2805
18461THY    HP342297   5.242   5.882   7.181 -0.2728  0.2257 -0.4367
18461THY    HP442298   5.208   5.756   7.063  0.8142  1.9168 -0.3549
18461THY    CP342299   5.175   6.097   7.044  0.6659 -0.0354  0.9350
18461THY    HP542300   5.241   6.124   7.127 -0.4975  0.3725  2.7360
18461THY    HP642301   5.069   6.083   7.069 -0.1296 -3.3151  0.1834
18461THY    HP742302   5.181   6.178   6.969  0.8420  1.4672  2.3707
18461THY    CA342303   4.999   5.925   6.862  1.2576  0.7081 -0.0542
18461THY    HA342304   4.955   5.910   6.961  2.4749  1.4489  1.0647
18461THY    CA442305   4.921   5.919   6.744 -0.1212 -0.4241  0.5320
18461THY    HA442306   4.815   5.899   6.752 -0.2329  1.0457  1.5376
18461THY    CA542307   4.980   5.949   6.619 -0.8611 -0.2037  0.1250
18461THY    CM142308   4.903   5.950   6.487  0.4058  0.2421  0.3542
18461THY    HM142309   4.960   5.966   6.395 -1.0036 -0.7326  0.0038
18461THY    HM242310   4.820   6.021   6.497  1.2574 -0.7200  1.5260
18461THY    HM342311   4.855   5.853   6.470 -0.4945 -0.9490  0.9752
18461THY    CA642312   5.120   5.976   6.618  0.7867  0.7503 -0.2697
18461THY    HA642313   5.157   5.995   6.518 -0.0366  0.6771  1.0161
18462THY      O42314   6.348   5.914   4.846 -0.9199 -0.3437 -0.0310
18462THY     HO42315   6.417   5.871   4.793  0.7483  0.1666  1.8663
18462THY    CA142316   6.371   6.047   4.831 -0.4661 -0.3364  0.4948
18462THY    CA242317   6.284   6.148   4.869  0.2170 -0.3156 -0.5778
18462THY    CP142318   6.155   6.101   4.928  0.1234 -0.1769 -0.7295
18462THY    HP142319   6.132   6.000   4.892  1.0278 -0.8584 -0.7129
18462THY    CP242320   6.037   6.190   4.886  0.6112 -0.4809  0.0944
18462THY    HP242321   6.031   6.284   4.941  0.2400 -0.1480 -0.1217
18462THY    HP342322   5.943   6.137   4.903  0.4227  1.4667  0.9615
18462THY    HP442323   6.041   6.208   4.778  1.5827 -0.4972 -0.1409
18462THY    CP342324   6.171   6.095   5.084  0.1976  0.0091  1.0235
18462THY    HP542325   6.236   6.008   5.098 -3.1705 -3.1725 -2.4342
18462THY    HP642326   6.084   6.066   5.145  0.3995 -0.1928 -0.0603
18462THY    HP742327   6.213   6.190   5.117  0.3603 -0.7707  1.2341
18462THY    CA342328   6.319   6.282   4.854  0.1904 -0.4982 -0.3256
18462THY    HA342329   6.255   6.362   4.891  0.6021 -0.6181  0.0649
18462THY    CA442330   6.447   6.319   4.818  0.4690  0.6678 -0.0575
18462THY    HA442331   6.488   6.419   4.808  1.9478  2.0394 -0.4755
18462THY    CA542332   6.531   6.220   4.770 -0.2162 -0.5437  0.3580
18462THY    CM142333   6.671   6.266   4.733 -0.0002  0.2786  0.3359
18462THY    HM142334   6.699   6.355   4.790  0.8654 -1.1311  0.9872
18462THY    HM242335   6.687   6.300   4.630 -0.9077 -0.1328 -0.4235
18462THY    HM342336   6.741   6.183   4.743 -1.5576 -1.9269 -1.3653
18462THY    CA642337   6.497   6.084   4.784  0.3722 -0.2161 -0.2681
18462THY    HA642338   6.575   6.011   4.764 -0.3810 -0.0708 -1.1294
18463THY      O42339   4.169   6.129   7.874  0.0147 -0.2501 -0.3436
18463THY     HO42340   4.080   6.155   7.846 -0.3504  1.2033  0.0760
18463THY    CA142341   4.246   6.101   7.769 -0.0480  0.1589  0.4614
18463THY    CA242342   4.357   6.012   7.770 -0.1699 -0.1305 -0.2253
18463THY    CP142343   4.383   5.940   7.910  1.1197  0.9663 -0.7067
18463THY    HP142344   4.320   5.990   7.985 -0.9327 -2.0023  1.4708
18463THY    CP242345   4.534   5.957   7.944  0.4252  0.0475 -0.3876
18463THY    HP242346   4.555   5.909   8.040 -3.7891  1.5071  0.2022
18463THY    HP342347   4.556   6.064   7.950  0.1387 -1.7537 -0.2010
18463THY    HP442348   4.584   5.915   7.856  0.9328  0.2788 -0.2713
18463THY    CP342349   4.341   5.795   7.908  0.3806  0.5147  0.5127
18463THY    HP542350   4.426   5.742   7.865 -0.0078  0.8325 -0.3918
18463THY    HP642351   4.243   5.783   7.861 -0.6622  2.6695  0.0336
18463THY    HP742352   4.329   5.749   8.007  0.8951 -0.6123 -2.1654
18463THY    CA342353   4.429   5.993   7.653  0.3204 -0.2461  0.2651
18463THY    HA342354   4.509   5.919   7.647  0.9097 -0.0257  0.8712
18463THY    CA442355   4.382   6.048   7.534 -0.1836 -0.7354 -0.4283
18463THY    HA442356   4.423   6.026   7.436 -0.5865 -1.0733  0.2939
18463THY    CA542357   4.277   6.134   7.530  0.0164 -0.3070  0.3613
18463THY    CM142358   4.225   6.186   7.399  0.3600  0.2521  0.2859
18463THY    HM142359   4.275   6.141   7.312  3.2833  1.4429  1.0003
18463THY    HM242360   4.242   6.294   7.387  1.7984  0.2728  0.0757
18463THY    HM342361   4.117   6.168   7.397  0.4387 -1.4757 -0.1423
18463THY    CA642362   4.210   6.163   7.652 -0.9727  0.1438 -1.0132
18463THY    HA642363   4.131   6.237   7.646  0.1550 -0.1149  0.2159
18464THY      O42364   4.706   1.220   4.766  0.3067  0.2475 -0.7050
18464THY     HO42365   4.671   1.158   4.832 -3.1335 -0.2745  0.4757
18464THY    CA142366   4.763   1.140   4.684  0.2266 -0.1087  0.0365
18464THY    CA242367   4.860   1.177   4.595 -0.9173 -0.7037  0.2068
18464THY    CP142368   4.933   1.307   4.594  0.2454  0.5829 -0.5405
18464THY    HP142369   4.893   1.366   4.677  0.2024 -1.3082  2.3309
18464THY    CP242370   4.913   1.374   4.462  0.3453 -0.2227  1.0105
18464THY    HP242371   4.970   1.467   4.471  1.7530 -0.5660  0.2219
18464THY    HP342372   4.808   1.380   4.433  0.6645 -1.8283 -0.2923
18464THY    HP442373   4.964   1.328   4.376 -0.8327  0.1771 -1.1625
18464THY    CP342374   5.078   1.301   4.635 -0.6057  0.1174  0.0729
18464THY    HP542375   5.098   1.233   4.719  0.7000  1.4718  2.0361
18464THY    HP642376   5.114   1.397   4.673  0.1966  2.4940 -1.0888
18464THY    HP742377   5.141   1.276   4.549  0.3111  1.5530 -3.1734
18464THY    CA342378   4.911   1.079   4.502 -0.1232  0.0660  0.2182
18464THY    HA342379   4.982   1.106   4.425  0.8373  1.2513  1.1775
18464THY    CA442380   4.866   0.947   4.512  0.2503 -0.3573 -0.2226
18464THY    HA442381   4.911   0.870   4.450  1.6138 -3.1840  2.5936
18464THY    CA542382   4.777   0.911   4.604  0.4512  0.3154  0.4222
18464THY    CM142383   4.718   0.772   4.613 -0.1387  0.3526 -0.0882
18464THY    HM142384   4.610   0.777   4.593 -0.2500  0.7843 -0.6228
18464THY    HM242385   4.738   0.726   4.711 -2.0283 -0.0822 -2.0375
18464THY    HM342386   4.754   0.711   4.530 -0.0847  1.5176 -1.7030
18464THY    CA642387   4.722   1.007   4.688 -0.3726  0.1800 -0.1481
18464THY    HA642388   4.629   0.992   4.742 -1.0227 -0.0140  2.5175
18465THY      O42389   1.148   8.529   1.978 -0.1233 -0.0620 -0.0459
18465THY     HO42390   1.121   8.506   2.069  1.7480  0.3736 -0.7390
18465THY    CA142391   1.248   8.618   1.982  0.0948  0.0937 -0.1318
18465THY    CA242392   1.317   8.661   1.866 -0.6228  0.4742  0.2200
18465THY    CP142393   1.301   8.587   1.730  0.8494 -0.5976 -0.4043
18465THY    HP142394   1.237   8.499   1.742  1.3013  0.5333 -0.6057
18465THY    CP242395   1.427   8.526   1.675 -0.6993  0.0947  0.7007
18465THY    HP242396   1.471   8.603   1.611 -0.2040 -0.4788 -0.0480
18465THY    HP342397   1.399   8.448   1.603  0.2938  1.1528 -0.6795
18465THY    HP442398   1.508   8.484   1.736 -0.8610  0.3177  0.7081
18465THY    CP342399   1.239   8.689   1.631 -0.6729 -1.0933 -0.0487
18465THY    HP542400   1.154   8.729   1.688  0.5074  2.9400 -2.6498
18465THY    HP642401   1.209   8.650   1.533  1.0809 -2.3130  1.5031
18465THY    HP742402   1.305   8.776   1.622  0.2143  1.9531 -0.2565
18465THY    CA342403   1.408   8.763   1.877 -0.0673 -0.4487  0.1207
18465THY    HA342404   1.461   8.785   1.785  0.8923 -0.2569 -1.2357
18465THY    CA442405   1.427   8.839   1.996 -0.1755  0.3145  0.3019
18465THY    HA442406   1.493   8.925   2.001  2.5327 -1.3016 -1.5140
18465THY    CA542407   1.344   8.806   2.103  0.3000 -0.2968 -0.0776
18465THY    CM142408   1.357   8.887   2.234  0.0523  0.1810 -0.1522
18465THY    HM142409   1.461   8.902   2.264 -0.1534  0.4230  0.9072
18465THY    HM242410   1.311   8.831   2.317  0.6700  0.6011 -0.0475
18465THY    HM342411   1.311   8.985   2.217 -1.2916 -0.3856 -0.8485
18465THY    CA642412   1.255   8.696   2.098  0.1830  0.4449 -0.5055
18465THY    HA642413   1.190   8.680   2.183 -0.7277  0.4854  2.7029
18466THY      O42414   4.481   2.059   4.830  0.2556  0.1679 -0.1413
18466THY     HO42415   4.452   1.975   4.870  0.0746  0.2602 -0.0329
18466THY    CA142416   4.593   2.096   4.896  0.4281 -0.4437  0.8711
18466THY    CA242417   4.665   2.202   4.851 -0.1092  0.1207 -0.1433
18466THY    CP142418   4.651   2.264   4.715  0.1715  0.4824 -0.1854
18466THY    HP142419   4.570   2.201   4.676 -1.0096  2.0170  0.3234
18466THY    CP242420   4.780   2.246   4.634 -0.2414 -0.0789  0.0416
18466THY    HP242421   4.769   2.281   4.531  0.5476 -0.3942 -0.6093
18466THY    HP342422   4.807   2.140   4.630  1.4508 -1.1120  0.4683
18466THY    HP442423   4.866   2.299   4.676 -0.9933  0.5904  0.7629
18466THY    CP342424   4.609   2.411   4.712 -0.1510 -0.5493  0.2378
18466THY    HP542425   4.508   2.429   4.751  0.9823  2.2331  1.1978
18466THY    HP642426   4.622   2.446   4.609 -0.3425  0.2136  2.8111
18466THY    HP742427   4.684   2.470   4.766 -0.3403 -0.4350  0.3782
18466THY    CA342428   4.784   2.237   4.928 -0.5121  0.1897  0.5717
18466THY    HA342429   4.867   2.300   4.897  0.1027  0.2752 -0.1746
18466THY    CA442430   4.809   2.169   5.048  1.1208  0.8634  0.3422
18466THY    HA442431   4.895   2.204   5.105  2.4645 -1.9273  1.9281
18466THY    CA542432   4.721   2.083   5.108  0.1616  0.6546 -0.8437
18466THY    CM142433   4.755   2.021   5.247 -0.0556  0.6312  0.0364
18466THY    HM142434   4.691   2.074   5.319 -0.7838 -0.7611  1.1444
18466THY    HM242435   4.860   2.029   5.276  0.2900 -0.3718 -0.6215
18466THY    HM342436   4.726   1.916   5.255 -1.7613  4.5515  0.6104
18466THY    CA642437   4.612   2.045   5.027  0.6522 -0.0873 -0.1751
18466THY    HA642438   4.549   1.967   5.068  0.2371  0.9556  0.6810
18467THY      O42439   1.185   1.246   6.623 -0.2427 -0.3612  0.1392
18467THY     HO42440   1.203   1.325   6.569 -0.8241 -0.5200  0.1749
18467THY    CA142441   1.226   1.275   6.749  0.7921  0.4394  0.1228
18467THY    CA242442   1.292   1.194   6.840  0.4399  0.7356  0.2505
18467THY    CP142443   1.318   1.051   6.784 -0.4565 -0.3055  0.0394
18467THY    HP142444   1.321   1.051   6.675 -1.6305 -0.3516  0.8210
18467THY    CP242445   1.204   0.959   6.841 -1.3289  0.3055  0.2960
18467THY    HP242446   1.200   0.978   6.949  0.1505  0.5144 -0.4101
18467THY    HP342447   1.232   0.853   6.829 -0.1789  0.5440  0.5516
18467THY    HP442448   1.116   0.992   6.784 -0.8543 -0.0977  0.8931
18467THY    CP342449   1.452   0.987   6.837 -0.1091  0.6668 -0.2416
18467THY    HP542450   1.539   1.048   6.809 -0.1769 -1.1527 -0.9106
18467THY    HP642451   1.469   0.886   6.798 -1.1018  0.1794 -0.2325
18467THY    HP742452   1.452   0.986   6.946 -1.1658  0.6747 -0.6180
18467THY    CA342453   1.337   1.244   6.964 -0.3937  0.1735 -0.0472
18467THY    HA342454   1.394   1.187   7.037 -0.0078 -1.6283 -2.0915
18467THY    CA442455   1.303   1.376   7.005  0.3131 -0.3402 -0.0025
18467THY    HA442456   1.334   1.412   7.102 -1.4017  0.2696 -0.0933
18467THY    CA542457   1.233   1.457   6.911  0.0242 -0.3986  0.3798
18467THY    CM142458   1.197   1.595   6.954  0.0830  0.8111 -0.1462
18467THY    HM142459   1.186   1.603   7.063  1.8160  1.0334 -0.4032
18467THY    HM242460   1.117   1.638   6.893  1.4220 -0.3841  0.7280
18467THY    HM342461   1.283   1.656   6.925  0.3883  0.7367 -0.6104
18467THY    CA642462   1.192   1.405   6.786 -0.6391  0.5349 -0.1055
18467THY    HA642463   1.139   1.467   6.714 -0.7371 -0.0602 -0.8686
18468THY      O42464   8.705   4.103   2.273 -0.0640 -1.0256  0.0571
18468THY     HO42465   8.736   4.028   2.326 -1.3315 -0.9904 -0.4671
18468THY    CA142466   8.613   4.169   2.341  0.2350 -0.2766 -0.2950
18468THY    CA242467   8.600   4.308   2.327  0.2757 -0.7594 -0.1653
18468THY    CP142468   8.662   4.398   2.211 -0.0949 -0.3531  0.0793
18468THY    HP142469   8.726   4.336   2.147  0.7082  1.4187 -0.9940
18468THY    CP242470   8.765   4.498   2.273  0.5156  0.3779 -0.7325
18468THY    HP242471   8.716   4.589   2.310  1.2115 -0.8627  0.1700
18468THY    HP342472   8.829   4.535   2.193 -2.4755 -2.0282 -0.3716
18468THY    HP442473   8.818   4.438   2.348 -0.3721  1.2795 -0.4377
18468THY    CP342474   8.551   4.473   2.134 -0.0675  0.0805  0.2597
18468THY    HP542475   8.471   4.403   2.105  0.3613 -1.3046  0.3248
18468THY    HP642476   8.602   4.516   2.047 -0.3951 -0.8964 -1.2211
18468THY    HP742477   8.497   4.547   2.194 -1.4375 -0.5938 -0.1541
18468THY    CA342478   8.521   4.370   2.428  0.4982 -0.6416 -0.3673
18468THY    HA342479   8.506   4.476   2.443  0.7622  0.5627 -0.4903
18468THY    CA442480   8.445   4.288   2.523  0.3818  1.1997 -0.8983
18468THY    HA442481   8.373   4.348   2.578  0.6072 -0.0794  0.6268
18468THY    CA542482   8.450   4.151   2.518  0.7035 -0.2344 -0.0862
18468THY    CM142483   8.373   4.061   2.607 -0.2358 -0.4331  0.0855
18468THY    HM142484   8.360   3.971   2.546  0.6009 -2.0991  1.0440
18468THY    HM242485   8.279   4.104   2.642  0.5350  1.5859  0.2457
18468THY    HM342486   8.422   4.042   2.703 -1.1290 -0.0826 -0.4898
18468THY    CA642487   8.543   4.094   2.436  0.1255  0.3281 -0.5854
18468THY    HA642488   8.553   3.986   2.441 -1.2686  1.6132 -0.6786
18469THY      O42489   6.060   3.787   2.958  0.8831 -0.5125 -0.0384
18469THY     HO42490   6.006   3.810   3.036  2.8537  0.8189  0.4339
18469THY    CA142491   6.118   3.674   3.003 -1.5601 -0.1318 -0.7299
18469THY    CA242492   6.193   3.597   2.915 -0.0068 -0.3686 -0.8034
18469THY    CP142493   6.212   3.634   2.768  0.3539 -0.1958  0.3042
18469THY    HP142494   6.163   3.725   2.732 -0.4019 -0.2993 -0.1357
18469THY    CP242495   6.173   3.510   2.677  0.2218 -0.6308  0.4688
18469THY    HP242496   6.244   3.427   2.674 -1.6134 -0.3266 -1.1822
18469THY    HP342497   6.133   3.531   2.577  0.5928 -0.5556  1.5751
18469THY    HP442498   6.093   3.457   2.730  1.4806 -0.0061 -0.8734
18469THY    CP342499   6.355   3.668   2.742 -0.0505  0.3707 -0.2566
18469THY    HP542500   6.372   3.700   2.638  3.5309  0.8474 -0.1133
18469THY    HP642501   6.407   3.572   2.750 -1.4535 -0.8394 -1.1612
18469THY    HP742502   6.398   3.748   2.803 -0.9065  1.5469 -0.6794
18469THY    CA342503   6.261   3.482   2.963 -0.7246 -0.8180  0.1833
18469THY    HA342504   6.322   3.421   2.898  0.1925 -0.5446  0.7789
18469THY    CA442505   6.254   3.457   3.102 -0.3521 -0.1662 -0.1280
18469THY    HA442506   6.310   3.377   3.149 -0.8899  1.0025  0.1659
18469THY    CA542507   6.177   3.540   3.192 -0.0194  0.6077 -0.0142
18469THY    CM142508   6.177   3.508   3.336  0.1237 -0.3284 -0.3708
18469THY    HM142509   6.119   3.581   3.394 -1.7734 -0.1281 -1.9570
18469THY    HM242510   6.277   3.491   3.376  0.2248 -0.3547  0.1447
18469THY    HM342511   6.117   3.417   3.340 -0.0602  0.0423 -0.2363
18469THY    CA642512   6.113   3.651   3.143 -0.6138 -0.1802  0.0547
18469THY    HA642513   6.061   3.720   3.209  0.3575 -0.7183  1.3419
18470THY      O42514   0.779   4.102   3.120 -0.1061 -0.0620  0.5210
18470THY     HO42515   0.843   4.132   3.185 -0.0675 -0.2555  0.8593
18470THY    CA142516   0.655   4.072   3.166  0.3832 -0.0009 -0.7951
18470THY    CA242517   0.544   4.053   3.077  0.5154  0.1537  0.2597
18470THY    CP142518   0.565   4.073   2.926 -0.3558  0.3445  0.1730
18470THY    HP142519   0.644   4.146   2.903  1.7329  0.5161 -1.9086
18470THY    CP242520   0.433   4.125   2.864  0.1799 -0.2128 -0.4942
18470THY    HP242521   0.452   4.157   2.761  1.8601  0.3558  0.4675
18470THY    HP342522   0.387   4.212   2.913 -1.0646  0.2962 -1.4076
18470THY    HP442523   0.354   4.049   2.858 -0.1655 -0.5471 -0.1090
18470THY    CP342524   0.615   3.940   2.862  0.0929 -0.0089  0.5312
18470THY    HP542525   0.657   3.957   2.761  2.2269  1.0794  2.3280
18470THY    HP642526   0.541   3.860   2.857 -1.1253 -3.3456  1.6994
18470THY    HP742527   0.699   3.901   2.922 -0.4742 -0.6337 -1.8009
18470THY    CA342528   0.422   4.011   3.136 -0.6505 -0.0438  0.0323
18470THY    HA342529   0.341   3.985   3.068 -0.4119 -1.0862  1.8462
18470THY    CA442530   0.411   3.995   3.276  0.4533 -0.2619 -0.0230
18470THY    HA442531   0.317   3.962   3.319  0.3474 -0.9723 -0.6757
18470THY    CA542532   0.518   4.022   3.356 -0.7629 -0.2254 -0.0682
18470THY    CM142533   0.512   4.013   3.514 -0.3083  0.1258 -0.4179
18470THY    HM142534   0.508   4.117   3.548 -1.6962  0.9494 -0.7058
18470THY    HM242535   0.596   3.957   3.558 -0.9688  1.4679 -0.4067
18470THY    HM342536   0.420   3.964   3.547 -1.4561 -0.7210  1.0839
18470THY    CA642537   0.640   4.060   3.301  0.2861 -0.0132  0.5584
18470THY    HA642538   0.729   4.077   3.362 -0.1377  0.7589  0.0534
18471THY      O42539   9.088   2.284   6.477 -0.3771  0.5259 -0.0075
18471THY     HO42540   9.067   2.192   6.454 -3.9197 -2.2159  1.2133
18471THY    CA142541   9.022   2.367   6.392  0.8245 -0.3871  0.2037
18471THY    CA242542   8.994   2.501   6.439  0.3086 -0.1327  0.0499
18471THY    CP142543   9.044   2.543   6.574 -0.0425 -0.1113  0.2755
18471THY    HP142544   9.143   2.504   6.597 -0.5629  1.1253 -0.3781
18471THY    CP242545   8.936   2.488   6.673 -0.2258 -0.7622  0.4257
18471THY    HP242546   8.910   2.383   6.655 -0.7764 -0.0761  0.4392
18471THY    HP342547   8.841   2.542   6.670 -1.3923 -2.3054 -1.5763
18471THY    HP442548   8.983   2.486   6.773 -0.7769 -0.5025 -0.7884
18471THY    CP342549   9.035   2.689   6.601  0.0861 -0.0504 -0.2701
18471THY    HP542550   9.088   2.702   6.696 -1.4219  0.8948 -0.6599
18471THY    HP642551   8.933   2.729   6.613  1.0539 -2.0947  3.1607
18471THY    HP742552   9.079   2.733   6.511 -1.4670 -1.2710 -1.1113
18471THY    CA342553   8.908   2.581   6.363 -0.3419 -0.2154 -1.0597
18471THY    HA342554   8.870   2.677   6.397 -0.5512 -2.5011 -0.2647
18471THY    CA442555   8.877   2.535   6.231  0.1093 -0.5063  0.0493
18471THY    HA442556   8.829   2.605   6.163  2.8651 -2.3503  0.3310
18471THY    CA542557   8.912   2.410   6.184  0.1168 -0.5597 -0.7596
18471THY    CM142558   8.861   2.366   6.054  0.7888  0.2093  0.3980
18471THY    HM142559   8.943   2.339   5.987  0.0456 -1.0747  1.2344
18471THY    HM242560   8.801   2.442   6.004 -0.3291  2.6831  1.2454
18471THY    HM342561   8.799   2.277   6.064  3.1953 -0.8415 -1.5267
18471THY    CA642562   8.973   2.317   6.272 -0.0911  0.4716  0.3850
18471THY    HA642563   8.987   2.218   6.230  1.5428 -0.3156  0.9150
18472THY      O42564   6.889   2.732   3.927 -0.1063  0.3082 -0.0800
18472THY     HO42565   6.946   2.739   3.849  1.9773  1.7644 -0.0357
18472THY    CA142566   6.918   2.838   4.010 -0.6467  0.0489 -0.3185
18472THY    CA242567   6.833   2.867   4.116  0.1760  0.7947  0.7093
18472THY    CP142568   6.717   2.777   4.157  0.1096  0.1676 -0.6335
18472THY    HP142569   6.721   2.686   4.096  0.3783  1.2775 -1.3813
18472THY    CP242570   6.588   2.846   4.115  0.6553 -0.0676  0.3530
18472THY    HP242571   6.610   2.917   4.035  1.9076 -0.7774 -0.7691
18472THY    HP342572   6.543   2.899   4.200 -0.7304  0.6885 -1.8527
18472THY    HP442573   6.524   2.764   4.079 -0.7380 -0.0435  1.4027
18472THY    CP342574   6.708   2.733   4.310 -0.8098  0.7578  0.2344
18472THY    HP542575   6.806   2.690   4.332 -0.2573 -0.6503  0.6935
18472THY    HP642576   6.627   2.659   4.317 -1.1446 -1.5445  0.2947
18472THY    HP742577   6.690   2.823   4.371 -0.3286 -0.8990  1.5196
18472THY    CA342578   6.867   2.978   4.199  0.6222 -0.0987  0.5560
18472THY    HA342579   6.795   3.006   4.276 -0.9908 -0.8133 -1.3509
18472THY    CA442580   6.982   3.053   4.172 -0.9286  0.3435  0.0966
18472THY    HA442581   7.018   3.137   4.230  2.9495 -1.1946 -0.3231
18472THY    CA542582   7.062   3.018   4.060 -0.3159 -0.2689  0.2072
18472THY    CM142583   7.186   3.091   4.025  0.8736 -0.5771  0.0609
18472THY    HM142584   7.195   3.092   3.916 -1.2845 -0.7797  0.6617
18472THY    HM242585   7.273   3.042   4.071  0.1218 -1.4494 -2.2273
18472THY    HM342586   7.176   3.193   4.063  1.1457  1.8704 -0.7512
18472THY    CA642587   7.033   2.910   3.977  0.5169 -0.2308 -1.1539
18472THY    HA642588   7.103   2.882   3.900  0.5011 -0.4038 -0.7288
18473THY      O42589   5.977   1.816   6.733 -0.2004  0.7609 -0.0658
18473THY     HO42590   6.049   1.854   6.679 -0.1627  1.5582  1.0648
18473THY    CA142591   5.860   1.867   6.694  0.6764  0.1110 -0.0700
18473THY    CA242592   5.742   1.859   6.778 -0.3586  0.5521  0.1923
18473THY    CP142593   5.747   1.813   6.927  0.3644  1.3524 -0.4179
18473THY    HP142594   5.853   1.785   6.934  1.0678 -1.9888  0.9717
18473THY    CP242595   5.657   1.685   6.948 -0.1463  0.2367 -0.4219
18473THY    HP242596   5.663   1.653   7.053 -2.2452  0.8538  1.0086
18473THY    HP342597   5.682   1.602   6.881 -2.1152 -1.4734  0.2629
18473THY    HP442598   5.556   1.715   6.917  0.0618 -0.9829 -0.9286
18473THY    CP342599   5.718   1.921   7.029 -1.1631  0.4855  0.4953
18473THY    HP542600   5.757   1.886   7.125  0.3471 -0.5735 -0.9086
18473THY    HP642601   5.611   1.920   7.049 -1.0550  1.0880  0.9197
18473THY    HP742602   5.743   2.021   6.992 -2.9860  2.4596  1.7515
18473THY    CA342603   5.623   1.921   6.728  0.0797  0.8508  0.9477
18473THY    HA342604   5.533   1.932   6.787 -0.4150  0.1709  0.6524
18473THY    CA442605   5.613   1.940   6.588  0.0133 -0.1300  0.3513
18473THY    HA442606   5.520   1.974   6.543  0.8503 -0.7748  1.9055
18473THY    CA542607   5.726   1.931   6.509  0.2951 -1.1526 -0.2290
18473THY    CM142608   5.735   1.959   6.359  0.3156  0.7573 -0.6759
18473THY    HM142609   5.636   1.986   6.320  0.2651  1.6698  0.5297
18473THY    HM242610   5.765   1.866   6.309 -1.1054  0.6763 -1.1138
18473THY    HM342611   5.795   2.046   6.332  0.9296  1.8275 -0.7434
18473THY    CA642612   5.847   1.904   6.565  0.7451 -0.6493  0.3807
18473THY    HA642613   5.930   1.913   6.495  1.3997  0.3897  3.3837
18474THY      O42614   3.735   1.779   7.604  0.1135 -0.0921 -0.1753
18474THY     HO42615   3.746   1.692   7.563 -2.5827 -0.3476 -0.4843
18474THY    CA142616   3.700   1.759   7.732 -0.1697  0.3598  0.5186
18474THY    CA242617   3.731   1.856   7.829 -0.4795  0.1004 -0.9332
18474THY    CP142618   3.805   1.990   7.786 -0.1703  0.0381  0.7344
18474THY    HP142619   3.801   2.004   7.678 -0.4446  0.1559  1.5731
18474THY    CP242620   3.953   1.977   7.831 -0.4834  0.2201  0.3370
18474THY    HP242621   3.996   1.894   7.773 -0.7396 -1.1019  1.0982
18474THY    HP342622   3.967   1.955   7.937  2.8840 -0.3419 -0.7632
18474THY    HP442623   4.009   2.066   7.802  0.1189 -0.0456 -0.1203
18474THY    CP342624   3.738   2.112   7.856  0.1463  0.1620 -0.0196
18474THY    HP542625   3.744   2.117   7.965 -0.2617  0.1549  0.6758
18474THY    HP642626   3.630   2.112   7.839  0.2444 -1.0819 -2.5182
18474THY    HP742627   3.784   2.202   7.814 -1.1481  1.4371  1.2739
18474THY    CA342628   3.686   1.840   7.959 -0.2446  0.4169  0.0927
18474THY    HA342629   3.709   1.915   8.034 -1.2176 -0.3767  1.2344
18474THY    CA442630   3.610   1.725   7.987  0.2523 -0.4631 -0.2175
18474THY    HA442631   3.575   1.711   8.089 -0.3953 -0.6701 -0.1337
18474THY    CA542632   3.571   1.634   7.890 -0.2833 -0.5492 -0.6434
18474THY    CM142633   3.482   1.512   7.918 -0.1978  0.3613  0.6568
18474THY    HM142634   3.399   1.521   7.847  0.0432  0.3025  3.1656
18474THY    HM242635   3.438   1.513   8.018  1.1720  0.9950 -0.1928
18474THY    HM342636   3.535   1.416   7.914 -0.7888 -0.5084  0.3567
18474THY    CA642637   3.625   1.649   7.767 -0.3951 -1.1294  0.0860
18474THY    HA642638   3.602   1.572   7.694 -1.8669  1.1502 -1.7624
18475THY      O42639   3.662   6.937   4.621 -0.1917 -0.0260  0.4473
18475THY     HO42640   3.688   6.935   4.714  1.1748 -0.3546  1.2508
18475THY    CA142641   3.688   7.063   4.581  0.0539  0.0824  0.4186
18475THY    CA242642   3.669   7.098   4.441  0.3612 -0.4009  0.0391
18475THY    CP142643   3.627   6.995   4.336  0.0219  0.4544  0.5587
18475THY    HP142644   3.619   6.896   4.383  0.4543  0.4417  0.5192
18475THY    CP242645   3.735   6.985   4.224  0.0052  0.4124 -0.7508
18475THY    HP242646   3.837   6.970   4.260  0.4398 -1.2986 -2.2557
18475THY    HP342647   3.740   7.073   4.159 -0.6303  1.0321 -0.2452
18475THY    HP442648   3.718   6.901   4.155  2.3915  1.9909 -2.6877
18475THY    CP342649   3.494   7.025   4.258  0.0661  0.5511  0.4848
18475THY    HP542650   3.401   7.028   4.316 -0.2751  0.0107  2.7681
18475THY    HP642651   3.474   6.951   4.180 -0.1086  1.2882 -0.2485
18475THY    HP742652   3.506   7.121   4.206 -2.1522  1.8326  1.5565
18475THY    CA342653   3.686   7.236   4.412 -0.0742  0.3235 -0.2007
18475THY    HA342654   3.672   7.280   4.313 -0.0682  0.4432  0.0704
18475THY    CA442655   3.724   7.322   4.514  0.5534 -0.4939 -0.2573
18475THY    HA442656   3.726   7.428   4.492 -0.0694 -1.5941 -0.4567
18475THY    CA542657   3.758   7.278   4.645 -0.1339  0.4980 -0.1938
18475THY    CM142658   3.809   7.374   4.743 -0.3465  0.1830 -0.0107
18475THY    HM142659   3.879   7.451   4.710  0.2675 -0.1129 -0.6817
18475THY    HM242660   3.841   7.330   4.838 -1.3236  0.8923  0.7612
18475THY    HM342661   3.725   7.437   4.772  0.3496  2.1062  0.0826
18475THY    CA642662   3.734   7.153   4.679  0.5256 -0.0796 -0.1980
18475THY    HA642663   3.763   7.119   4.778  1.6556 -0.5878 -0.7746
18476THY      O42664   8.875   1.492   3.002  0.0636  0.0262  0.1522
18476THY     HO42665   8.885   1.396   2.995 -1.5595  0.0546 -0.0452
18476THY    CA142666   8.899   1.516   3.132  0.1966  0.1437 -0.0663
18476THY    CA242667   8.862   1.636   3.192 -0.2391 -0.0301 -0.3461
18476THY    CP142668   8.780   1.745   3.120 -0.3174  0.2223 -0.0650
18476THY    HP142669   8.809   1.724   3.016  1.1742  0.1788  1.8961
18476THY    CP242670   8.821   1.892   3.144 -0.3482  0.6570  0.1606
18476THY    HP242671   8.805   1.916   3.250 -2.9227  0.0301  1.6418
18476THY    HP342672   8.752   1.954   3.086  1.4433 -0.6350  1.0257
18476THY    HP442673   8.918   1.918   3.099  0.0371  0.7091 -1.1160
18476THY    CP342674   8.629   1.734   3.136  0.2451  0.3683 -0.7571
18476THY    HP542675   8.606   1.727   3.243 -0.8265  0.5583  3.2235
18476THY    HP642676   8.594   1.643   3.086 -3.7978  1.8059 -0.2191
18476THY    HP742677   8.574   1.820   3.095  1.9547 -0.5806 -0.0692
18476THY    CA342678   8.892   1.655   3.333 -0.0997 -0.1350  0.3903
18476THY    HA342679   8.848   1.744   3.379  2.8005 -2.7207  3.4274
18476THY    CA442680   8.972   1.556   3.400 -0.6837  0.0961  0.2231
18476THY    HA442681   8.996   1.566   3.506 -1.2207  0.3059 -0.5223
18476THY    CA542682   9.005   1.441   3.339  0.0515  0.0447  0.0912
18476THY    CM142683   9.060   1.318   3.407 -0.8432 -0.6397 -0.5620
18476THY    HM142684   8.988   1.236   3.397 -1.0943 -1.3187 -0.2681
18476THY    HM242685   9.075   1.319   3.516  0.8401 -0.7313  3.7248
18476THY    HM342686   9.161   1.306   3.366  0.9921  2.5996  2.0795
18476THY    CA642687   8.969   1.418   3.204  0.1849 -1.1926  0.0302
18476THY    HA642688   9.006   1.328   3.157 -0.4660 -1.1057 -0.2824
18477THY      O42689   5.458   5.146   7.151  0.1598 -0.5714 -0.6183
18477THY     HO42690   5.472   5.175   7.243 -2.9605 -0.2034  0.0510
18477THY    CA142691   5.566   5.084   7.093  0.5358 -0.2365  0.7708
18477THY    CA242692   5.574   5.062   6.953  0.0991  0.6322  0.1388
18477THY    CP142693   5.459   5.092   6.857 -0.4791  0.5584 -0.3534
18477THY    HP142694   5.376   5.142   6.908 -1.5566 -2.2454  0.9272
18477THY    CP242695   5.403   4.970   6.787 -0.0774  0.6752 -0.4077
18477THY    HP242696   5.360   4.897   6.857 -1.3390  1.5914  1.1405
18477THY    HP342697   5.485   4.924   6.730  1.7347  0.6119  2.6470
18477THY    HP442698   5.323   4.994   6.716 -0.1250  0.8149 -0.1455
18477THY    CP342699   5.502   5.199   6.747 -0.1408  0.3887 -0.1920
18477THY    HP542700   5.583   5.157   6.687 -0.3270 -0.7410  0.9979
18477THY    HP642701   5.539   5.288   6.799  1.4397 -0.6852 -0.1912
18477THY    HP742702   5.426   5.231   6.675 -0.3268  1.1291  1.1113
18477THY    CA342703   5.691   4.995   6.911  0.9677  1.5835 -0.3020
18477THY    HA342704   5.700   4.974   6.805  0.3541  1.5834 -0.6076
18477THY    CA442705   5.790   4.947   6.998 -0.0207  0.3792 -0.0545
18477THY    HA442706   5.881   4.897   6.966 -0.9295  2.0568 -3.0604
18477THY    CA542707   5.771   4.975   7.132  0.0659  0.8201  0.5306
18477THY    CM142708   5.880   4.939   7.229 -0.4910  0.2472  0.3138
18477THY    HM142709   5.858   4.844   7.279 -2.8592 -0.5509  0.3706
18477THY    HM242710   5.894   5.021   7.301 -1.2494 -1.1525  1.7245
18477THY    HM342711   5.970   4.924   7.170 -0.6465  0.1446 -0.2423
18477THY    CA642712   5.653   5.034   7.182 -0.4253 -0.3821 -0.1909
18477THY    HA642713   5.638   5.042   7.290 -1.2748 -0.3357 -1.9729
18478THY      O42714   8.857   5.218   4.901 -0.2327 -0.7755 -0.9063
18478THY     HO42715   8.835   5.245   4.991  0.8250 -0.8333  0.1940
18478THY    CA142716   8.741   5.175   4.849  0.1177 -0.1787 -0.5030
18478THY    CA242717   8.719   5.154   4.713  0.6031 -0.4800  0.0700
18478THY    CP142718   8.829   5.169   4.608 -0.4967  0.7586 -0.2684
18478THY    HP142719   8.912   5.219   4.658  0.2121  0.3032 -0.9648
18478THY    CP242720   8.782   5.261   4.489  0.5511  0.1557 -0.3673
18478THY    HP242721   8.864   5.293   4.425  0.3653  0.8444  1.6104
18478THY    HP342722   8.727   5.348   4.526 -1.0662  0.9002 -1.6400
18478THY    HP442723   8.708   5.217   4.421  1.4133 -2.6117  2.1280
18478THY    CP342724   8.874   5.038   4.553 -0.3154  0.1166 -0.8696
18478THY    HP542725   8.955   5.066   4.484 -1.3642 -0.5148  0.7660
18478THY    HP642726   8.792   4.989   4.499 -1.9092  1.0557  0.6471
18478THY    HP742727   8.911   4.969   4.630  0.7891 -0.9665 -1.5388
18478THY    CA342728   8.590   5.102   4.674  0.0365 -0.4436  0.7066
18478THY    HA342729   8.572   5.079   4.569  2.0213 -1.2608  2.4696
18478THY    CA442730   8.494   5.081   4.777  0.3399  0.0359  0.1326
18478THY    HA442731   8.396   5.043   4.750 -0.0763  1.2482  0.2976
18478THY    CA542732   8.520   5.100   4.910 -0.3655 -0.4994 -0.1517
18478THY    CM142733   8.436   5.053   5.021 -0.3605  0.1160 -0.5726
18478THY    HM142734   8.386   5.136   5.073  2.9466  2.6871  0.0347
18478THY    HM242735   8.499   4.999   5.093  1.7684 -3.3474 -3.0741
18478THY    HM342736   8.356   4.988   4.982 -2.8633 -0.1656  2.4177
18478THY    CA642737   8.647   5.147   4.945  0.7659 -0.2981  0.2022
18478THY    HA642738   8.679   5.140   5.049  0.1254 -0.1631 -0.9116
18479THY      O42739   8.353   3.349   4.755 -0.7452  0.3249  0.2702
18479THY     HO42740   8.388   3.364   4.844 -0.6060  0.1309  1.1872
18479THY    CA142741   8.276   3.461   4.728  0.1851  0.1075 -0.9020
18479THY    CA242742   8.257   3.516   4.598 -0.1671 -0.1970 -0.3076
18479THY    CP142743   8.316   3.447   4.481 -0.1409  0.9715 -0.2426
18479THY    HP142744   8.383   3.378   4.533  2.0385  1.0795  1.8171
18479THY    CP242745   8.395   3.530   4.387  0.2065  0.1180 -0.4558
18479THY    HP242746   8.341   3.609   4.332  1.7947  0.5592  1.0073
18479THY    HP342747   8.444   3.464   4.314  0.1140  0.2884 -0.7115
18479THY    HP442748   8.467   3.592   4.442 -0.3708 -0.1336  0.4614
18479THY    CP342749   8.221   3.357   4.394 -0.6643 -0.5251 -0.3181
18479THY    HP542750   8.263   3.304   4.308 -1.4114 -1.6141  0.8088
18479THY    HP642751   8.137   3.418   4.357  1.1169 -1.5730  1.6445
18479THY    HP742752   8.189   3.283   4.468  0.1482  0.2645  0.1031
18479THY    CA342753   8.192   3.643   4.581 -0.7577 -0.8935 -0.4719
18479THY    HA342754   8.173   3.693   4.487  0.9144 -0.5347  0.9510
18479THY    CA442755   8.147   3.706   4.701  0.4291 -0.0009  0.1600
18479THY    HA442756   8.101   3.804   4.696  0.5856 -1.3066  0.1857
18479THY    CA542757   8.172   3.649   4.827 -0.0486 -0.3841  0.5106
18479THY    CM142758   8.125   3.721   4.941  0.8131  0.0959 -0.0690
18479THY    HM142759   8.212   3.737   5.006  1.8717 -1.5109  1.0759
18479THY    HM242760   8.047   3.671   5.000  0.7870 -0.7631 -1.0717
18479THY    HM342761   8.086   3.821   4.919 -2.8158  1.8040 -0.9402
18479THY    CA642762   8.234   3.530   4.842  0.3970  0.1951  0.3193
18479THY    HA642763   8.257   3.493   4.941  1.6665 -0.0062  0.5207
18480THY      O42764   4.069   1.149   3.461  0.7885  0.1890 -0.2898
18480THY     HO42765   4.129   1.191   3.524  0.0076 -0.0071  1.1844
18480THY    CA142766   4.066   1.223   3.350  0.3950 -0.1021  0.1088
18480THY    CA242767   3.976   1.196   3.245  0.0876 -0.1727  0.2243
18480THY    CP142768   3.883   1.083   3.257  0.0176  0.4543 -0.5344
18480THY    HP142769   3.872   1.043   3.359 -0.5371  1.5670  2.2557
18480THY    CP242770   3.942   0.968   3.172 -0.1955 -0.5501  0.0095
18480THY    HP242771   3.878   0.879   3.179 -0.9534  0.5935  0.6278
18480THY    HP342772   4.036   0.935   3.218  0.1265 -1.6752 -0.6791
18480THY    HP442773   3.953   0.999   3.067  1.6402 -0.6372 -0.7887
18480THY    CP342774   3.745   1.128   3.207 -0.0258 -0.4371  0.0274
18480THY    HP542775   3.746   1.146   3.099  1.8732 -0.1961  1.7511
18480THY    HP642776   3.712   1.217   3.262  1.7107 -1.6672  1.5180
18480THY    HP742777   3.669   1.049   3.214  1.2442 -0.0426 -1.1918
18480THY    CA342778   3.988   1.277   3.132 -0.4822 -0.5895  0.8258
18480THY    HA342779   3.924   1.258   3.047 -0.4266 -0.2904 -0.8872
18480THY    CA442780   4.063   1.397   3.130  0.2006  0.5489 -0.6123
18480THY    HA442781   4.056   1.474   3.054  0.3461 -0.2492 -1.3683
18480THY    CA542782   4.145   1.425   3.241  0.6307 -0.2639  0.2867
18480THY    CM142783   4.207   1.556   3.256  0.6149  0.2061 -0.3012
18480THY    HM142784   4.201   1.586   3.362  1.3573  0.7508 -1.9463
18480THY    HM242785   4.143   1.626   3.201  0.4391 -0.4187 -0.9520
18480THY    HM342786   4.309   1.557   3.215  0.0094 -1.3601  1.1590
18480THY    CA642787   4.140   1.338   3.351  0.0353  0.2327  0.7134
18480THY    HA642788   4.184   1.368   3.445  0.1770 -0.0826  1.5190
18481THY      O42789   8.140   5.903   7.326 -0.1658 -0.3511  0.3882
18481THY     HO42790   8.073   5.925   7.393  0.3548 -1.0616  5.0191
18481THY    CA142791   8.075   5.921   7.207  1.0829 -0.5837 -0.5001
18481THY    CA242792   8.026   5.810   7.136  0.5251  1.1528 -0.2276
18481THY    CP142793   8.074   5.669   7.161  0.7684  0.4006 -0.5863
18481THY    HP142794   8.123   5.667   7.259  1.5652  0.0760  1.1484
18481THY    CP242795   8.193   5.641   7.073  0.7523  0.0180 -0.0789
18481THY    HP242796   8.161   5.663   6.970 -2.3076  0.2893 -2.6042
18481THY    HP342797   8.225   5.537   7.088  0.4026 -0.2233 -0.2224
18481THY    HP442798   8.284   5.693   7.106  1.8612 -1.1003 -1.2308
18481THY    CP342799   7.956   5.569   7.153  0.2860 -0.2466 -0.0367
18481THY    HP542800   7.864   5.605   7.201  1.0335 -0.6957  2.7816
18481THY    HP642801   7.982   5.479   7.209 -0.8727 -0.3193 -0.4301
18481THY    HP742802   7.944   5.547   7.047  1.8171 -0.0110 -2.2640
18481THY    CA342803   7.948   5.837   7.020  0.2525  0.8299  0.1371
18481THY    HA342804   7.909   5.755   6.960 -3.3601 -2.0648  3.6013
18481THY    CA442805   7.912   5.967   6.986 -0.7809  0.4307 -0.5535
18481THY    HA442806   7.846   5.983   6.901  0.7325 -0.6879 -0.0071
18481THY    CA542807   7.950   6.074   7.059 -0.0780 -0.0213  0.9298
18481THY    CM142808   7.905   6.202   7.018  0.1037 -0.2856 -0.3176
18481THY    HM142809   7.982   6.256   6.961 -0.1853  1.2596  1.8667
18481THY    HM242810   7.861   6.252   7.105  0.4644  0.3447 -1.0728
18481THY    HM342811   7.822   6.189   6.947  1.3135 -1.3900 -2.3693
18481THY    CA642812   8.030   6.054   7.174 -0.4907 -0.2135  0.5048
18481THY    HA642813   8.059   6.136   7.240  0.4502 -0.7518  0.6219
18482THY      O42814   7.574   5.001   3.951 -0.1413 -0.0719  0.1100
18482THY     HO42815   7.503   5.027   3.890  0.5218 -0.5747  0.7882
18482THY    CA142816   7.525   4.887   3.999  0.4664  0.1452  0.7440
18482THY    CA242817   7.605   4.805   4.077 -0.0184  0.8033 -0.4237
18482THY    CP142818   7.747   4.848   4.120 -0.2465 -0.0193  0.3671
18482THY    HP142819   7.775   4.944   4.075 -0.1355  0.0019  0.3448
18482THY    CP242820   7.859   4.746   4.065 -0.0314  0.2771 -0.0222
18482THY    HP242821   7.843   4.645   4.102 -2.3262 -0.0093  0.1900
18482THY    HP342822   7.957   4.781   4.099 -0.1359  0.6768 -0.1206
18482THY    HP442823   7.853   4.755   3.956 -2.3601  0.3768  0.2681
18482THY    CP342824   7.761   4.865   4.270 -0.4432  0.9052 -0.3862
18482THY    HP542825   7.862   4.847   4.308  0.7868 -1.8797  0.1875
18482THY    HP642826   7.684   4.808   4.324 -2.3875 -0.7665  0.5186
18482THY    HP742827   7.735   4.971   4.283  0.8122 -1.0710  0.2062
18482THY    CA342828   7.554   4.683   4.129  0.2511  0.5620  0.0821
18482THY    HA342829   7.615   4.624   4.197  0.0842  2.0296  1.5081
18482THY    CA442830   7.426   4.643   4.081 -0.4860 -0.1941  0.5956
18482THY    HA442831   7.395   4.543   4.109  1.1999 -0.2426  0.0315
18482THY    CA542832   7.349   4.727   4.003 -0.3682  0.1593 -0.3340
18482THY    CM142833   7.221   4.694   3.951 -0.5595  0.0084 -0.0994
18482THY    HM142834   7.144   4.690   4.029  0.3635  0.9456 -0.0010
18482THY    HM242835   7.240   4.605   3.889  1.0397 -1.1342  0.9683
18482THY    HM342836   7.169   4.764   3.885 -0.1477 -1.9853 -1.5470
18482THY    CA642837   7.391   4.852   3.964 -0.4083  0.0047 -0.2719
18482THY    HA642838   7.326   4.914   3.902 -2.5802 -0.1214 -2.5297
18483THY      O42839   4.216   4.209   5.396  0.4570 -0.0918  0.4782
18483THY     HO42840   4.185   4.293   5.434  1.1609  2.6216 -0.3824
18483THY    CA142841   4.348   4.210   5.426 -0.1030 -0.1617  0.2077
18483THY    CA242842   4.443   4.145   5.341  0.2893  0.4750 -0.1211
18483THY    CP142843   4.396   4.068   5.212 -0.2212 -0.0978 -0.3314
18483THY    HP142844   4.290   4.088   5.197 -0.5183  1.7529 -0.3492
18483THY    CP242845   4.415   3.917   5.234  0.4411 -0.4957  0.6050
18483THY    HP242846   4.521   3.894   5.248  0.7793  0.4109  2.5355
18483THY    HP342847   4.383   3.860   5.146 -2.3484  0.8927 -0.1418
18483THY    HP442848   4.353   3.880   5.316 -1.9074 -1.2195  2.6274
18483THY    CP342849   4.483   4.117   5.088 -0.1501  0.1576 -0.3778
18483THY    HP542850   4.577   4.062   5.086  0.0406  0.9254 -0.0860
18483THY    HP642851   4.506   4.223   5.099 -2.4543  0.4069  0.1483
18483THY    HP742852   4.426   4.092   4.997  0.3896 -0.1337 -0.5513
18483THY    CA342853   4.582   4.163   5.373 -0.3925  0.9055  0.1384
18483THY    HA342854   4.666   4.128   5.313  0.5406  1.3635  1.5127
18483THY    CA442855   4.617   4.239   5.482 -0.0298 -0.7020 -0.0992
18483THY    HA442856   4.719   4.228   5.516 -0.0252 -0.7871 -0.3321
18483THY    CA542857   4.521   4.294   5.566 -0.6260  0.4590  0.7790
18483THY    CM142858   4.569   4.394   5.671 -0.0517  0.3438  0.2000
18483THY    HM142859   4.501   4.473   5.703  0.5014 -0.1600  0.9008
18483THY    HM242860   4.653   4.455   5.635  0.0675  3.0997  1.8189
18483THY    HM342861   4.600   4.338   5.760 -1.2017  0.4454 -0.3028
18483THY    CA642862   4.388   4.275   5.541  0.0932 -0.5371  0.1316
18483THY    HA642863   4.323   4.323   5.613  0.7182  0.0687  0.0874
18484THY      O42864   8.715   4.035   3.438  1.1571 -0.5543  0.6236
18484THY     HO42865   8.795   4.081   3.470  0.1453  2.0552  0.7816
18484THY    CA142866   8.696   4.057   3.306 -0.1041 -0.3749 -0.6775
18484THY    CA242867   8.598   3.993   3.224  0.0252  0.3227 -0.7019
18484THY    CP142868   8.504   3.910   3.285  0.5860 -0.3294  0.2559
18484THY    HP142869   8.504   3.939   3.391  1.9850  0.0956 -1.0832
18484THY    CP242870   8.555   3.763   3.292 -0.2128  0.2110 -0.0486
18484THY    HP242871   8.652   3.759   3.342 -0.4878  0.7602  0.0049
18484THY    HP342872   8.562   3.719   3.192  0.0975  0.6690 -1.0693
18484THY    HP442873   8.476   3.703   3.339 -3.0564 -2.5885  1.2025
18484THY    CP342874   8.350   3.929   3.242 -0.1138 -0.1394 -0.3756
18484THY    HP542875   8.289   3.871   3.313  2.8352  2.4813 -0.5268
18484THY    HP642876   8.337   3.892   3.140 -0.3331  0.1466 -1.0920
18484THY    HP742877   8.321   4.035   3.253 -0.6166 -2.0134 -0.2880
18484THY    CA342878   8.587   4.035   3.090  0.4503 -0.2605  0.3277
18484THY    HA342879   8.512   3.991   3.025  0.4564  1.3933 -2.3426
18484THY    CA442880   8.683   4.123   3.030  0.6626 -0.1075 -0.3945
18484THY    HA442881   8.673   4.155   2.926 -0.6920 -0.0710 -0.6228
18484THY    CA542882   8.779   4.183   3.116 -0.1119  0.7166 -0.2304
18484THY    CM142883   8.891   4.262   3.051  0.7706 -0.5111  0.4058
18484THY    HM142884   8.945   4.312   3.133 -2.1394 -0.0235  3.0656
18484THY    HM242885   8.853   4.350   2.998  0.8266 -1.4816 -0.1469
18484THY    HM342886   8.952   4.194   2.990 -0.9608  1.7785 -3.5244
18484THY    CA642887   8.783   4.149   3.254 -0.3891 -0.4510  0.8393
18484THY    HA642888   8.864   4.193   3.312  0.8913 -1.4060 -0.1554
18485THY      O42889   4.707   0.996   6.109  0.1797  0.6272 -0.4120
18485THY     HO42890   4.766   0.921   6.125  2.2029 -1.9536  0.4659
18485THY    CA142891   4.631   0.966   5.999 -0.1113  0.0209  0.1810
18485THY    CA242892   4.607   1.059   5.892 -0.2832  0.0344  0.3238
18485THY    CP142893   4.684   1.191   5.881  1.0953  0.3512 -0.2795
18485THY    HP142894   4.765   1.197   5.954  0.1705  1.2713  2.2008
18485THY    CP242895   4.590   1.317   5.911  0.5954  0.5216 -0.1763
18485THY    HP242896   4.527   1.356   5.830  1.8458 -0.2489  0.3124
18485THY    HP342897   4.664   1.398   5.914  2.1629 -1.5870 -1.3941
18485THY    HP442898   4.532   1.312   6.004  0.3060  0.3684  0.3304
18485THY    CP342899   4.733   1.210   5.748 -0.3742  0.3025  0.2393
18485THY    HP542900   4.660   1.237   5.671 -0.3689  0.4678  0.7419
18485THY    HP642901   4.807   1.135   5.721  0.8690  1.7620  0.8712
18485THY    HP742902   4.810   1.286   5.766  0.4472  1.3530 -0.7953
18485THY    CA342903   4.504   1.032   5.799  0.6836 -0.2618  0.7359
18485THY    HA342904   4.497   1.096   5.713  3.6796 -0.0807  1.4665
18485THY    CA442905   4.437   0.913   5.808  0.1097  0.2952  0.2281
18485THY    HA442906   4.378   0.875   5.725  0.0411  0.3835  0.1433
18485THY    CA542907   4.484   0.815   5.896 -0.1493  0.9066  0.3515
18485THY    CM142908   4.411   0.677   5.894 -0.0089  0.4326 -0.2484
18485THY    HM142909   4.330   0.681   5.820  1.2108 -0.9185  2.4777
18485THY    HM242910   4.373   0.665   5.996  1.1646  1.0133  0.7825
18485THY    HM342911   4.480   0.595   5.871 -0.4545 -1.2924 -0.1798
18485THY    CA642912   4.570   0.846   5.998 -0.3108  0.3159  0.3906
18485THY    HA642913   4.587   0.777   6.081  1.5655  2.4107  3.1436
18486THY      O42914   4.975   1.931   4.978  0.4044 -0.2220 -0.1612
18486THY     HO42915   4.931   2.016   4.963 -1.2447 -0.1381 -0.9570
18486THY    CA142916   4.922   1.832   4.903 -0.5100  0.3807 -0.1643
18486THY    CA242917   4.957   1.693   4.922  0.1930 -0.2023 -0.1866
18486THY    CP142918   5.047   1.649   5.029 -0.2957  0.9203  0.0620
18486THY    HP142919   5.114   1.729   5.063  1.3979 -1.2364 -0.3375
18486THY    CP242920   5.140   1.534   4.986  0.0329  0.4947 -0.2214
18486THY    HP242921   5.192   1.553   4.892 -1.3002 -0.3496 -0.6122
18486THY    HP342922   5.082   1.441   4.976  1.6885 -2.1978 -1.0775
18486THY    HP442923   5.220   1.511   5.057  1.6456 -1.3168 -0.4149
18486THY    CP342924   4.975   1.601   5.153  0.2736 -0.0492  0.6409
18486THY    HP542925   4.912   1.514   5.131  1.6828  2.3499 -1.0974
18486THY    HP642926   4.913   1.680   5.198 -0.7050  0.4054 -0.3666
18486THY    HP742927   5.043   1.578   5.235 -1.9927  1.9801  0.7892
18486THY    CA342928   4.889   1.599   4.847  0.8840 -0.2933 -0.2771
18486THY    HA342929   4.905   1.492   4.861 -0.9095 -1.8913 -0.7994
18486THY    CA442930   4.802   1.628   4.743  0.0096 -0.1210 -0.8186
18486THY    HA442931   4.754   1.547   4.689 -1.0713  0.8851 -0.8765
18486THY    CA542932   4.756   1.762   4.734  0.5529  0.3488  0.1961
18486THY    CM142933   4.638   1.795   4.645 -0.4426 -0.2211 -0.4351
18486THY    HM142934   4.558   1.817   4.717 -2.1444 -0.5759 -4.6005
18486THY    HM242935   4.600   1.713   4.583  1.5726 -1.3265 -0.6047
18486THY    HM342936   4.656   1.884   4.584 -5.0334 -0.8198  0.3046
18486THY    CA642937   4.824   1.865   4.810  0.1337 -0.3077 -0.2807
18486THY    HA642938   4.795   1.967   4.788 -0.4057 -0.7103 -0.5184
18487THY      O42939   0.547   5.511   5.072 -0.0553 -0.4648 -0.0041
18487THY     HO42940   0.554   5.598   5.029 -0.7225 -0.7155 -0.0662
18487THY    CA142941   0.666   5.499   5.132  0.8190  0.4220 -0.0284
18487THY    CA242942   0.705   5.378   5.197  0.5032  0.9949 -0.3735
18487THY    CP142943   0.603   5.263   5.210  0.5282  0.8131 -0.1353
18487THY    HP142944   0.513   5.266   5.148 -0.4271  2.0581 -1.8590
18487THY    CP242945   0.551   5.253   5.354  0.1546 -0.1530 -0.2610
18487THY    HP242946   0.640   5.241   5.417 -0.3859  0.5690 -0.5336
18487THY    HP342947   0.485   5.167   5.371  0.5346 -0.3029 -0.5837
18487THY    HP442948   0.505   5.343   5.396  2.4214  0.1035  0.8456
18487THY    CP342949   0.671   5.134   5.167  0.5422  0.0081 -0.4665
18487THY    HP542950   0.610   5.047   5.196  0.9054  0.1249 -0.6880
18487THY    HP642951   0.773   5.122   5.206  0.2889  1.0488  0.5991
18487THY    HP742952   0.671   5.136   5.058 -1.9236 -0.0251  0.5261
18487THY    CA342953   0.824   5.373   5.261  0.6013 -0.7880 -0.1530
18487THY    HA342954   0.842   5.300   5.339  1.0982  2.2102  2.9280
18487THY    CA442955   0.918   5.476   5.251  0.0309  0.0115 -0.7271
18487THY    HA442956   1.014   5.473   5.301  0.3936 -0.5143  0.9116
18487THY    CA542957   0.886   5.596   5.181  0.6128 -0.2133  1.0124
18487THY    CM142958   0.978   5.713   5.164  0.4785 -0.4816  0.0859
18487THY    HM142959   1.006   5.741   5.267 -0.1586  0.9664 -3.8603
18487THY    HM242960   0.935   5.802   5.118  1.0730  0.2967  0.8028
18487THY    HM342961   1.069   5.688   5.108 -0.0719 -0.8298 -1.2535
18487THY    CA642962   0.758   5.604   5.120  0.6042  0.9138 -0.5745
18487THY    HA642963   0.738   5.694   5.062 -1.3255 -0.1446 -1.6312
18488THY      O42964   4.989   4.378   2.481 -0.2937 -0.2221 -0.2673
18488THY     HO42965   5.016   4.446   2.417 -0.5520 -1.5696 -1.3812
18488THY    CA142966   5.029   4.259   2.431 -0.8185 -0.8915  0.0608
18488THY    CA242967   5.074   4.161   2.524 -0.2832  0.2265 -0.1407
18488THY    CP142968   5.086   4.191   2.667  0.0341 -0.4685  0.4533
18488THY    HP142969   5.018   4.272   2.697  0.5100 -0.7183  0.9599
18488THY    CP242970   5.232   4.252   2.692  0.7145  0.3398  1.1543
18488THY    HP242971   5.243   4.273   2.799 -2.7690  1.8702 -3.2411
18488THY    HP342972   5.252   4.335   2.624  0.3509 -0.5809  0.5027
18488THY    HP442973   5.304   4.173   2.669  0.5321  0.5975  0.9110
18488THY    CP342974   5.051   4.072   2.760 -0.1871  0.0424  0.0943
18488THY    HP542975   5.079   4.110   2.858 -1.4706  0.0040  1.2443
18488THY    HP642976   5.114   3.983   2.751 -1.8275  0.0930 -1.1276
18488THY    HP742977   4.947   4.036   2.755 -0.1747 -1.6411  0.1936
18488THY    CA342978   5.118   4.040   2.473 -0.7715 -0.2909  0.1324
18488THY    HA342979   5.158   3.956   2.529 -1.0130 -1.9881 -1.1768
18488THY    CA442980   5.123   4.025   2.325  0.1263  0.0675 -0.6773
18488THY    HA442981   5.167   3.936   2.280 -1.2837 -0.7130 -1.0030
18488THY    CA542982   5.075   4.129   2.247  0.1753 -0.1451  0.7036
18488THY    CM142983   5.083   4.122   2.096 -0.8324 -0.4756 -0.5247
18488THY    HM142984   4.993   4.063   2.070 -0.4437  0.0528 -1.3713
18488THY    HM242985   5.167   4.052   2.085  0.2921  2.5614  0.1982
18488THY    HM342986   5.097   4.217   2.043 -1.5158  2.2019  1.1607
18488THY    CA642987   5.024   4.244   2.303 -0.0373  0.3964 -0.3911
18488THY    HA642988   5.001   4.322   2.231  1.2312 -1.2663 -1.4651
18489THY      O42989   1.846   9.119   6.379  0.2457 -0.2179  0.1070
18489THY     HO42990   1.789   9.065   6.437 -1.3862  0.1156  2.0442
18489THY    CA142991   1.764   9.220   6.336  0.4421 -0.5989 -0.2790
18489THY    CA242992   1.751   9.253   6.202  0.2418  0.5045  0.2321
18489THY    CP142993   1.824   9.177   6.092  0.1249  0.6875  0.2184
18489THY    HP142994   1.915   9.136   6.138  1.1599 -2.0747 -0.7995
18489THY    CP242995   1.884   9.262   5.981  0.0437 -0.4807 -0.2806
18489THY    HP242996   1.935   9.355   6.009 -0.7763 -1.0922  0.3683
18489THY    HP342997   1.796   9.314   5.941 -1.2426  4.4796  1.9355
18489THY    HP442998   1.944   9.202   5.912 -1.2280 -0.3369 -1.7717
18489THY    CP342999   1.741   9.065   6.028 -0.4430 -0.3314 -0.6267
18489THY    HP543000   1.708   9.012   6.118  2.5722  1.1438 -0.1703
18489THY    HP643001   1.798   8.998   5.963  0.4749  0.6139 -0.7793
18489THY    HP743002   1.656   9.100   5.968  1.4353 -2.5414  0.4036
18489THY    CA343003   1.653   9.340   6.162  0.9975  0.2378  0.0242
18489THY    HA343004   1.634   9.356   6.056  0.9559 -0.1532 -2.2926
18489THY    CA443005   1.575   9.406   6.256  0.3024 -0.2517  0.1737
18489THY    HA443006   1.499   9.477   6.224 -0.9781 -0.1689 -1.1156
18489THY    CA543007   1.580   9.378   6.388  0.6723 -0.4924  0.2334
18489THY    CM143008   1.488   9.454   6.487  0.1199 -0.5760 -0.3214
18489THY    HM143009   1.417   9.512   6.427  1.0506 -2.1596 -0.7467
18489THY    HM243010   1.542   9.525   6.550  1.1984 -2.9928  1.1416
18489THY    HM343011   1.442   9.384   6.557  0.5554  0.5119  0.4535
18489THY    CA643012   1.676   9.282   6.430  0.0540 -0.1382  0.0900
18489THY    HA643013   1.678   9.263   6.537  0.2870  0.4359  3.0262
18490THY      O43014   4.455   8.064   2.536 -0.2520 -0.1661 -0.2532
18490THY     HO43015   4.449   7.972   2.568  4.5826 -1.3412 -1.2569
18490THY    CA143016   4.530   8.116   2.632 -0.0285 -0.1164  0.2814
18490THY    CA243017   4.524   8.248   2.675  0.3880  0.2951  0.3893
18490THY    CP143018   4.410   8.334   2.611  0.0556 -0.6341 -0.3853
18490THY    HP143019   4.395   8.296   2.510 -0.7196  0.1818 -2.3909
18490THY    CP243020   4.445   8.473   2.583 -0.3551 -0.0776 -0.7353
18490THY    HP243021   4.362   8.526   2.536 -0.8976 -0.0503 -1.5479
18490THY    HP343022   4.541   8.472   2.529  0.7771  1.8749 -1.5679
18490THY    HP443023   4.463   8.513   2.683 -0.3809  0.1018 -1.1751
18490THY    CP343024   4.292   8.311   2.697 -0.0257 -0.1479 -0.5681
18490THY    HP543025   4.221   8.395   2.696 -2.3382  1.5260 -2.3488
18490THY    HP643026   4.325   8.303   2.801  0.1614 -0.3064 -2.1895
18490THY    HP743027   4.231   8.223   2.672 -1.7520 -0.9773  0.8018
18490THY    CA343028   4.621   8.289   2.766  0.3526  0.4035 -0.0224
18490THY    HA343029   4.607   8.394   2.792 -1.6408  0.8855 -0.3682
18490THY    CA443030   4.715   8.203   2.818 -0.0334  0.3650 -0.8725
18490THY    HA443031   4.794   8.222   2.891 -0.0584  0.6935 -1.9725
18490THY    CA543032   4.716   8.072   2.775  0.2689  0.6913 -0.4178
18490THY    CM143033   4.811   7.974   2.824  0.4062 -0.3200  0.1048
18490THY    HM143034   4.856   8.001   2.920 -1.6437  0.8185 -0.3276
18490THY    HM243035   4.903   7.966   2.765 -0.1908 -0.9732 -3.0188
18490THY    HM343036   4.765   7.875   2.834 -0.4293  1.5256  0.6335
18490THY    CA643037   4.626   8.032   2.680 -0.5574 -0.0612 -0.2308
18490THY    HA643038   4.650   7.932   2.646 -1.8177  1.0749 -0.9435
18491THY      O43039   9.100   9.270   3.812  0.2658 -0.1779  0.3376
18491THY     HO43040   9.101   9.295   3.718  1.0469  0.7601  4.5099
18491THY    CA143041   8.998   9.174   3.821 -0.5218  0.3837  0.4731
18491THY    CA243042   8.961   9.119   3.944  0.7351  1.2912  0.7206
18491THY    CP143043   9.019   9.147   4.084 -0.6103 -0.2484 -0.1446
18491THY    HP143044   9.037   9.255   4.090  1.8631 -1.1764 -0.4385
18491THY    CP243045   9.162   9.082   4.113 -0.8429 -0.4702  0.2532
18491THY    HP243046   9.142   8.976   4.130 -0.7646 -0.4947  0.2342
18491THY    HP343047   9.203   9.118   4.208  0.1584 -0.0389 -1.9173
18491THY    HP443048   9.232   9.087   4.028  1.3891  1.1547 -1.4544
18491THY    CP343049   8.932   9.115   4.200 -0.6908  0.1901 -0.7449
18491THY    HP543050   8.978   9.163   4.286  0.8677  0.0742 -1.9497
18491THY    HP643051   8.931   9.008   4.223  0.0324 -1.7587 -1.2184
18491THY    HP743052   8.831   9.153   4.181 -0.0281  0.1085  1.0444
18491THY    CA343053   8.858   9.023   3.937 -0.0443  0.5143  0.2941
18491THY    HA343054   8.828   8.965   4.024  1.7887  1.8480  1.2179
18491THY    CA443055   8.811   8.975   3.815  0.0344 -0.4088 -0.9100
18491THY    HA443056   8.738   8.895   3.814  1.0778  0.0759 -1.8877
18491THY    CA543057   8.851   9.031   3.696  0.4345  0.3263  0.2174
18491THY    CM143058   8.790   8.990   3.566 -0.1423  0.2042  0.3518
18491THY    HM143059   8.847   8.923   3.501  0.7447 -1.8044  2.8590
18491THY    HM243060   8.804   9.083   3.509 -1.4923  0.4921  0.7547
18491THY    HM343061   8.680   8.988   3.562 -0.1320 -2.5725  1.0478
18491THY    CA643062   8.945   9.136   3.698 -0.0561  0.3101  0.3915
18491THY    HA643063   8.988   9.167   3.603 -1.8672 -0.6911  0.0271
18492THY      O43064   3.111   5.126   3.715 -0.7442  0.3210 -0.0351
18492THY     HO43065   3.022   5.126   3.753 -1.1259 -0.5128  1.0934
18492THY    CA143066   3.149   4.998   3.692 -0.4527 -0.2387 -0.6967
18492THY    CA243067   3.281   4.960   3.680 -0.5018 -0.0997  0.5615
18492THY    CP143068   3.389   5.065   3.679 -0.4684  0.0184  0.2116
18492THY    HP143069   3.351   5.168   3.678 -0.9464 -0.3099  0.0374
18492THY    CP243070   3.483   5.049   3.554 -0.3440 -0.1877 -0.0281
18492THY    HP243071   3.561   5.124   3.571  0.0827  0.4615 -0.6015
18492THY    HP343072   3.422   5.085   3.471  0.8977 -0.4416  1.5584
18492THY    HP443073   3.531   4.952   3.534  1.0688 -1.9659  1.0010
18492THY    CP343074   3.469   5.049   3.808  0.0603  0.0483 -0.0104
18492THY    HP543075   3.517   4.951   3.822 -0.9551  0.0506 -0.5152
18492THY    HP643076   3.407   5.073   3.895 -0.1883  0.3898 -1.7730
18492THY    HP743077   3.545   5.127   3.819  1.0991  4.2308 -1.3765
18492THY    CA343078   3.308   4.822   3.674 -0.1247  0.0453  0.5064
18492THY    HA343079   3.410   4.784   3.680  0.5972  1.0040  2.4264
18492THY    CA443080   3.193   4.737   3.666  0.2564  0.8157  0.7862
18492THY    HA443081   3.201   4.628   3.660 -1.9697 -2.6634  0.6691
18492THY    CA543082   3.066   4.779   3.673  0.0363 -0.4860 -0.0410
18492THY    CM143083   2.946   4.681   3.674  0.4357  0.4326 -0.1108
18492THY    HM143084   2.849   4.726   3.696  0.3303  0.2516 -0.2477
18492THY    HM243085   2.961   4.599   3.745  1.4961 -0.7633 -0.9995
18492THY    HM343086   2.939   4.642   3.572  0.1156 -0.3633  1.9177
18492THY    CA643087   3.044   4.913   3.690 -0.2786  0.0748  0.1559
18492THY    HA643088   2.941   4.946   3.692 -0.2252 -0.9207  0.4031
18493THY      O43089   7.306   6.911   2.665 -0.3327 -0.8626 -0.1552
18493THY     HO43090   7.268   6.934   2.579 -3.3058 -0.7974 -3.8236
18493THY    CA143091   7.211   6.916   2.765  0.3036  0.1884  0.6581
18493THY    CA243092   7.247   6.904   2.900  0.1994  0.4714 -0.1149
18493THY    CP143093   7.393   6.868   2.933  0.2032 -0.4288  0.0270
18493THY    HP143094   7.437   6.801   2.859  0.6254 -0.1946  0.0440
18493THY    CP243095   7.418   6.803   3.078 -0.6934  0.3108 -0.3533
18493THY    HP243096   7.404   6.883   3.152  0.0538  0.5931 -0.4803
18493THY    HP343097   7.522   6.770   3.089  0.5596 -1.8074  2.4919
18493THY    HP443098   7.348   6.725   3.110  1.3560  4.3614 -0.8133
18493THY    CP343099   7.475   7.004   2.935  0.0695 -0.2854  0.1683
18493THY    HP543100   7.464   7.072   2.850 -1.3787  0.8669  1.4634
18493THY    HP643101   7.581   6.986   2.957 -0.3627  1.2571 -0.6267
18493THY    HP743102   7.434   7.062   3.019  1.5051  2.6471 -2.7570
18493THY    CA343103   7.154   6.929   3.003  0.2841  0.6854 -0.3368
18493THY    HA343104   7.179   6.933   3.108 -0.2551  0.7853  0.6124
18493THY    CA443105   7.023   6.961   2.964  0.0478 -0.0980 -1.0691
18493THY    HA443106   6.954   6.982   3.045 -0.6343 -1.3600  2.2234
18493THY    CA543107   6.978   6.961   2.830  0.2982  0.1637  0.1167
18493THY    CM143108   6.838   7.007   2.804 -0.3021 -0.0215  0.3333
18493THY    HM143109   6.792   7.068   2.883 -0.4288  0.6257 -0.5778
18493THY    HM243110   6.763   6.928   2.787  0.4080 -0.8462 -0.1776
18493THY    HM343111   6.847   7.075   2.718 -2.5061  1.6637  2.9499
18493THY    CA643112   7.076   6.940   2.735 -0.6235 -0.0610 -0.5487
18493THY    HA643113   7.046   6.957   2.633 -1.0402  0.2458  0.6508
18494THY      O43114   2.153   5.602   1.788  0.3673  0.1669  0.8306
18494THY     HO43115   2.224   5.565   1.844 -2.2208  2.7748 -0.6345
18494THY    CA143116   2.070   5.667   1.866  0.8326  0.0264  0.1998
18494THY    CA243117   1.937   5.679   1.826 -1.0238  0.5886  0.4980
18494THY    CP143118   1.884   5.611   1.700 -0.0559  0.2242  0.6230
18494THY    HP143119   1.962   5.594   1.625 -0.9298 -0.3020 -1.3911
18494THY    CP243120   1.772   5.694   1.625  0.0927 -0.0080 -0.0564
18494THY    HP243121   1.733   5.635   1.541  0.8292  1.3380 -2.6142
18494THY    HP343122   1.813   5.783   1.574 -0.5674  0.5189  0.5635
18494THY    HP443123   1.693   5.739   1.686  1.4910  0.8236  1.3720
18494THY    CP343124   1.832   5.472   1.734  0.3040  0.7321 -0.5016
18494THY    HP543125   1.904   5.407   1.787  0.9807 -0.6132 -0.8917
18494THY    HP643126   1.812   5.429   1.635  0.6393  0.3391  0.2296
18494THY    HP743127   1.736   5.469   1.787 -0.1088 -0.0240 -1.0904
18494THY    CA343128   1.855   5.744   1.922 -0.0069  0.3303 -0.1217
18494THY    HA343129   1.749   5.762   1.903 -0.1114  0.7924 -0.2401
18494THY    CA443130   1.911   5.812   2.033 -0.1172  0.1675  0.4405
18494THY    HA443131   1.837   5.855   2.100 -2.0391  0.4429 -2.9200
18494THY    CA543132   2.052   5.806   2.068 -0.5159  1.3184 -0.1664
18494THY    CM143133   2.111   5.876   2.187  0.3732  0.1545 -0.4753
18494THY    HM143134   2.133   5.981   2.165  0.3710 -0.1306 -0.5340
18494THY    HM243135   2.200   5.832   2.232  0.0795  2.8543  1.4228
18494THY    HM343136   2.046   5.881   2.275 -0.2025 -0.3154  0.9979
18494THY    CA643137   2.126   5.730   1.973 -0.4599  0.4326 -0.3890
18494THY    HA643138   2.232   5.711   1.992 -0.1416 -0.6591  0.1933
18495THY      O43139   8.271   4.484   4.897  0.6506  0.1472 -0.4091
18495THY     HO43140   8.235   4.573   4.913 -0.5984 -0.9736 -0.6706
18495THY    CA143141   8.406   4.494   4.904 -0.0557  0.0146 -0.3297
18495THY    CA243142   8.494   4.378   4.894 -0.8506  0.0851 -0.6712
18495THY    CP143143   8.428   4.246   4.864 -0.2580 -0.8322  0.0201
18495THY    HP143144   8.319   4.256   4.866 -0.1999  1.9901  1.3435
18495THY    CP243145   8.455   4.150   4.984 -0.7617  0.2566 -0.2940
18495THY    HP243146   8.560   4.132   5.007 -0.0394 -0.3211  2.7218
18495THY    HP343147   8.412   4.050   4.966 -0.0281  3.1207 -1.2317
18495THY    HP443148   8.408   4.186   5.076  0.6241  0.5874  0.7167
18495THY    CP343149   8.490   4.172   4.736  0.2236  0.0413  0.3274
18495THY    HP543150   8.476   4.235   4.647 -3.0047  0.4682  0.4038
18495THY    HP643151   8.446   4.073   4.722  1.1017 -0.0502 -0.0574
18495THY    HP743152   8.595   4.146   4.751 -0.6432  2.9623 -1.9375
18495THY    CA343153   8.633   4.398   4.906  0.1716  0.5811 -0.4332
18495THY    HA343154   8.693   4.308   4.897  0.9703 -2.0081  0.2799
18495THY    CA443155   8.679   4.527   4.932  0.2386  0.1949  0.0692
18495THY    HA443156   8.784   4.530   4.959  0.0333  1.0778 -0.1409
18495THY    CA543157   8.595   4.638   4.944  0.4235  0.0955 -0.2354
18495THY    CM143158   8.654   4.760   4.991 -1.6101 -0.4287  0.3833
18495THY    HM143159   8.677   4.830   4.910  0.8442  0.2625  0.4895
18495THY    HM243160   8.748   4.739   5.044 -2.6234  0.8137 -1.2461
18495THY    HM343161   8.592   4.811   5.065 -2.0724  0.2385 -1.0930
18495THY    CA643162   8.460   4.617   4.935  1.0380  0.0842  0.1613
18495THY    HA643163   8.388   4.698   4.939 -0.5803  2.0730 -1.2536
18496THY      O43164   6.457   5.931   2.252 -0.3937  0.0229  0.3580
18496THY     HO43165   6.393   5.880   2.305 -1.3411 -1.2708  0.1495
18496THY    CA143166   6.570   5.864   2.252 -0.7271  1.1344 -1.1308
18496THY    CA243167   6.698   5.923   2.270 -0.2534 -0.4926  0.7417
18496THY    CP143168   6.713   6.074   2.284  0.0612 -0.2608 -0.6205
18496THY    HP143169   6.632   6.117   2.224  0.8289 -0.8662  0.0305
18496THY    CP243170   6.824   6.133   2.214 -0.3398  0.5771  0.1488
18496THY    HP243171   6.912   6.113   2.277 -0.7753  0.8463 -0.9638
18496THY    HP343172   6.821   6.243   2.213  2.6472 -0.8904  0.3142
18496THY    HP443173   6.832   6.096   2.111 -0.0432 -0.1521  2.1079
18496THY    CP343174   6.703   6.136   2.424  0.1991  0.4136 -0.5467
18496THY    HP543175   6.714   6.244   2.415  2.5731  1.6850 -0.5997
18496THY    HP643176   6.780   6.093   2.490  0.6300  0.5659  0.4443
18496THY    HP743177   6.607   6.110   2.470  1.2610  2.7203 -0.6880
18496THY    CA343178   6.814   5.835   2.251  0.2866  0.1122  0.5477
18496THY    HA343179   6.917   5.869   2.250 -0.2407 -2.4750  2.3746
18496THY    CA443180   6.791   5.698   2.235 -0.0212  0.0637 -0.2410
18496THY    HA443181   6.875   5.633   2.215  0.5220 -1.0618  0.7646
18496THY    CA543182   6.665   5.644   2.236 -0.3445 -0.2038  0.4574
18496THY    CM143183   6.651   5.497   2.211  0.4409 -0.2467  0.1876
18496THY    HM143184   6.746   5.443   2.217  0.8550 -0.8489  0.8356
18496THY    HM243185   6.617   5.477   2.109  1.3212 -0.5378  0.1230
18496THY    HM343186   6.579   5.449   2.279 -0.3326 -0.4082  1.0925
18496THY    CA643187   6.558   5.728   2.241  0.2649  0.7996  0.5319
18496THY    HA643188   6.467   5.673   2.219  2.2405 -0.5150 -2.4851
18497THY      O43189   1.644   1.102   3.973 -0.2590  0.1050  0.1428
18497THY     HO43190   1.637   1.082   4.068 -3.9037 -0.0343  0.0652
18497THY    CA143191   1.752   1.185   3.955 -0.5120 -0.0741  1.0174
18497THY    CA243192   1.795   1.238   3.831  0.0102 -0.6344  0.7773
18497THY    CP143193   1.699   1.231   3.705 -0.3334  0.0457 -0.0969
18497THY    HP143194   1.605   1.185   3.738 -0.6230  0.2934  0.6547
18497THY    CP243195   1.771   1.147   3.602  0.2785  0.0388 -0.1512
18497THY    HP243196   1.845   1.214   3.558 -0.3503 -0.1343  0.4460
18497THY    HP343197   1.717   1.118   3.511  2.3612 -0.6740 -2.0314
18497THY    HP443198   1.811   1.062   3.658  0.3569 -1.2729 -1.0089
18497THY    CP343199   1.667   1.363   3.636  0.3065 -0.3774  0.2999
18497THY    HP543200   1.636   1.344   3.533  2.6853 -0.6834 -2.5258
18497THY    HP643201   1.753   1.430   3.649  1.9176 -1.0906 -1.5539
18497THY    HP743202   1.578   1.414   3.677 -0.0493  1.1250 -1.4211
18497THY    CA343203   1.921   1.306   3.823 -0.6661 -0.4989  0.1073
18497THY    HA343204   1.958   1.351   3.731  1.6288  1.5994  2.8604
18497THY    CA443205   1.996   1.320   3.947  0.0344 -0.1546  0.1826
18497THY    HA443206   2.089   1.375   3.958  0.0666  1.7274 -0.1815
18497THY    CA543207   1.956   1.251   4.063  0.1756 -0.0504 -0.3070
18497THY    CM143208   2.025   1.250   4.188 -0.3797 -0.1823  0.0441
18497THY    HM143209   2.120   1.306   4.190 -0.6035 -0.0943  0.4252
18497THY    HM243210   2.044   1.151   4.231  1.1224 -0.2369  0.2755
18497THY    HM343211   1.976   1.301   4.272 -0.5283 -0.4885  0.4063
18497THY    CA643212   1.837   1.180   4.063  0.4907 -0.4012 -0.4607
18497THY    HA643213   1.800   1.129   4.151 -2.7418 -1.7511 -0.6970
18498THY      O43214   7.575   0.631   7.124  0.5197  0.1666 -0.4610
18498THY     HO43215   7.577   0.573   7.202  0.0319  0.5421  0.0172
18498THY    CA143216   7.537   0.554   7.015 -1.0420 -0.0079 -0.2783
18498THY    CA243217   7.616   0.554   6.896  0.1582 -0.4032  0.0205
18498THY    CP143218   7.717   0.660   6.865 -0.3050  0.2661 -0.4378
18498THY    HP143219   7.735   0.716   6.958 -4.7971  1.4978 -0.5989
18498THY    CP243220   7.653   0.757   6.770 -0.3514  0.2853  0.2497
18498THY    HP243221   7.557   0.793   6.808 -2.2546 -2.6277 -1.4144
18498THY    HP343222   7.641   0.701   6.677  0.8634  0.7923 -0.9321
18498THY    HP443223   7.715   0.846   6.757 -2.5001  2.3800  2.1930
18498THY    CP343224   7.856   0.615   6.808  0.2943  0.4888  0.6376
18498THY    HP543225   7.932   0.694   6.810 -0.5582  4.0804  1.5776
18498THY    HP643226   7.844   0.570   6.709 -0.2006  0.8726 -0.0912
18498THY    HP743227   7.901   0.529   6.859  2.1176 -0.4910  0.9580
18498THY    CA343228   7.590   0.459   6.795  0.1267  0.1630  0.2497
18498THY    HA343229   7.633   0.461   6.696 -1.8040 -0.7419 -0.9480
18498THY    CA443230   7.499   0.363   6.815 -0.1765 -0.0637 -0.0641
18498THY    HA443231   7.488   0.291   6.735  2.0237 -0.1060 -0.4178
18498THY    CA543232   7.411   0.363   6.929 -0.5144  0.0402  0.6757
18498THY    CM143233   7.300   0.262   6.936  0.3058  0.4446  0.2095
18498THY    HM143234   7.343   0.162   6.918 -1.6117  1.0903 -0.7754
18498THY    HM243235   7.218   0.279   6.865 -1.7341  2.0573 -2.2603
18498THY    HM343236   7.256   0.259   7.036 -2.4846 -0.6725  0.4262
18498THY    CA643237   7.435   0.463   7.028  0.2846 -1.0428 -0.2791
18498THY    HA643238   7.381   0.454   7.122  3.0093  0.5377 -1.4246
18499THY      O43239   3.699   5.100   2.689 -0.2618  0.0624  0.3894
18499THY     HO43240   3.743   5.048   2.619 -1.0311 -0.7628  0.8264
18499THY    CA143241   3.800   5.123   2.782  0.5625  0.2515 -0.6242
18499THY    CA243242   3.813   5.250   2.849 -0.0426 -0.9578  0.4295
18499THY    CP143243   3.703   5.362   2.836  0.5638  0.1691  0.4720
18499THY    HP143244   3.627   5.315   2.771 -0.6713  1.7472  0.1696
18499THY    CP243245   3.757   5.474   2.751  0.3368 -0.1256 -0.7128
18499THY    HP243246   3.689   5.560   2.750  0.8503 -0.3505 -0.2988
18499THY    HP343247   3.768   5.440   2.647 -1.4018  0.1860 -2.3435
18499THY    HP443248   3.854   5.496   2.798  0.4794  1.4016 -4.0182
18499THY    CP343249   3.637   5.397   2.965  0.6058  1.0059 -0.2806
18499THY    HP543250   3.599   5.310   3.019 -0.1743  0.1725 -0.4852
18499THY    HP643251   3.552   5.466   2.961 -0.0561  2.3899 -0.9749
18499THY    HP743252   3.707   5.445   3.033  0.0248  0.3755  1.5310
18499THY    CA343253   3.924   5.269   2.933 -0.3563 -0.3425  0.0956
18499THY    HA343254   3.942   5.368   2.974  1.6310 -2.3314  0.6327
18499THY    CA443255   4.016   5.165   2.941 -0.7166 -0.1648  0.6351
18499THY    HA443256   4.109   5.176   2.997 -0.8027  0.0313  0.3819
18499THY    CA543257   4.006   5.047   2.873 -0.6427 -0.1799 -0.5543
18499THY    CM143258   4.100   4.928   2.896 -0.2156 -0.6553 -0.2142
18499THY    HM143259   4.042   4.837   2.883 -1.9565  1.0842  0.5917
18499THY    HM243260   4.151   4.918   2.992  0.9421 -1.2935 -0.7217
18499THY    HM343261   4.186   4.927   2.827  1.5238  1.3414  1.0881
18499THY    CA643262   3.899   5.028   2.789 -0.0944 -0.3685  0.1436
18499THY    HA643263   3.881   4.930   2.747 -1.4973  1.1454 -0.2816
18500THY      O43264   1.661   6.618   2.401 -0.6622  0.3232  0.9585
18500THY     HO43265   1.719   6.621   2.478  0.9761 -0.8498  0.9287
18500THY    CA143266   1.545   6.686   2.424  0.3324  0.4331  0.4536
18500THY    CA243267   1.415   6.620   2.406  0.2054 -0.6329 -0.8873
18500THY    CP143268   1.405   6.485   2.338  0.0169  0.5928  0.6051
18500THY    HP143269   1.494   6.437   2.381  0.7900 -0.2174  1.2577
18500THY    CP243270   1.429   6.503   2.182 -0.1131  1.1676 -0.5359
18500THY    HP243271   1.332   6.496   2.131  0.7248 -0.4017 -1.4086
18500THY    HP343272   1.476   6.410   2.148 -0.6031  3.2238 -1.5945
18500THY    HP443273   1.491   6.590   2.157 -1.1369  0.7533  0.0810
18500THY    CP343274   1.272   6.403   2.356  0.0600  0.3348 -0.0022
18500THY    HP543275   1.276   6.306   2.307  1.0366  0.4470 -0.0294
18500THY    HP643276   1.191   6.455   2.303  0.7275  0.7083  1.4732
18500THY    HP743277   1.260   6.387   2.464  0.9018  0.1265 -2.3371
18500THY    CA343278   1.300   6.696   2.441  0.3583  0.2180 -0.1980
18500THY    HA343279   1.201   6.652   2.438  0.4413  1.8453 -0.5875
18500THY    CA443280   1.317   6.820   2.491  0.5453  0.5265 -0.7772
18500THY    HA443281   1.230   6.878   2.520  1.5966 -0.0986  1.2182
18500THY    CA543282   1.440   6.888   2.504 -0.3832  0.4563  0.2768
18500THY    CM143283   1.453   7.028   2.558  0.2096 -0.8270  0.4489
18500THY    HM143284   1.467   7.094   2.472 -0.3713  0.6878  2.6527
18500THY    HM243285   1.544   7.031   2.619 -1.0712  1.3965 -1.7098
18500THY    HM343286   1.370   7.060   2.622  1.1907  0.7447 -0.0506
18500THY    CA643287   1.554   6.817   2.468  0.4887  1.0087  0.5426
18500THY    HA643288   1.653   6.861   2.475  1.6183 -0.2355 -1.6736
18501THY      O43289   1.177   7.314   1.687 -0.1816 -0.0122  0.6697
18501THY     HO43290   1.263   7.268   1.676  0.1668  2.0426  0.7516
18501THY    CA143291   1.203   7.443   1.725 -0.2163  0.6253 -0.3047
18501THY    CA243292   1.099   7.523   1.767  0.0927  0.2286 -0.2304
18501THY    CP143293   0.954   7.473   1.768  0.4637  0.1191  0.2282
18501THY    HP143294   0.934   7.380   1.714  0.5610  0.5815 -0.0636
18501THY    CP243295   0.857   7.582   1.726  0.0394  0.7143  0.1425
18501THY    HP243296   0.868   7.583   1.617  2.5824  0.9075 -0.2350
18501THY    HP343297   0.858   7.676   1.784  0.3496  2.4889 -0.9104
18501THY    HP443298   0.758   7.536   1.731  0.3187 -0.2565 -0.5954
18501THY    CP343299   0.920   7.431   1.911  0.1176  0.2665 -0.3723
18501THY    HP543300   1.004   7.377   1.954  2.1480 -3.0004 -0.0453
18501THY    HP643301   0.837   7.359   1.912 -0.2172  3.1001 -0.0554
18501THY    HP743302   0.901   7.521   1.971  0.3298  0.8657 -0.7241
18501THY    CA343303   1.128   7.646   1.831  0.2014  0.6488 -0.3252
18501THY    HA343304   1.054   7.691   1.897  0.4221 -0.1190  1.2057
18501THY    CA443305   1.258   7.690   1.828  0.0855 -1.0244  0.0397
18501THY    HA443306   1.288   7.783   1.876  2.6531  1.6695 -1.9773
18501THY    CA543307   1.360   7.612   1.774 -0.8017  0.0645  0.5568
18501THY    CM143308   1.501   7.665   1.786 -0.3537 -0.3615  0.5512
18501THY    HM143309   1.567   7.635   1.704  2.1495  1.5816  0.3976
18501THY    HM243310   1.530   7.606   1.874 -1.7118 -0.6106 -0.5490
18501THY    HM343311   1.502   7.773   1.802 -3.4470  3.2029  0.2274
18501THY    CA643312   1.334   7.483   1.729  0.1955 -0.1414  0.1001
18501THY    HA643313   1.409   7.422   1.680 -0.0623  0.2330 -0.5303
18502THY      O43314   0.717   5.654   7.412  0.1804  0.1918 -0.2321
18502THY     HO43315   0.741   5.629   7.321  2.1984  1.2770 -2.7271
18502THY    CA143316   0.695   5.787   7.415  1.2617 -0.1014  0.4321
18502THY    CA243317   0.664   5.853   7.528 -0.2529  0.1114  0.0755
18502THY    CP143318   0.667   5.788   7.668 -0.5216  1.3325 -0.4189
18502THY    HP143319   0.733   5.701   7.662  0.0504 -0.0217  0.0907
18502THY    CP243320   0.536   5.748   7.722 -0.0309 -0.2773  0.8391
18502THY    HP243321   0.491   5.671   7.658 -0.9397  2.5352 -1.1051
18502THY    HP343322   0.474   5.838   7.735  1.9249 -1.6781  2.4709
18502THY    HP443323   0.556   5.711   7.823 -0.8494 -1.1613 -2.2799
18502THY    CP343324   0.731   5.886   7.773  0.2900 -0.3748  0.8531
18502THY    HP543325   0.840   5.880   7.759  0.2770 -0.5422  1.0096
18502THY    HP643326   0.708   5.859   7.877 -0.1928 -0.0485  2.4251
18502THY    HP743327   0.685   5.985   7.772 -1.1681 -1.2692  0.1982
18502THY    CA343328   0.615   5.988   7.508  0.2385  0.4160  0.0512
18502THY    HA343329   0.570   6.037   7.594 -1.5867 -0.4994  0.0412
18502THY    CA443330   0.628   6.054   7.383 -0.2121 -0.2129  0.4791
18502THY    HA443331   0.606   6.160   7.372  2.2312  1.0465  1.2046
18502THY    CA543332   0.670   5.982   7.274 -0.1146 -0.4222  0.2203
18502THY    CM143333   0.662   6.037   7.132  0.7967 -0.0811  0.4974
18502THY    HM143334   0.750   5.993   7.084 -0.8571 -3.8200  0.7930
18502THY    HM243335   0.685   6.144   7.140  0.7113 -1.3856  0.6314
18502THY    HM343336   0.573   6.015   7.072  0.1204  1.3471 -0.8246
18502THY    CA643337   0.696   5.849   7.290 -0.6814 -0.5264 -0.1721
18502THY    HA643338   0.715   5.790   7.201  0.8690 -0.6898  0.5163
18503THY      O43339   7.466   2.584   3.787 -0.3240 -0.2107  0.8874
18503THY     HO43340   7.407   2.560   3.861 -0.0163 -0.3625 -0.4339
18503THY    CA143341   7.558   2.488   3.767  0.0514 -0.7908  0.7538
18503THY    CA243342   7.635   2.474   3.645 -0.0031  0.2304 -0.1880
18503THY    CP143343   7.617   2.572   3.531 -0.8351  0.2720  0.0127
18503THY    HP143344   7.521   2.624   3.543  0.4879  0.1385  2.6826
18503THY    CP243345   7.611   2.508   3.394 -0.1221 -0.0162 -0.6625
18503THY    HP243346   7.522   2.445   3.399 -0.0521  2.0072 -0.6404
18503THY    HP343347   7.702   2.456   3.360 -0.5421 -1.0287 -0.7669
18503THY    HP443348   7.592   2.588   3.321 -1.4092  0.0814 -0.8726
18503THY    CP343349   7.728   2.689   3.523  0.5069 -0.5502  0.2471
18503THY    HP543350   7.686   2.776   3.471 -0.0967  0.2871  0.4633
18503THY    HP643351   7.820   2.651   3.477  0.0151 -0.8901 -0.5600
18503THY    HP743352   7.754   2.722   3.624 -1.6140  0.3163 -0.6234
18503THY    CA343353   7.713   2.365   3.634 -0.4683  0.6592  0.2513
18503THY    HA343354   7.758   2.340   3.538 -1.1169  0.6752 -1.0549
18503THY    CA443355   7.740   2.277   3.743  0.2069  0.9441  0.3403
18503THY    HA443356   7.807   2.192   3.733  1.0178 -0.0469  1.0599
18503THY    CA543357   7.670   2.295   3.862 -0.4454  0.2749  0.3450
18503THY    CM143358   7.670   2.194   3.982  0.2798  0.6478  0.0165
18503THY    HM143359   7.643   2.098   3.937 -0.0472  2.6828 -0.9029
18503THY    HM243360   7.601   2.230   4.059  1.1148  1.3606  0.1280
18503THY    HM343361   7.769   2.166   4.021  0.3592  0.1036 -0.4773
18503THY    CA643362   7.576   2.394   3.871 -0.0680 -0.6002 -0.0200
18503THY    HA643363   7.519   2.406   3.962 -1.2984 -1.5729  2.3014
18504THY      O43364   6.888   1.288   7.562 -0.3647  0.2520 -0.0172
18504THY     HO43365   6.904   1.333   7.646  0.3802 -0.4651  1.1118
18504THY    CA143366   6.986   1.340   7.482 -0.1665  0.4171  0.3520
18504THY    CA243367   7.098   1.264   7.433  0.2930 -1.0656 -0.1919
18504THY    CP143368   7.106   1.113   7.484  0.0451  0.1987  1.0213
18504THY    HP143369   7.016   1.079   7.537 -0.3863 -1.0265  0.1692
18504THY    CP243370   7.228   1.109   7.581  0.5122 -0.2696 -0.5031
18504THY    HP243371   7.217   1.174   7.669 -1.3861 -0.3499 -0.6538
18504THY    HP343372   7.317   1.147   7.531  1.1905  0.3699 -1.2059
18504THY    HP443373   7.249   1.009   7.620  2.7249  0.8087  0.3207
18504THY    CP343374   7.137   1.021   7.366  0.0690  0.2109 -0.6649
18504THY    HP543375   7.055   1.023   7.293 -0.8465  1.1412  2.9556
18504THY    HP643376   7.146   0.919   7.406  2.6434  1.1173 -0.1555
18504THY    HP743377   7.237   1.037   7.326  0.9973  2.6664  0.1782
18504THY    CA343378   7.194   1.331   7.352  0.0955  0.3653 -0.5733
18504THY    HA343379   7.277   1.271   7.315 -0.1302  0.2763 -0.8301
18504THY    CA443380   7.176   1.465   7.313  0.2363  0.5974  0.2205
18504THY    HA443381   7.246   1.517   7.247 -1.5855 -0.1049  1.9443
18504THY    CA543382   7.067   1.540   7.360 -0.5120  0.8342  0.3052
18504THY    CM143383   7.043   1.674   7.315  0.5873 -0.5021 -1.0455
18504THY    HM143384   6.986   1.726   7.393  1.5701 -1.0566  0.9920
18504THY    HM243385   6.986   1.676   7.221 -0.6620  0.0847 -3.9064
18504THY    HM343386   7.133   1.736   7.310 -0.4433  2.3590  0.9128
18504THY    CA643387   6.969   1.472   7.435 -0.1454 -0.5511 -0.5243
18504THY    HA643388   6.884   1.530   7.469  0.4454  2.8406 -1.4060
18505THY      O43389   7.839   1.474   3.544  0.5846  0.3192  0.0574
18505THY     HO43390   7.825   1.518   3.459  1.1637  0.4524  0.5063
18505THY    CA143391   7.744   1.539   3.631 -0.9188  0.4996  0.2756
18505THY    CA243392   7.692   1.476   3.743 -0.2005 -0.2693 -0.1206
18505THY    CP143393   7.707   1.322   3.763  0.6881  0.8132  1.0928
18505THY    HP143394   7.743   1.284   3.667 -1.0056  0.6414 -0.1855
18505THY    CP243395   7.581   1.249   3.802  0.1695  0.2474  0.3226
18505THY    HP243396   7.507   1.264   3.722  0.0731  0.4011  0.6869
18505THY    HP343397   7.532   1.278   3.895  0.0279 -0.2980  1.9224
18505THY    HP443398   7.616   1.145   3.806  1.0788 -0.8409  0.5587
18505THY    CP343399   7.824   1.291   3.863 -0.6392 -1.1823 -0.0804
18505THY    HP543400   7.783   1.294   3.964  2.2565  0.1367 -1.3030
18505THY    HP643401   7.909   1.360   3.854  0.7546 -1.3946 -1.7557
18505THY    HP743402   7.868   1.191   3.859  0.6446  0.4112  0.3846
18505THY    CA343403   7.603   1.547   3.823 -0.8309 -0.4977  0.3581
18505THY    HA343404   7.555   1.493   3.904 -0.0904 -0.4266 -0.2090
18505THY    CA443405   7.572   1.675   3.784  0.2647 -0.2190 -0.3188
18505THY    HA443406   7.497   1.722   3.847 -0.5250  2.1163 -4.2246
18505THY    CA543407   7.625   1.740   3.677  0.6435  0.1104 -0.3400
18505THY    CM143408   7.616   1.889   3.649 -0.5352 -0.1365 -1.4970
18505THY    HM143409   7.657   1.946   3.733  0.2541 -0.8904 -0.9301
18505THY    HM243410   7.513   1.927   3.644  0.8225 -2.1062  2.4445
18505THY    HM343411   7.662   1.917   3.554 -1.8725 -0.5760 -0.7318
18505THY    CA643412   7.715   1.671   3.600  0.3264  0.1230  0.5519
18505THY    HA643413   7.755   1.710   3.507 -0.7036 -1.6341 -2.2903
18506THY      O43414   6.370   7.318   6.341  0.2265 -0.1746  0.1827
18506THY     HO43415   6.338   7.296   6.252 -1.9578  0.5509  0.1921
18506THY    CA143416   6.464   7.409   6.308  0.0658  0.5214  0.0316
18506THY    CA243417   6.573   7.430   6.392  0.6490  0.2381  0.5713
18506THY    CP143418   6.595   7.350   6.526 -0.2938 -0.2817  0.0056
18506THY    HP143419   6.531   7.263   6.545  0.0239  1.1165  0.0477
18506THY    CP243420   6.565   7.447   6.639 -0.0325 -0.1408 -0.2396
18506THY    HP243421   6.579   7.410   6.741 -0.0377  0.1706  0.6035
18506THY    HP343422   6.462   7.484   6.629  0.2427  2.6909  1.6111
18506THY    HP443423   6.627   7.537   6.630  3.6430 -0.0685 -2.5540
18506THY    CP343424   6.745   7.295   6.542  0.2343 -0.1549  1.1617
18506THY    HP543425   6.780   7.243   6.452  2.6635  0.6251  1.3201
18506THY    HP643426   6.742   7.228   6.629 -3.9174  0.9155  2.4273
18506THY    HP743427   6.815   7.374   6.571  0.6965  2.3924 -0.1041
18506THY    CA343428   6.670   7.523   6.351 -0.4927 -0.1755 -0.3512
18506THY    HA343429   6.755   7.537   6.418 -0.0242 -0.2932 -2.3650
18506THY    CA443430   6.650   7.590   6.233  0.0088 -0.3147  0.0994
18506THY    HA443431   6.721   7.667   6.207  2.9987  0.3993 -2.2312
18506THY    CA543432   6.543   7.573   6.154  0.3033 -0.1600  0.0846
18506THY    CM143433   6.511   7.655   6.031 -0.5711 -0.0620 -0.1709
18506THY    HM143434   6.434   7.611   5.966 -1.2847 -0.0054  0.9539
18506THY    HM243435   6.603   7.648   5.972 -1.0907 -1.2407  2.0575
18506THY    HM343436   6.485   7.760   6.050  0.9416 -0.5464  0.3153
18506THY    CA643437   6.451   7.473   6.186  0.2963 -0.1389  0.1885
18506THY    HA643438   6.365   7.447   6.124 -0.2355  0.8118 -0.3805
18507THY      O43439   9.163   8.523   2.146 -0.4372  0.2650  0.1310
18507THY     HO43440   9.230   8.516   2.216  1.0050 -1.1806 -1.7250
18507THY    CA143441   9.202   8.632   2.064 -0.4603 -1.0669 -0.8586
18507THY    CA243442   9.124   8.676   1.959 -0.1336 -0.2283 -0.2863
18507THY    CP143443   9.005   8.593   1.918  0.8226  0.2159  0.3990
18507THY    HP143444   8.987   8.501   1.975  1.0909  0.1884  0.3301
18507THY    CP243445   9.012   8.554   1.768 -0.1272  0.9378 -0.1083
18507THY    HP243446   8.920   8.504   1.737  1.2952 -1.8995 -1.1812
18507THY    HP343447   9.088   8.480   1.739  1.1759 -0.9017  1.8418
18507THY    HP443448   9.031   8.638   1.700 -1.2043  1.8971  0.9697
18507THY    CP343449   8.873   8.665   1.935  0.3585 -0.1289  0.2984
18507THY    HP543450   8.871   8.766   1.892  0.1997 -0.7268  0.0484
18507THY    HP643451   8.850   8.680   2.041  0.0711 -0.2655  0.8418
18507THY    HP743452   8.789   8.610   1.893 -0.2252  1.5640 -0.1700
18507THY    CA343453   9.156   8.794   1.911  0.3176 -0.4456  0.5979
18507THY    HA343454   9.095   8.833   1.830 -1.1290 -0.3077 -1.2413
18507THY    CA443455   9.268   8.863   1.958 -0.3173  0.0641 -0.0175
18507THY    HA443456   9.289   8.958   1.909 -0.4125  0.5261  0.2506
18507THY    CA543457   9.347   8.820   2.063 -1.0337  0.0554 -0.3696
18507THY    CM143458   9.443   8.900   2.138 -0.1940  0.6577 -0.8214
18507THY    HM143459   9.540   8.850   2.134  0.6497  0.3184  0.7587
18507THY    HM243460   9.412   8.924   2.240  0.3144  0.9668 -1.4632
18507THY    HM343461   9.466   8.995   2.088 -1.0191  1.2763 -0.2815
18507THY    CA643462   9.311   8.700   2.114  0.0712 -0.7989 -0.1041
18507THY    HA643463   9.355   8.677   2.211  0.6234 -0.2004  2.9314
18508THY      O43464   5.101   4.135   5.398 -0.5412  0.2613 -0.1906
18508THY     HO43465   5.149   4.198   5.454  1.0820  0.0793 -1.2010
18508THY    CA143466   5.000   4.092   5.476  0.0467  0.0946  1.4083
18508THY    CA243467   4.918   3.988   5.432 -0.7826 -0.3605  0.8254
18508THY    CP143468   4.954   3.915   5.296  0.5637  0.1956 -0.0656
18508THY    HP143469   4.977   3.988   5.218 -0.9950 -1.7022 -1.5121
18508THY    CP243470   4.833   3.842   5.240 -0.2976 -0.0423  0.0092
18508THY    HP243471   4.828   3.739   5.279 -2.4957  1.3823  0.5895
18508THY    HP343472   4.852   3.834   5.132 -0.2152 -0.1414  1.3214
18508THY    HP443473   4.745   3.906   5.256 -0.8694 -1.6921 -0.3024
18508THY    CP343474   5.071   3.812   5.321 -0.0028 -0.5692  0.5617
18508THY    HP543475   5.164   3.861   5.353  0.3503 -0.4300 -0.1777
18508THY    HP643476   5.102   3.744   5.241 -0.4036 -0.1063 -0.1868
18508THY    HP743477   5.041   3.744   5.402 -2.2615 -0.7714  1.2474
18508THY    CA343478   4.826   3.935   5.534  0.0351 -0.0633  0.9641
18508THY    HA343479   4.753   3.858   5.508  0.4129 -0.4535  0.7349
18508THY    CA443480   4.814   3.987   5.661 -0.3831  0.1577 -1.0886
18508THY    HA443481   4.733   3.954   5.725 -0.0052  0.7299 -0.9135
18508THY    CA543482   4.898   4.087   5.694 -0.1995 -0.3418 -0.4471
18508THY    CM143483   4.881   4.137   5.836 -0.1147  0.0406  0.3685
18508THY    HM143484   4.786   4.109   5.884  1.1490  2.6670  0.2871
18508THY    HM243485   4.891   4.245   5.848 -0.1505  1.0870  0.2642
18508THY    HM343486   4.956   4.088   5.900  0.8727 -1.1797  0.2187
18508THY    CA643487   4.992   4.141   5.607 -0.3423  0.5052  0.2812
18508THY    HA643488   5.045   4.229   5.643 -0.4523  1.3007  0.0265
18509THY      O43489   7.512   4.948   6.381  0.4670 -0.3355  0.0589
18509THY     HO43490   7.595   4.901   6.400  0.2076 -0.2572 -0.3727
18509THY    CA143491   7.417   4.911   6.475  0.4460 -0.5169 -0.4872
18509THY    CA243492   7.275   4.924   6.453  0.2124 -0.0333 -0.0976
18509THY    CP143493   7.221   4.983   6.325  0.6333 -0.1728  0.1893
18509THY    HP143494   7.292   5.040   6.265  0.3268 -0.9639 -0.2556
18509THY    CP243495   7.115   5.087   6.360 -0.2912  0.4420  0.3123
18509THY    HP243496   7.088   5.116   6.258 -1.3102 -0.0114 -1.9778
18509THY    HP343497   7.165   5.166   6.418  1.2381  1.3979 -1.2701
18509THY    HP443498   7.026   5.058   6.417 -1.1306  0.3845  2.5963
18509THY    CP343499   7.163   4.874   6.238  0.2997 -0.3148 -0.5547
18509THY    HP543500   7.150   4.910   6.135  1.0213  0.0259  0.7189
18509THY    HP643501   7.069   4.837   6.282  0.0083 -0.2379  0.2606
18509THY    HP743502   7.225   4.783   6.232 -1.6841 -0.8354 -1.9550
18509THY    CA343503   7.189   4.870   6.549  0.1548  0.4413 -0.5118
18509THY    HA343504   7.084   4.888   6.530  0.3858 -1.5759 -0.9443
18509THY    CA443505   7.242   4.822   6.667  0.3458  0.3319  1.1649
18509THY    HA443506   7.169   4.800   6.744 -1.1712 -1.6421 -1.2779
18509THY    CA543507   7.376   4.822   6.688 -0.0939 -0.1130  0.2296
18509THY    CM143508   7.435   4.763   6.812  0.7338  0.3593 -0.6118
18509THY    HM143509   7.544   4.754   6.800  0.7236 -0.8492  0.5310
18509THY    HM243510   7.381   4.669   6.829  0.2077  0.9312 -0.2152
18509THY    HM343511   7.420   4.829   6.898 -1.2663  1.9904 -3.0184
18509THY    CA643512   7.466   4.867   6.593  0.0450  0.1948 -0.0845
18509THY    HA643513   7.574   4.868   6.608 -0.0050  0.6175 -0.5178
18510THY      O43514   2.945   6.473   3.649 -0.4655  0.1367 -0.6988
18510THY     HO43515   2.886   6.440   3.719 -1.4574  0.0775  0.8372
18510THY    CA143516   3.024   6.371   3.617  0.7385 -0.0974 -0.0067
18510THY    CA243517   3.104   6.374   3.506 -0.5638  0.1523 -0.4023
18510THY    CP143518   3.119   6.496   3.410  0.3924  0.1633 -0.0592
18510THY    HP143519   3.049   6.566   3.458 -0.6890  2.6608 -2.6965
18510THY    CP243520   3.067   6.465   3.270  0.0501 -0.1970 -0.5699
18510THY    HP243521   3.125   6.386   3.222  2.2899  0.4707  0.5981
18510THY    HP343522   3.088   6.560   3.218  0.7543  0.4693 -0.3555
18510THY    HP443523   2.962   6.434   3.262  0.3922 -1.7464 -1.4357
18510THY    CP343524   3.256   6.551   3.415 -0.6200 -0.2498  0.0273
18510THY    HP543525   3.326   6.478   3.374  1.7565 -0.3533  2.2140
18510THY    HP643526   3.284   6.593   3.513 -0.3045 -0.7650  1.0673
18510THY    HP743527   3.275   6.628   3.340 -0.3112 -1.2075 -0.9626
18510THY    CA343528   3.178   6.253   3.490  0.0538 -0.2078 -0.0299
18510THY    HA343529   3.244   6.246   3.404 -0.3814 -0.5932  0.4771
18510THY    CA443530   3.169   6.154   3.584  0.2809 -0.0093  0.6987
18510THY    HA443531   3.244   6.076   3.592 -0.0150  0.8488  0.4801
18510THY    CA543532   3.093   6.157   3.698 -0.1093  0.4096  0.0512
18510THY    CM143533   3.106   6.053   3.808  0.3214  0.2211 -1.1281
18510THY    HM143534   3.186   5.980   3.790  0.5634  0.1208 -0.8409
18510THY    HM243535   3.008   6.008   3.829 -1.1693  0.0816  1.8483
18510THY    HM343536   3.142   6.106   3.896  0.4201 -0.7118  0.4009
18510THY    CA643537   3.012   6.265   3.713 -0.2000  0.6506  0.4156
18510THY    HA643538   2.954   6.273   3.804 -1.9561 -0.4233  0.6529
18511THY      O43539   1.819   1.825   1.907 -0.3718  0.1146  0.2038
18511THY     HO43540   1.857   1.757   1.964  1.8764 -2.2180 -0.6883
18511THY    CA143541   1.923   1.910   1.869 -0.2867  0.0685  0.6182
18511THY    CA243542   1.902   1.999   1.765  0.1035 -0.5767 -0.1749
18511THY    CP143543   1.770   2.030   1.700  0.5212  1.1076  0.7883
18511THY    HP143544   1.692   1.970   1.749 -0.3199  0.2044  1.1080
18511THY    CP243545   1.766   1.986   1.554 -0.1787 -0.5291 -0.3481
18511THY    HP243546   1.689   2.040   1.497  0.9552 -1.0385  0.7915
18511THY    HP343547   1.758   1.878   1.538 -0.3071 -0.4696 -0.3464
18511THY    HP443548   1.860   2.013   1.503 -0.2982 -0.0881  0.9964
18511THY    CP343549   1.720   2.173   1.720  1.0302  0.1632  0.3555
18511THY    HP543550   1.703   2.190   1.827  0.1974  0.2115 -0.6945
18511THY    HP643551   1.629   2.190   1.662  0.7841  0.3160 -0.4341
18511THY    HP743552   1.788   2.249   1.679  1.7206 -1.8985 -1.2832
18511THY    CA343553   2.014   2.081   1.731  0.2723  0.4135  0.2970
18511THY    HA343554   2.007   2.160   1.657  0.1864 -1.6287 -1.5391
18511THY    CA443555   2.135   2.077   1.795 -1.1574 -0.2879 -0.1528
18511THY    HA443556   2.216   2.147   1.774 -1.4398 -1.5679 -0.1819
18511THY    CA543557   2.146   1.993   1.901  0.2921 -0.1570  0.4500
18511THY    CM143558   2.271   1.992   1.990  0.0168  0.1450  0.7807
18511THY    HM143559   2.245   2.017   2.093  0.6078  0.8473 -1.3358
18511THY    HM243560   2.352   2.053   1.947  1.7580  1.2115 -0.6900
18511THY    HM343561   2.310   1.890   1.986 -0.8342 -0.3500  0.4624
18511THY    CA643562   2.039   1.924   1.947 -0.7553 -0.0301  0.0427
18511THY    HA643563   2.051   1.872   2.041 -2.0500  1.2338  1.9387
18512THY      O43564   3.074   7.067   2.435 -0.0123  0.7667 -0.3289
18512THY     HO43565   3.125   7.139   2.476 -2.5669 -0.8186  2.6710
18512THY    CA143566   2.983   7.135   2.363  0.2567 -0.6722 -0.1706
18512THY    CA243567   2.866   7.067   2.325 -0.2092  0.4030  0.2260
18512THY    CP143568   2.857   6.915   2.332  0.0509  0.5535  0.7955
18512THY    HP143569   2.954   6.871   2.360  1.3874 -4.0692  0.2651
18512THY    CP243570   2.838   6.847   2.196 -0.3716 -0.0493 -0.0167
18512THY    HP243571   2.733   6.859   2.169 -0.7884  1.7658  0.7797
18512THY    HP343572   2.860   6.740   2.209  0.6488 -0.5855  0.1141
18512THY    HP443573   2.911   6.892   2.129  1.3980  2.5479  1.2492
18512THY    CP343574   2.762   6.880   2.444 -0.3041 -0.4027  0.7242
18512THY    HP543575   2.659   6.910   2.421 -0.9905 -0.8832 -1.7816
18512THY    HP643576   2.795   6.913   2.543 -0.8976 -0.8817  2.9408
18512THY    HP743577   2.752   6.771   2.453  3.0970 -0.4335  0.3282
18512THY    CA343578   2.761   7.145   2.268  0.3895  0.0421  0.6637
18512THY    HA343579   2.681   7.095   2.215  1.6541 -3.6964  2.2355
18512THY    CA443580   2.778   7.285   2.242  0.6454  0.4256  0.0048
18512THY    HA443581   2.693   7.342   2.206  0.6518 -2.9882 -1.8750
18512THY    CA543582   2.896   7.350   2.279 -0.2406 -0.4986  0.4910
18512THY    CM143583   2.920   7.495   2.268  0.6313  0.2743 -0.4427
18512THY    HM143584   2.922   7.544   2.366  1.7872  0.1179 -0.1511
18512THY    HM243585   2.832   7.535   2.215  0.7185  0.3724 -0.1119
18512THY    HM343586   3.005   7.516   2.202 -1.1067 -1.9394  0.1567
18512THY    CA643587   2.996   7.273   2.340 -0.1519 -0.5474 -0.2053
18512THY    HA643588   3.085   7.320   2.379  0.5265 -1.2078 -0.9036
18513THY      O43589   3.032   6.802   6.411  0.0676 -0.0736 -0.0659
18513THY     HO43590   2.957   6.744   6.433 -1.6714 -0.4963  1.8728
18513THY    CA143591   3.147   6.750   6.443 -0.2976  0.2284 -0.6400
18513THY    CA243592   3.229   6.795   6.543  0.5347 -0.0797 -0.2954
18513THY    CP143593   3.189   6.930   6.610 -0.4369  0.6220 -0.5703
18513THY    HP143594   3.080   6.935   6.625 -0.5872 -0.0934 -1.3946
18513THY    CP243595   3.235   7.053   6.528  0.2018 -0.0703 -0.4202
18513THY    HP243596   3.330   7.038   6.476  0.4276 -0.9649  3.2138
18513THY    HP343597   3.236   7.144   6.589  0.1120  0.5246 -0.8144
18513THY    HP443598   3.154   7.079   6.459  1.0496 -0.2108  2.2015
18513THY    CP343599   3.253   6.951   6.743 -0.2969  0.4319  0.2140
18513THY    HP543600   3.238   6.860   6.801  1.5711 -1.7652 -1.6121
18513THY    HP643601   3.199   7.038   6.783  0.2072  0.1930  0.6469
18513THY    HP743602   3.361   6.969   6.736 -0.2680  1.9280  0.8256
18513THY    CA343603   3.335   6.715   6.587  1.1281  0.9862  0.6915
18513THY    HA343604   3.402   6.752   6.664  1.6649  0.3254  1.0997
18513THY    CA443605   3.355   6.591   6.525 -0.0898  0.3905  0.2138
18513THY    HA443606   3.438   6.527   6.555  0.7471  0.1486  1.1685
18513THY    CA543607   3.277   6.553   6.412 -0.0963 -0.0557  0.2727
18513THY    CM143608   3.306   6.433   6.324  0.5057 -0.4267  0.1157
18513THY    HM143609   3.212   6.395   6.283 -0.1973  1.2195 -0.0007
18513THY    HM243610   3.368   6.353   6.365  0.4360 -4.2706 -2.1548
18513THY    HM343611   3.360   6.467   6.235  1.3739 -0.6559 -1.7737
18513THY    CA643612   3.173   6.631   6.376 -0.9976  0.5546 -0.0931
18513THY    HA643613   3.107   6.593   6.299 -2.0346 -0.3485  3.2620
18514THY      O43614   3.890   2.189   1.550  0.1717 -0.3603  0.0844
18514THY     HO43615   3.875   2.094   1.532 -2.5103 -0.6605  0.5056
18514THY    CA143616   3.836   2.209   1.672 -0.4241  0.3030  0.3397
18514THY    CA243617   3.791   2.334   1.713 -0.8643 -0.7247 -0.0902
18514THY    CP143618   3.774   2.443   1.608  0.3062  0.4182 -0.4428
18514THY    HP143619   3.826   2.439   1.512 -0.4382 -0.1308  1.6563
18514THY    CP243620   3.832   2.574   1.660 -0.3830 -0.1652  0.3463
18514THY    HP243621   3.837   2.648   1.579  1.8771  3.3545  4.5416
18514THY    HP343622   3.932   2.554   1.702  0.4347 -2.6870 -1.3923
18514THY    HP443623   3.778   2.616   1.746  0.7944  1.0648 -0.5716
18514THY    CP343624   3.621   2.471   1.576 -0.1120  0.7907 -0.5647
18514THY    HP543625   3.614   2.499   1.470 -0.8427  0.8426 -0.5248
18514THY    HP643626   3.583   2.568   1.612 -3.2718 -0.5243 -1.1823
18514THY    HP743627   3.557   2.389   1.609 -1.7433 -1.3560 -0.2415
18514THY    CA343628   3.749   2.354   1.845  0.0649 -0.3849 -0.1962
18514THY    HA343629   3.709   2.449   1.880 -1.0910 -1.6811 -0.1764
18514THY    CA443630   3.755   2.247   1.935 -0.2099  0.4145  0.3186
18514THY    HA443631   3.713   2.254   2.034  1.4393  1.0959  1.3338
18514THY    CA543632   3.803   2.124   1.893 -0.7604 -1.1657  0.6130
18514THY    CM143633   3.813   2.003   1.979 -0.2325 -0.4039 -0.5170
18514THY    HM143634   3.715   1.987   2.025 -0.6058 -1.3589 -1.0325
18514THY    HM243635   3.876   2.024   2.067 -0.7886 -0.2545  0.5319
18514THY    HM343636   3.852   1.913   1.930  0.6943  1.1986 -1.0336
18514THY    CA643637   3.844   2.108   1.765  0.6117  0.0667  0.7966
18514THY    HA643638   3.872   2.009   1.731 -1.7071  0.7659 -0.1562
18515THY      O43639   8.855   1.550   1.840 -0.4117  0.0781  0.3496
18515THY     HO43640   8.904   1.513   1.915 -1.3207 -0.3145 -1.7996
18515THY    CA143641   8.951   1.614   1.759 -0.0392  0.9089  0.5065
18515THY    CA243642   8.929   1.735   1.690 -0.1665 -0.3630 -0.4674
18515THY    CP143643   8.795   1.803   1.708 -0.3601  0.0963 -0.4386
18515THY    HP143644   8.713   1.759   1.766  0.3666  2.0209  0.6335
18515THY    CP243645   8.737   1.820   1.570  0.5911  0.0007 -0.0571
18515THY    HP243646   8.638   1.865   1.562 -0.5284 -3.3860 -2.7138
18515THY    HP343647   8.739   1.723   1.519 -0.3236 -2.0886  0.9698
18515THY    HP443648   8.809   1.885   1.519 -0.7109  2.1187  3.2960
18515THY    CP343649   8.813   1.938   1.772  0.5441  0.2308 -0.9140
18515THY    HP543650   8.711   1.971   1.798  0.6718 -0.1741 -0.1775
18515THY    HP643651   8.865   2.012   1.709  2.0499  1.2443 -1.0695
18515THY    HP743652   8.866   1.941   1.868  0.2730  0.3823  1.8002
18515THY    CA343653   9.028   1.783   1.603  0.5388  0.4008 -0.3795
18515THY    HA343654   9.016   1.877   1.548  1.1083  1.4240  0.3073
18515THY    CA443655   9.150   1.716   1.590  0.9460 -0.0438 -0.2464
18515THY    HA443656   9.229   1.753   1.526 -0.2240 -0.7651  1.1179
18515THY    CA543657   9.165   1.597   1.662 -0.7131  0.8815 -0.5918
18515THY    CM143658   9.298   1.518   1.643  0.3985 -0.8425 -0.6333
18515THY    HM143659   9.377   1.568   1.699 -1.9437  2.6103 -0.4225
18515THY    HM243660   9.311   1.523   1.534 -0.7683 -0.9796 -0.0467
18515THY    HM343661   9.288   1.421   1.693 -2.1616  2.1821  0.9813
18515THY    CA643662   9.067   1.543   1.734  0.7380 -0.0997 -0.3666
18515THY    HA643663   9.083   1.445   1.777  0.0253  0.5910 -0.1857
18516THY      O43664   3.894   0.950   2.248  0.0718 -0.7117  0.1123
18516THY     HO43665   3.938   0.864   2.254 -0.0715 -0.7155  0.0386
18516THY    CA143666   3.765   0.916   2.249  0.1176  0.3859 -0.1475
18516THY    CA243667   3.658   1.007   2.265 -0.3577  0.3411  0.1105
18516THY    CP143668   3.678   1.162   2.271 -0.0530  0.4542 -0.3771
18516THY    HP143669   3.774   1.196   2.231 -0.9036  0.0546  1.7504
18516THY    CP243670   3.659   1.225   2.408  0.3974 -0.2669 -0.7967
18516THY    HP243671   3.699   1.162   2.488 -1.0357 -1.5139 -3.4731
18516THY    HP343672   3.553   1.208   2.430  0.3111 -0.0261 -0.0128
18516THY    HP443673   3.667   1.334   2.417  1.1037  1.0347 -0.9318
18516THY    CP343674   3.580   1.238   2.184  0.8437  1.3152  0.2934
18516THY    HP543675   3.481   1.250   2.229 -0.3627 -1.0270 -0.1144
18516THY    HP643676   3.572   1.180   2.091  0.1229  2.4597 -1.5212
18516THY    HP743677   3.618   1.339   2.162 -1.1098  1.7949  1.1962
18516THY    CA343678   3.525   0.950   2.273 -0.2517  0.0523 -0.2533
18516THY    HA343679   3.445   1.022   2.285  0.2621 -1.8748  0.7142
18516THY    CA443680   3.503   0.814   2.256 -0.8001 -0.8061 -0.2282
18516THY    HA443681   3.399   0.784   2.263 -1.0084  0.5841  0.7135
18516THY    CA543682   3.607   0.726   2.236 -0.1690 -0.4646 -0.6226
18516THY    CM143683   3.584   0.573   2.224  0.3716 -0.4165 -0.3022
18516THY    HM143684   3.599   0.547   2.330 -2.0837  0.2480  0.7019
18516THY    HM243685   3.653   0.523   2.155  0.1295 -1.8100  1.2008
18516THY    HM343686   3.480   0.555   2.196 -0.1153 -1.2018  2.9902
18516THY    CA643687   3.738   0.776   2.245 -0.2444  0.2609  0.6676
18516THY    HA643688   3.816   0.701   2.255 -0.6854  0.1952  0.1913
18517THY      O43689   2.047   4.930   4.247  0.3391  0.4170  0.2111
18517THY     HO43690   2.071   4.967   4.333 -1.6958  3.1679 -4.0789
18517THY    CA143691   2.118   5.003   4.155  0.3869  0.5836  1.3576
18517THY    CA243692   2.110   4.975   4.015 -0.2339 -0.0144  0.3065
18517THY    CP143693   2.040   4.851   3.966 -0.0891  0.8347  0.4971
18517THY    HP143694   2.027   4.776   4.045  0.1029  0.5567  0.1701
18517THY    CP243695   2.103   4.767   3.859 -0.5696 -0.2611  0.5097
18517THY    HP243696   2.206   4.740   3.887 -0.8804 -0.2858 -0.7910
18517THY    HP343697   2.112   4.822   3.765  2.0763 -0.5404 -0.2945
18517THY    HP443698   2.045   4.675   3.844 -0.6341  2.0966  0.0971
18517THY    CP343699   1.905   4.888   3.920 -0.0740 -0.5547  0.3087
18517THY    HP543700   1.910   4.930   3.819  0.5937 -1.4153 -1.7460
18517THY    HP643701   1.872   4.958   3.999 -0.0566  0.8312 -1.1846
18517THY    HP743702   1.841   4.800   3.910 -0.7850 -0.0578  0.7482
18517THY    CA343703   2.194   5.056   3.928  0.0157 -0.0181 -0.7065
18517THY    HA343704   2.203   5.026   3.823  0.0852 -0.4853  0.8857
18517THY    CA443705   2.249   5.180   3.969  0.7434  0.1978  0.2478
18517THY    HA443706   2.293   5.248   3.897 -0.6600  0.3198  1.3319
18517THY    CA543707   2.239   5.211   4.105 -0.1745  0.0363  0.0919
18517THY    CM143708   2.304   5.347   4.156 -0.2961  0.9653 -0.2370
18517THY    HM143709   2.343   5.393   4.064 -4.3947 -0.9113 -0.0413
18517THY    HM243710   2.380   5.346   4.234  1.9618 -1.0429 -2.8903
18517THY    HM343711   2.219   5.404   4.197 -1.3347 -1.5771  0.1990
18517THY    CA643712   2.183   5.120   4.196 -0.2547  0.3651  0.3059
18517THY    HA643713   2.169   5.146   4.301 -2.4971  0.6450 -1.6359
18518THY      O43714   4.258   6.476   2.330  0.9108 -0.3066  0.1083
18518THY     HO43715   4.207   6.507   2.253  0.2329  0.0935 -0.0040
18518THY    CA143716   4.332   6.584   2.366 -0.2584  0.2910  0.4534
18518THY    CA243717   4.393   6.589   2.494  0.5501 -0.0101  0.2947
18518THY    CP143718   4.395   6.460   2.580  1.1634  0.0220 -0.1809
18518THY    HP143719   4.381   6.367   2.524 -1.6012  2.2031 -1.2227
18518THY    CP243720   4.270   6.470   2.678  0.4082  0.5225  0.3500
18518THY    HP243721   4.172   6.484   2.631 -1.1131  3.8586  2.0071
18518THY    HP343722   4.285   6.550   2.751 -0.2041  0.2539  0.7162
18518THY    HP443723   4.266   6.370   2.724 -1.2071  0.9724  0.5813
18518THY    CP343724   4.520   6.430   2.656 -0.5648 -0.3125  0.4067
18518THY    HP543725   4.522   6.334   2.709 -0.3404 -1.0214  0.0080
18518THY    HP643726   4.543   6.512   2.725  0.0920  1.3559 -1.1198
18518THY    HP743727   4.605   6.432   2.586 -1.2273 -1.2722 -1.8426
18518THY    CA343728   4.476   6.705   2.522 -0.1010 -0.1413  0.2850
18518THY    HA343729   4.541   6.703   2.608 -1.1812  0.6866 -0.8242
18518THY    CA443730   4.491   6.808   2.428 -0.0175  0.5391 -0.5314
18518THY    HA443731   4.555   6.895   2.437 -1.6430 -0.0438  0.7788
18518THY    CA543732   4.420   6.799   2.305 -0.9727 -0.9569  0.0584
18518THY    CM143733   4.440   6.910   2.205  0.1978 -1.2984 -0.0513
18518THY    HM143734   4.494   6.994   2.249  1.0691 -1.0129 -0.7509
18518THY    HM243735   4.342   6.941   2.166 -0.0015 -2.0720 -1.5779
18518THY    HM343736   4.492   6.864   2.120 -0.3467 -0.3490 -2.5704
18518THY    CA643737   4.341   6.692   2.273  0.2411  0.0553  0.5659
18518THY    HA643738   4.297   6.682   2.174  0.8535 -0.4456  2.5019
18519THY      O43739   7.806   4.843   5.584  0.1765 -0.5328 -0.3378
18519THY     HO43740   7.834   4.927   5.543 -1.2615  0.9362  0.9402
18519THY    CA143741   7.841   4.745   5.505  0.0133  0.3606  0.2953
18519THY    CA243742   7.753   4.651   5.448  0.5961 -0.0666  0.0731
18519THY    CP143743   7.602   4.677   5.453  0.3736 -0.0844 -0.0654
18519THY    HP143744   7.594   4.781   5.487 -0.6126  1.5630 -0.6470
18519THY    CP243745   7.537   4.585   5.562  0.1431 -1.4674  0.0664
18519THY    HP243746   7.435   4.561   5.533 -0.7168  1.3114 -0.0190
18519THY    HP343747   7.535   4.643   5.655 -0.2469 -1.4720  0.0590
18519THY    HP443748   7.592   4.492   5.581 -1.4202 -2.1483 -1.0374
18519THY    CP343749   7.524   4.655   5.321 -0.0801 -0.8167  0.0726
18519THY    HP543750   7.476   4.557   5.308 -1.3078 -0.8783  0.6676
18519THY    HP643751   7.588   4.684   5.237  1.3695 -0.3450 -1.5586
18519THY    HP743752   7.435   4.719   5.325 -0.0712  2.6132  0.0765
18519THY    CA343753   7.804   4.540   5.380 -0.0651 -0.1885 -0.6360
18519THY    HA343754   7.736   4.467   5.337 -0.5212  0.8256 -0.8255
18519THY    CA443755   7.941   4.538   5.359 -0.4411 -0.4339  0.4803
18519THY    HA443756   7.974   4.455   5.296 -1.3751 -0.5871  0.2025
18519THY    CA543757   8.024   4.632   5.414 -0.7804  0.4784 -0.6621
18519THY    CM143758   8.175   4.619   5.400  0.9673 -0.4411 -0.3365
18519THY    HM143759   8.219   4.582   5.493  0.5314 -0.0702  0.0824
18519THY    HM243760   8.228   4.712   5.376 -0.7350  0.0468  0.7909
18519THY    HM343761   8.188   4.540   5.324  0.0946 -1.8818  0.8525
18519THY    CA643762   7.980   4.732   5.486  0.1067 -0.3460  0.6719
18519THY    HA643763   8.054   4.795   5.533  2.8591 -0.7270 -2.0207
18520THY      O43764   5.848   2.314   5.418  0.6528  0.0022 -0.4915
18520THY     HO43765   5.931   2.330   5.370 -0.2034 -1.1858  0.5680
18520THY    CA143766   5.884   2.248   5.533  0.5976  0.3764  0.2849
18520THY    CA243767   5.795   2.157   5.607 -0.5478  0.2843 -0.8803
18520THY    CP143768   5.649   2.155   5.588  0.4680  0.0551  0.2299
18520THY    HP143769   5.611   2.230   5.518  0.7230  0.5245  0.7979
18520THY    CP243770   5.575   2.156   5.723 -0.4472  1.2358 -0.5826
18520THY    HP243771   5.479   2.203   5.700  0.6635  0.7703  1.5548
18520THY    HP343772   5.627   2.217   5.797 -0.7012  1.7373 -0.9670
18520THY    HP443773   5.563   2.054   5.761 -1.4294 -0.2845 -1.0693
18520THY    CP343774   5.615   2.018   5.525 -0.1331  0.1044  0.1369
18520THY    HP543775   5.675   1.937   5.567 -0.6979  0.3945 -0.1369
18520THY    HP643776   5.645   2.036   5.421  2.2190  0.8156  0.7234
18520THY    HP743777   5.508   1.995   5.525 -0.4321  0.4615  1.4421
18520THY    CA343778   5.858   2.076   5.701  0.4753 -0.0160  0.2810
18520THY    HA343779   5.803   2.005   5.762 -3.3890 -2.2005  1.0861
18520THY    CA443780   5.992   2.084   5.730  0.6144  0.3254 -0.0027
18520THY    HA443781   6.041   2.027   5.808  1.1766  0.9908  1.3498
18520THY    CA543782   6.070   2.171   5.658  0.0131  0.1154  0.5869
18520THY    CM143783   6.215   2.178   5.683 -0.0834  0.1886  0.2526
18520THY    HM143784   6.242   2.279   5.715  1.0290  0.3661 -0.0890
18520THY    HM243785   6.267   2.167   5.587 -2.7388 -1.5521  1.6967
18520THY    HM343786   6.263   2.097   5.738  0.7494 -1.4804 -0.4509
18520THY    CA643787   6.023   2.245   5.554  0.3667  0.1069  0.3480
18520THY    HA643788   6.087   2.303   5.488  0.1175  0.5141  1.0940
18521THY      O43789   0.833   4.896   7.450 -0.3571  0.1143  0.4962
18521THY     HO43790   0.771   4.822   7.462  1.3992  2.2052 -0.8007
18521THY    CA143791   0.833   4.960   7.567 -0.3448  0.2981 -0.6084
18521THY    CA243792   0.960   5.011   7.611  0.5359 -0.2012  0.5055
18521THY    CP143793   1.084   5.011   7.519  0.1983 -0.4174  0.1158
18521THY    HP143794   1.051   5.016   7.414  2.1942 -1.0864  0.0425
18521THY    CP243795   1.148   4.878   7.515  0.5146 -0.1503 -0.2958
18521THY    HP243796   1.075   4.797   7.524  0.7517 -0.2230 -0.5183
18521THY    HP343797   1.225   4.864   7.591  0.5913  0.0666  1.1178
18521THY    HP443798   1.186   4.851   7.415  2.5105  0.4655  0.0698
18521THY    CP343799   1.184   5.123   7.541 -0.1034  0.2728  0.1109
18521THY    HP543800   1.135   5.220   7.534 -1.5010  0.0672 -0.5853
18521THY    HP643801   1.267   5.116   7.469 -1.7824 -1.6143 -1.7559
18521THY    HP743802   1.225   5.121   7.643 -1.7048  0.9597  1.1196
18521THY    CA343803   0.967   5.058   7.750 -0.1722  0.1457  0.3163
18521THY    HA343804   1.059   5.101   7.789  0.4271 -2.3531  1.4980
18521THY    CA443805   0.847   5.066   7.824 -0.6558  0.8761  0.2711
18521THY    HA443806   0.853   5.126   7.914 -1.9510  0.4082  1.1410
18521THY    CA543807   0.729   5.006   7.773  0.3325  0.3522 -0.6224
18521THY    CM143808   0.602   5.001   7.854 -0.0547  0.2255 -0.5631
18521THY    HM143809   0.622   5.033   7.957 -0.7866 -0.0775  0.9929
18521THY    HM243810   0.561   4.900   7.861  1.2961  0.1265 -1.1344
18521THY    HM343811   0.525   5.061   7.802 -0.0331  0.2761 -0.4913
18521THY    CA643812   0.720   4.956   7.646  0.5383  0.4905  0.0507
18521THY    HA643813   0.623   4.919   7.614 -0.2970  1.9757  0.8501
18522THY      O43814   5.371   4.454   6.278  0.0206  0.2322 -0.1380
18522THY     HO43815   5.369   4.358   6.291 -0.5770  1.8432  0.0633
18522THY    CA143816   5.368   4.502   6.400  0.8985 -0.0615  0.2055
18522THY    CA243817   5.432   4.616   6.441 -0.5549  0.2664  0.2823
18522THY    CP143818   5.527   4.692   6.340  0.1172  0.7687 -0.0662
18522THY    HP143819   5.524   4.657   6.236  2.2602  0.6840 -0.1020
18522THY    CP243820   5.674   4.682   6.383 -0.0334  0.3000  0.1728
18522THY    HP243821   5.701   4.579   6.408  0.8590 -0.3158  0.2480
18522THY    HP343822   5.691   4.747   6.469  0.9660 -0.7513  1.3501
18522THY    HP443823   5.738   4.715   6.301  0.2507  1.1398  1.7868
18522THY    CP343824   5.484   4.838   6.326 -0.9385 -0.0374  0.5070
18522THY    HP543825   5.377   4.839   6.301 -1.5989  2.5655  0.2753
18522THY    HP643826   5.533   4.896   6.246 -2.2802 -1.3960 -0.1507
18522THY    HP743827   5.490   4.890   6.422  1.5872 -0.3304  0.8772
18522THY    CA343828   5.409   4.650   6.578  1.1946 -0.0129  0.0485
18522THY    HA343829   5.463   4.739   6.609 -0.3482  1.2353  0.5913
18522THY    CA443830   5.324   4.583   6.666 -0.2538 -0.4145  0.1657
18522THY    HA443831   5.305   4.624   6.764  2.5250 -0.7121  2.5372
18522THY    CA543832   5.260   4.471   6.621 -0.4122  0.5328  0.3283
18522THY    CM143833   5.168   4.400   6.703 -0.0432 -0.4330  0.2362
18522THY    HM143834   5.215   4.317   6.758  0.4639  0.0925  0.8637
18522THY    HM243835   5.078   4.362   6.652  0.4771 -1.1068 -0.1178
18522THY    HM343836   5.132   4.468   6.781 -0.5794 -0.0030 -0.5195
18522THY    CA643837   5.285   4.430   6.488  0.5149  1.1716 -0.7388
18522THY    HA643838   5.228   4.348   6.446 -0.4081  0.8350  0.0598
18523THY      O43839   0.878   8.329   5.558 -0.0060 -0.0174  0.6048
18523THY     HO43840   0.944   8.262   5.580 -0.7513  0.3362 -0.0288
18523THY    CA143841   0.947   8.442   5.529  0.6468 -0.2590 -0.0044
18523THY    CA243842   0.893   8.564   5.551  0.1121  0.6086  0.3862
18523THY    CP143843   0.754   8.589   5.613 -0.3965  0.0553  0.0128
18523THY    HP143844   0.694   8.497   5.606  1.5225 -1.4631 -1.2072
18523THY    CP243845   0.672   8.697   5.540 -0.1089  0.2200  0.2504
18523THY    HP243846   0.651   8.659   5.440 -0.2203  0.3506 -0.0320
18523THY    HP343847   0.725   8.792   5.527 -2.8729 -2.3405  1.6172
18523THY    HP443848   0.575   8.712   5.590  0.0558  1.6620 -2.8226
18523THY    CP343849   0.759   8.633   5.760  0.5727  0.5761 -0.1050
18523THY    HP543850   0.817   8.562   5.820  0.0943  1.5379  0.3039
18523THY    HP643851   0.660   8.647   5.804  0.6760  0.0876  2.5240
18523THY    HP743852   0.807   8.731   5.760  1.9545  1.9948 -0.7422
18523THY    CA343853   0.981   8.675   5.534 -0.3390  0.3584 -0.1381
18523THY    HA343854   0.953   8.776   5.563  0.0732 -2.0036  0.7034
18523THY    CA443855   1.113   8.655   5.487  1.2018  1.0777 -0.2953
18523THY    HA443856   1.175   8.744   5.478 -0.9924 -1.1114  1.1210
18523THY    CA543857   1.153   8.525   5.461  0.1084  0.0436 -0.0660
18523THY    CM143858   1.302   8.498   5.427 -0.0661  0.3921  0.1272
18523THY    HM143859   1.363   8.465   5.512  0.0899  0.1369 -0.2409
18523THY    HM243860   1.342   8.591   5.385  1.4215 -2.4082 -1.6409
18523THY    HM343861   1.314   8.422   5.349 -0.2381  0.7796 -0.3026
18523THY    CA643862   1.077   8.421   5.478  0.0376 -0.3079  0.1776
18523THY    HA643863   1.110   8.326   5.436 -0.4344  0.9504 -0.5814
18524THY      O43864   2.834   7.092   6.092 -0.2328  0.1390 -0.1590
18524THY     HO43865   2.926   7.063   6.100 -0.5807 -2.9025 -2.5947
18524THY    CA143866   2.795   7.058   5.965 -0.2618  0.0463 -0.0423
18524THY    CA243867   2.659   7.054   5.924 -0.0038 -0.5268 -0.3087
18524THY    CP143868   2.547   7.098   6.026 -0.6632  0.2177  0.6009
18524THY    HP143869   2.598   7.141   6.113 -0.7919  0.7342 -0.2736
18524THY    CP243870   2.485   6.970   6.091 -0.6157  0.1121 -0.5845
18524THY    HP243871   2.568   6.910   6.130  0.0972 -0.6420 -0.0978
18524THY    HP343872   2.427   6.911   6.020 -2.9406  2.1304 -0.9146
18524THY    HP443873   2.419   6.998   6.174  0.8038  0.8507  0.7488
18524THY    CP343874   2.448   7.189   5.969  0.2767 -0.1302 -0.1733
18524THY    HP543875   2.372   7.217   6.043 -1.1326 -1.1628 -1.1148
18524THY    HP643876   2.392   7.151   5.882 -1.5064  1.0568 -0.3894
18524THY    HP743877   2.499   7.284   5.947  0.2307  1.1106  0.1512
18524THY    CA343878   2.624   7.019   5.794 -0.2111  0.1023 -0.3254
18524THY    HA343879   2.520   7.010   5.762  0.0274 -0.6728 -0.4074
18524THY    CA443880   2.727   7.014   5.702 -0.4259 -0.6285  0.6045
18524THY    HA443881   2.694   6.993   5.601 -2.3761  0.2196 -0.6603
18524THY    CA543882   2.862   7.019   5.735 -0.1937 -0.8630 -0.3974
18524THY    CM143883   2.969   7.001   5.633  0.8591  0.2754  0.1238
18524THY    HM143884   2.943   6.936   5.548  0.1720 -0.9329  1.9112
18524THY    HM243885   3.051   6.948   5.684 -0.2277  0.6455 -1.2704
18524THY    HM343886   2.999   7.102   5.602 -2.8777  0.1017  1.2967
18524THY    CA643887   2.895   7.044   5.870 -0.1362  1.3118 -0.2163
18524THY    HA643888   2.998   7.035   5.902  0.7452 -1.4543 -1.0238
18525THY      O43889   2.191   3.536   3.610  0.2740 -0.6852 -0.0434
18525THY     HO43890   2.124   3.597   3.643  0.7092  0.1290 -0.0018
18525THY    CA143891   2.291   3.615   3.564 -0.3029 -0.4708 -0.3058
18525THY    CA243892   2.359   3.589   3.449  0.7737 -0.4305 -1.2957
18525THY    CP143893   2.335   3.469   3.367  0.3168  0.5329  0.6358
18525THY    HP143894   2.262   3.403   3.415  0.0773  1.4037  1.5036
18525THY    CP243895   2.464   3.405   3.331 -0.1600 -0.6677 -0.2688
18525THY    HP243896   2.446   3.300   3.307 -1.2852  1.6618 -0.6642
18525THY    HP343897   2.527   3.396   3.420  1.7203 -1.7903  0.9003
18525THY    HP443898   2.516   3.455   3.248  0.6628  0.5502  0.9867
18525THY    CP343899   2.273   3.517   3.235  0.5751  0.1284 -0.0567
18525THY    HP543900   2.332   3.599   3.192  0.2649  1.8904  1.1483
18525THY    HP643901   2.175   3.563   3.255  0.3209  0.2199 -0.6210
18525THY    HP743902   2.260   3.437   3.161  0.4527  0.2215 -0.1229
18525THY    CA343903   2.466   3.680   3.411 -0.0478 -0.4537 -0.0515
18525THY    HA343904   2.526   3.653   3.324  3.2785  1.2985  1.1343
18525THY    CA443905   2.500   3.789   3.498  0.4477 -0.2096 -0.0745
18525THY    HA443906   2.569   3.867   3.467 -1.8818 -0.8382  1.8696
18525THY    CA543907   2.415   3.820   3.604  0.2108  0.0176 -0.0351
18525THY    CM143908   2.440   3.943   3.693 -0.3183  0.1241 -0.2258
18525THY    HM143909   2.424   3.932   3.801 -0.5941  0.0436 -0.6148
18525THY    HM243910   2.354   4.005   3.665 -0.2890 -0.2234 -0.3419
18525THY    HM343911   2.532   3.999   3.668 -0.9480  1.0196  1.2598
18525THY    CA643912   2.311   3.735   3.640 -0.5199 -0.1676  0.8580
18525THY    HA643913   2.244   3.756   3.723  1.1526  0.7319  2.9718
18526THY      O43914   8.169   0.567   5.821 -0.0569  0.2953 -0.3153
18526THY     HO43915   8.098   0.633   5.817  2.0854 -1.1407  2.1167
18526THY    CA143916   8.165   0.481   5.720  0.4809  0.9838 -0.1514
18526THY    CA243917   8.250   0.365   5.719  1.0016  0.6129  0.0138
18526THY    CP143918   8.349   0.335   5.835  0.3800 -0.2676 -0.2522
18526THY    HP143919   8.305   0.383   5.924  0.1597 -1.2556  1.4918
18526THY    CP243920   8.480   0.403   5.804  0.3914  0.2211  0.2406
18526THY    HP243921   8.466   0.501   5.758 -1.4319 -0.4645 -0.3008
18526THY    HP343922   8.529   0.333   5.735  0.4300 -0.1269  0.6069
18526THY    HP443923   8.546   0.403   5.892  1.3935 -0.5229  0.1973
18526THY    CP343924   8.369   0.190   5.871 -0.3364 -0.2547  0.0784
18526THY    HP543925   8.270   0.144   5.881 -0.1452  2.1602  0.0408
18526THY    HP643926   8.425   0.179   5.965  0.5279 -0.7672  0.0332
18526THY    HP743927   8.411   0.126   5.793 -0.9923 -0.7209  0.2099
18526THY    CA343928   8.232   0.277   5.609  0.4640  0.7100  0.2858
18526THY    HA343929   8.291   0.187   5.601  1.1408 -1.4405  0.8484
18526THY    CA443930   8.145   0.309   5.500  0.0341  0.3360 -0.1713
18526THY    HA443931   8.118   0.237   5.423 -2.6503  1.4628 -0.4793
18526THY    CA543932   8.074   0.432   5.501  0.2565  0.3118 -0.4157
18526THY    CM143933   7.982   0.464   5.388  0.0206  0.0966 -0.0464
18526THY    HM143934   7.982   0.574   5.378  1.0681  4.7134  0.5578
18526THY    HM243935   7.878   0.447   5.418 -0.3459  0.6756  2.6822
18526THY    HM343936   8.008   0.410   5.296 -0.3487  0.7202 -1.3266
18526THY    CA643937   8.080   0.520   5.607 -0.0000 -0.1995  0.9665
18526THY    HA643938   8.011   0.604   5.606  1.3008 -1.6877  2.0806
18527THY      O43939   3.823   8.981   5.678 -0.5444  0.0843 -0.2329
18527THY     HO43940   3.847   8.893   5.644 -0.6811 -0.3000 -0.1259
18527THY    CA143941   3.869   9.082   5.594  0.1818 -0.6383 -0.3944
18527THY    CA243942   3.800   9.119   5.479 -0.5507 -0.2217 -0.5707
18527THY    CP143943   3.675   9.041   5.436  0.1918  0.0703  0.2474
18527THY    HP143944   3.677   8.934   5.461 -1.9860 -0.2860  0.0643
18527THY    CP243945   3.633   9.050   5.288 -0.1368  0.2550 -0.3569
18527THY    HP243946   3.538   8.995   5.280 -1.5169  0.0470  1.9307
18527THY    HP343947   3.701   9.002   5.216  2.3649  0.8794  2.0622
18527THY    HP443948   3.626   9.151   5.245 -0.9370 -1.2746 -1.0165
18527THY    CP343949   3.552   9.095   5.515  0.5603  0.9981 -0.0229
18527THY    HP543950   3.459   9.047   5.484  1.1151  2.7757 -2.4250
18527THY    HP643951   3.549   9.204   5.506 -1.4365 -0.8780 -0.1785
18527THY    HP743952   3.560   9.072   5.622 -1.5624  1.3714  0.7934
18527THY    CA343953   3.847   9.226   5.402  0.5313  0.6217  0.6070
18527THY    HA343954   3.788   9.259   5.317 -0.6740  1.5311  0.9071
18527THY    CA443955   3.955   9.300   5.447 -1.2482 -0.4648 -0.0864
18527THY    HA443956   4.004   9.369   5.379  2.1013  0.0312 -1.7394
18527THY    CA543957   4.017   9.266   5.565  0.1195 -0.1194  0.5405
18527THY    CM143958   4.130   9.346   5.621  0.1969 -0.3220  0.3463
18527THY    HM143959   4.177   9.407   5.544 -1.5569 -1.0669  0.8120
18527THY    HM243960   4.202   9.284   5.675  3.5011 -1.2707  3.0439
18527THY    HM343961   4.104   9.416   5.701 -1.7191  0.1845 -0.8689
18527THY    CA643962   3.976   9.153   5.644 -0.0498  0.8427  0.2409
18527THY    HA643963   4.034   9.127   5.732  0.1517 -0.2011 -3.4919
18528THY      O43964   3.977   4.708   5.051  0.0873 -0.3645  0.6210
18528THY     HO43965   3.989   4.800   5.022 -1.9657  2.1700  1.8211
18528THY    CA143966   4.041   4.637   4.952  0.2318 -0.1262 -0.0161
18528THY    CA243967   4.001   4.502   4.925 -1.0835  0.3500 -0.1235
18528THY    CP143968   3.909   4.414   5.010  0.4831  0.0544 -0.0125
18528THY    HP143969   3.831   4.474   5.058  0.6993 -0.0682  0.3669
18528THY    CP243970   3.991   4.332   5.113 -0.6796 -0.3959  0.6787
18528THY    HP243971   4.062   4.395   5.168 -1.2027  0.2268  0.7344
18528THY    HP343972   4.052   4.260   5.057 -1.1608  0.8085 -0.7112
18528THY    HP443973   3.922   4.283   5.182  0.0118 -0.3321 -0.2321
18528THY    CP343974   3.815   4.313   4.933 -0.2198 -0.2247  0.0937
18528THY    HP543975   3.871   4.259   4.856 -0.1518 -0.6628  0.7742
18528THY    HP643976   3.742   4.372   4.877  0.2240 -2.4972 -1.3531
18528THY    HP743977   3.767   4.234   4.992  1.4474 -1.8906 -2.3084
18528THY    CA343978   4.058   4.434   4.808 -0.1300  0.7039 -0.3907
18528THY    HA343979   4.043   4.328   4.791  0.2607 -0.5282 -0.2589
18528THY    CA443980   4.138   4.508   4.720  0.4102  0.3020 -0.2624
18528THY    HA443981   4.187   4.457   4.638  2.0294  1.1917 -0.2157
18528THY    CA543982   4.169   4.643   4.752  0.1547 -0.4331  0.2960
18528THY    CM143983   4.256   4.728   4.663 -0.2265  0.6907 -0.4539
18528THY    HM143984   4.317   4.657   4.607  0.7247  1.1676 -0.0314
18528THY    HM243985   4.329   4.779   4.727 -1.1149  1.3636 -0.0078
18528THY    HM343986   4.193   4.797   4.605  2.1765  0.0082  1.3283
18528THY    CA643987   4.119   4.706   4.872 -0.0619  0.0037 -0.0619
18528THY    HA643988   4.156   4.806   4.894 -0.5102  0.1325  0.0779
18529THY      O43989   3.066   6.215   2.321 -0.3848  0.1066 -0.0683
18529THY     HO43990   3.027   6.304   2.330  1.5877  2.9701  0.6592
18529THY    CA143991   3.085   6.180   2.453  0.9371  0.7954 -0.0817
18529THY    CA243992   2.975   6.116   2.529 -0.2324  0.3343  0.1013
18529THY    CP143993   2.838   6.122   2.472 -0.1581 -1.0584 -0.5276
18529THY    HP143994   2.825   6.199   2.395 -2.4557  1.1599  1.4678
18529THY    CP243995   2.730   6.139   2.577  0.1953 -1.0605  0.1386
18529THY    HP243996   2.715   6.041   2.625 -1.7513 -1.1385  0.3582
18529THY    HP343997   2.634   6.181   2.543 -2.2335  2.5872 -1.8872
18529THY    HP443998   2.768   6.211   2.650 -0.7893  1.7617 -1.9825
18529THY    CP343999   2.807   5.981   2.398  0.7356 -0.7557  0.0103
18529THY    HP544000   2.871   5.976   2.309  2.6239  0.5630 -0.1283
18529THY    HP644001   2.700   5.991   2.376  0.8167 -1.3683 -0.4113
18529THY    HP744002   2.836   5.900   2.466  1.8322  0.8510  1.6765
18529THY    CA344003   3.000   6.063   2.651  0.3500  0.0433 -0.0894
18529THY    HA344004   2.923   6.024   2.717  1.4829  0.9071 -0.9364
18529THY    CA444005   3.129   6.076   2.700  0.1678 -0.1568 -0.5185
18529THY    HA444006   3.146   6.045   2.803  0.2663  0.5397  1.6256
18529THY    CA544007   3.234   6.137   2.632  0.3393  0.3287 -0.8044
18529THY    CM144008   3.372   6.147   2.678 -0.0410  0.0160 -0.4180
18529THY    HM144009   3.387   6.114   2.781 -1.3695  0.5373  0.5390
18529THY    HM244010   3.408   6.250   2.683 -0.3187 -0.3878 -0.2984
18529THY    HM344011   3.434   6.081   2.615 -1.7758 -1.3705 -0.8038
18529THY    CA644012   3.211   6.177   2.502 -0.1819  0.0637  0.1530
18529THY    HA644013   3.295   6.221   2.449 -0.5815  0.7592  1.8462
18530THY      O44014   2.549   3.510   4.590  0.3231 -0.1474  0.1857
18530THY     HO44015   2.575   3.550   4.675 -2.8194 -0.1861  2.7593
18530THY    CA144016   2.595   3.389   4.582 -0.4560 -0.3627 -0.3783
18530THY    CA244017   2.601   3.319   4.460  0.4802  0.3902 -0.4466
18530THY    CP144018   2.559   3.386   4.332  0.1678 -0.0225  0.4646
18530THY    HP144019   2.500   3.478   4.340  1.1719 -2.6283  1.4573
18530THY    CP244020   2.476   3.289   4.249  0.3388 -0.9885 -0.1879
18530THY    HP244021   2.416   3.234   4.323  2.3279  1.6182  0.9041
18530THY    HP344022   2.534   3.217   4.190 -2.7286 -2.3097 -1.7808
18530THY    HP444023   2.411   3.349   4.184  0.7746 -1.3310 -0.0821
18530THY    CP344024   2.676   3.439   4.249 -0.4462 -0.3671  0.4923
18530THY    HP544025   2.736   3.369   4.190 -0.6447 -1.4611  1.2193
18530THY    HP644026   2.744   3.502   4.308  0.0214 -1.5183  1.1039
18530THY    HP744027   2.634   3.520   4.187 -0.1804  0.6430  1.4244
18530THY    CA344028   2.654   3.188   4.468  0.5587  0.0067  0.2259
18530THY    HA344029   2.675   3.134   4.376  0.7211  1.1825 -1.8270
18530THY    CA444030   2.696   3.141   4.590  0.5190 -0.4812  0.4473
18530THY    HA444031   2.736   3.040   4.598 -0.6413 -0.5740 -0.0316
18530THY    CA544032   2.679   3.207   4.711 -0.2908 -0.0929  0.7892
18530THY    CM144033   2.710   3.138   4.843 -0.3001 -0.2674  0.3821
18530THY    HM144034   2.818   3.136   4.862 -0.4772  0.8842  0.7979
18530THY    HM244035   2.672   3.035   4.852 -2.6150  4.2555  1.3476
18530THY    HM344036   2.670   3.194   4.929 -1.8399  1.3732 -2.9241
18530THY    CA644037   2.622   3.333   4.705  0.0559 -0.3187  0.4420
18530THY    HA644038   2.599   3.384   4.798 -1.5464 -0.3716 -0.1187
18531THY      O44039   7.638   4.270   3.335 -0.5629 -0.5159  0.1396
18531THY     HO44040   7.588   4.352   3.353 -0.9890  1.7478 -0.5733
18531THY    CA144041   7.755   4.308   3.294  0.0545  0.2774  0.1850
18531THY    CA244042   7.856   4.209   3.253 -0.2710  0.8695  0.0711
18531THY    CP144043   7.830   4.061   3.252 -0.5210 -0.1134  0.1319
18531THY    HP144044   7.772   4.030   3.339 -1.3676 -1.1178 -1.2602
18531THY    CP244045   7.955   3.975   3.262 -0.2337  0.3873  0.2483
18531THY    HP244046   7.931   3.873   3.295  0.3281  2.0933  0.6361
18531THY    HP344047   8.026   4.018   3.334 -0.3499  2.4723 -2.7162
18531THY    HP444048   8.009   3.950   3.170 -2.0657 -0.9825  1.1825
18531THY    CP344049   7.737   4.024   3.142 -0.0327  0.8778 -0.7643
18531THY    HP544050   7.656   4.097   3.143  0.8670  0.3613  0.2797
18531THY    HP644051   7.689   3.928   3.163 -0.0515  1.0950 -0.7073
18531THY    HP744052   7.783   4.032   3.042  0.1398  1.0028 -0.1971
18531THY    CA344053   7.976   4.258   3.206 -0.3052  0.1543  0.4179
18531THY    HA344054   8.056   4.197   3.166 -0.5448  0.7011 -0.2685
18531THY    CA444055   8.002   4.394   3.188  0.1206  0.2389 -0.5592
18531THY    HA444056   8.095   4.421   3.141  0.8481  1.6224 -0.5551
18531THY    CA544057   7.907   4.489   3.229  0.2830  1.2072  1.6080
18531THY    CM144058   7.933   4.631   3.219  0.0015 -0.7405  0.3544
18531THY    HM144059   7.866   4.686   3.287 -1.3731 -2.4572  0.8821
18531THY    HM244060   7.898   4.673   3.124 -0.5675 -0.6350  0.1252
18531THY    HM344061   8.035   4.655   3.250 -0.1935  0.3250 -0.1083
18531THY    CA644062   7.780   4.446   3.276 -0.0917 -0.0315 -0.2408
18531THY    HA644063   7.702   4.521   3.283 -0.1274  0.1043 -0.2905
18532THY      O44064   0.227   8.888   2.087 -0.4235  0.6706 -0.3578
18532THY     HO44065   0.190   8.851   2.169 -1.4052  0.6735  0.5931
18532THY    CA144066   0.336   8.960   2.116  0.4048  0.7281 -0.2702
18532THY    CA244067   0.416   9.041   2.024 -0.1659  0.3255  0.5618
18532THY    CP144068   0.409   9.033   1.871 -0.2370 -0.1587 -0.5845
18532THY    HP144069   0.323   8.967   1.852 -1.6664 -2.3967  1.7536
18532THY    CP244070   0.529   8.962   1.807  0.0117 -0.3264 -0.5166
18532THY    HP244071   0.626   8.998   1.842 -0.4784  3.2618 -2.2734
18532THY    HP344072   0.529   8.967   1.697  0.6440 -0.2750  1.7927
18532THY    HP444073   0.536   8.861   1.849 -1.6965  0.2065 -0.4462
18532THY    CP344074   0.368   9.170   1.811  0.1320  0.3779 -0.3271
18532THY    HP544075   0.269   9.205   1.844 -0.1448 -1.7052  1.1136
18532THY    HP644076   0.372   9.163   1.702  2.0510  0.3416  0.5299
18532THY    HP744077   0.444   9.248   1.825  2.0904 -2.2300 -1.6161
18532THY    CA344078   0.512   9.120   2.072  1.1209 -0.0528 -0.0297
18532THY    HA344079   0.567   9.185   2.005  1.1651  0.2361  0.2319
18532THY    CA444080   0.534   9.117   2.207 -0.4511 -0.3848  0.0685
18532THY    HA444081   0.624   9.173   2.232 -0.2801 -0.0035 -0.3706
18532THY    CA544082   0.465   9.042   2.299  0.5198  0.8092  0.7680
18532THY    CM144083   0.504   9.018   2.437  0.4000  0.1175  0.3475
18532THY    HM144084   0.420   9.000   2.504  1.5569  1.6447  0.3994
18532THY    HM244085   0.551   9.109   2.477  0.7407 -0.3080  0.3612
18532THY    HM344086   0.558   8.923   2.447  0.8790 -0.5981  0.5333
18532THY    CA644087   0.359   8.966   2.249 -0.1986  0.0578 -0.8881
18532THY    HA644088   0.303   8.909   2.323  0.2422  0.9319 -0.2053
18533THY      O44089   5.137   0.071   4.243  0.0502  0.1312 -0.2806
18533THY     HO44090   5.085   0.032   4.171 -3.6515  2.0917  0.5647
18533THY    CA144091   5.076   0.194   4.275  0.2911 -0.6538  0.5689
18533THY    CA244092   5.141   0.286   4.358  0.1593 -0.2216  0.4092
18533THY    CP144093   5.270   0.240   4.428  0.0719  0.7500 -0.2669
18533THY    HP144094   5.330   0.193   4.349 -0.2126 -0.1784  0.8802
18533THY    CP244095   5.248   0.138   4.535 -0.0526 -0.1906 -0.5621
18533THY    HP244096   5.343   0.106   4.578  0.3033 -0.0940  0.5803
18533THY    HP344097   5.192   0.046   4.514  1.9651  0.5008 -2.0198
18533THY    HP444098   5.196   0.184   4.620  0.3836  0.5050 -1.3348
18533THY    CP344099   5.352   0.353   4.493  0.0371 -0.6999 -0.0135
18533THY    HP544100   5.440   0.315   4.546 -0.5763  0.2514 -0.1566
18533THY    HP644101   5.290   0.409   4.565 -0.7117  0.3040 -2.0043
18533THY    HP744102   5.395   0.413   4.413  1.3546 -1.4612 -1.8695
18533THY    CA344103   5.079   0.412   4.376 -0.6950  0.7047  0.5341
18533THY    HA344104   5.112   0.481   4.453 -1.5000  2.2813 -0.7457
18533THY    CA444105   4.961   0.444   4.311  0.5183 -0.2592  0.2822
18533THY    HA444106   4.908   0.532   4.347 -0.3543  0.4131 -0.5020
18533THY    CA544107   4.895   0.353   4.231 -0.0901  0.0363  0.0213
18533THY    CM144108   4.756   0.380   4.171  0.2055 -0.0589 -0.1942
18533THY    HM144109   4.758   0.469   4.108  1.6450  0.7757  0.4069
18533THY    HM244110   4.672   0.385   4.242 -1.9734 -2.4557 -0.7528
18533THY    HM344111   4.733   0.302   4.097  1.0435 -2.4865  1.7486
18533THY    CA644112   4.952   0.224   4.212  0.0108 -0.2029  0.5302
18533THY    HA644113   4.897   0.156   4.148 -0.9295  1.3865 -0.2591
18534THY      O44114   6.902   3.930   2.481 -0.0525  0.2870 -0.0622
18534THY     HO44115   6.941   4.018   2.497  0.6305  1.7842 -0.6103
18534THY    CA144116   6.910   3.878   2.607  0.5254 -1.1139  0.0035
18534THY    CA244117   6.908   3.737   2.631 -0.1463 -0.7353 -0.6387
18534THY    CP144118   6.866   3.630   2.530 -0.6231  0.4129 -0.4213
18534THY    HP144119   6.826   3.680   2.440  1.2651  1.1697  2.7482
18534THY    CP244120   6.761   3.537   2.581 -0.3584 -1.2815 -0.1912
18534THY    HP244121   6.796   3.460   2.651 -1.2056  1.6627  1.9635
18534THY    HP344122   6.736   3.467   2.501 -0.3681 -0.5356 -1.0591
18534THY    HP444123   6.685   3.593   2.635  0.9256  0.4230 -0.0053
18534THY    CP344124   6.985   3.554   2.474 -0.2659  0.0105  0.4497
18534THY    HP544125   7.042   3.515   2.559 -0.4218  0.4218  1.0924
18534THY    HP644126   7.048   3.624   2.418 -1.4038 -1.4484  0.3731
18534THY    HP744127   6.957   3.475   2.403  1.7893  0.3271 -0.6140
18534THY    CA344128   6.943   3.689   2.761  0.8666  0.6995 -0.1052
18534THY    HA344129   6.944   3.581   2.771  0.0896  0.5302 -0.1363
18534THY    CA444130   6.966   3.777   2.862  0.1835  0.0246  0.7048
18534THY    HA444131   6.981   3.742   2.963  0.2585 -0.1283  0.2845
18534THY    CA544132   6.963   3.916   2.835  0.2125 -0.1969  0.2137
18534THY    CM144133   7.028   4.016   2.930 -0.4781 -0.7151  0.0116
18534THY    HM144134   7.089   3.953   2.995 -0.4022  0.4936  1.2779
18534THY    HM244135   6.960   4.070   2.998  0.4382  0.8894 -0.7920
18534THY    HM344136   7.083   4.096   2.879  0.1606  0.3372  0.2764
18534THY    CA644137   6.945   3.968   2.707  0.6215  0.6159 -0.1643
18534THY    HA644138   6.950   4.076   2.695  1.1495  0.2162 -0.2296
18535THY      O44139   2.543   1.262   3.691  0.3829  0.1671 -0.0336
18535THY     HO44140   2.592   1.325   3.746  2.7996 -2.2682  0.3985
18535THY    CA144141   2.537   1.308   3.562  0.3373  0.2181 -0.0034
18535THY    CA244142   2.473   1.239   3.456 -0.0325 -0.0710  0.6291
18535THY    CP144143   2.413   1.102   3.486 -0.0738  0.2735  0.2480
18535THY    HP144144   2.415   1.090   3.595 -0.0270  0.0448 -2.4379
18535THY    CP244145   2.494   0.992   3.411 -0.1707  0.7968  0.2254
18535THY    HP244146   2.594   0.975   3.453  0.5058 -0.7620  0.1836
18535THY    HP344147   2.511   1.008   3.304 -5.7490 -0.3324  0.5715
18535THY    HP444148   2.430   0.904   3.414 -0.9895 -1.4455  0.6742
18535THY    CP344149   2.264   1.097   3.454 -0.4079  0.2877 -0.1341
18535THY    HP544150   2.243   1.085   3.347  0.1453 -0.1284  2.1843
18535THY    HP644151   2.206   1.182   3.493 -3.0189 -0.3122 -1.5102
18535THY    HP744152   2.218   1.009   3.501 -1.4120 -0.1141  0.1533
18535THY    CA344153   2.475   1.290   3.328 -0.2500 -0.3026  0.8027
18535THY    HA344154   2.449   1.226   3.245 -1.0333 -1.6928  2.8107
18535THY    CA444155   2.542   1.415   3.305 -0.7999  0.0590 -0.4038
18535THY    HA444156   2.563   1.447   3.203 -1.9544  0.1217  0.6406
18535THY    CA544157   2.593   1.487   3.409  0.1378  0.7676 -0.0065
18535THY    CM144158   2.649   1.628   3.375  0.3269 -0.1413  0.0698
18535THY    HM144159   2.698   1.669   3.464 -0.4645  0.6156 -0.5846
18535THY    HM244160   2.574   1.706   3.360  0.7556  0.1267  0.5387
18535THY    HM344161   2.722   1.629   3.293 -1.1976 -1.5644 -0.1578
18535THY    CA644162   2.588   1.435   3.540  0.2014 -0.0455  0.2614
18535THY    HA644163   2.630   1.491   3.623 -3.5237  1.4198  1.2243
18536THY      O44164   2.754   8.679   5.991 -0.3599 -0.3112  0.0788
18536THY     HO44165   2.753   8.750   6.059 -1.6859  0.8036 -0.9558
18536THY    CA144166   2.774   8.733   5.863  0.3679  0.3709 -0.0674
18536THY    CA244167   2.775   8.650   5.751 -0.3295  1.1866  0.9487
18536THY    CP144168   2.750   8.501   5.765  0.5041  0.0809  0.4338
18536THY    HP144169   2.695   8.486   5.859  0.2981 -0.2152 -0.7764
18536THY    CP244170   2.880   8.415   5.774 -0.7329  0.5326  0.8233
18536THY    HP244171   2.957   8.468   5.831 -0.2547  0.6136  0.0557
18536THY    HP344172   2.923   8.421   5.673 -1.6640  0.0680 -0.0454
18536THY    HP444173   2.867   8.314   5.814  0.0640  2.5969  1.4992
18536THY    CP344174   2.649   8.444   5.659  0.3204 -0.5947  0.2438
18536THY    HP544175   2.559   8.506   5.647  0.5435 -0.2706  0.6335
18536THY    HP644176   2.625   8.338   5.676 -0.8891 -2.2251  0.2169
18536THY    HP744177   2.687   8.457   5.557  0.3943 -0.5841  0.1154
18536THY    CA344178   2.806   8.708   5.624 -0.3925  0.0952 -0.8618
18536THY    HA344179   2.812   8.648   5.533  1.3410 -0.0694 -0.4909
18536THY    CA444180   2.829   8.848   5.616  0.2237  0.0782  0.0073
18536THY    HA444181   2.862   8.889   5.521 -0.0618 -0.0993 -0.1706
18536THY    CA544182   2.838   8.928   5.734 -0.4589  0.5807 -0.2289
18536THY    CM144183   2.896   9.077   5.722  0.7697 -0.2427  0.4708
18536THY    HM144184   2.848   9.134   5.642 -0.6158  0.2484  0.0621
18536THY    HM244185   3.003   9.071   5.703  0.8767  0.4629  0.0434
18536THY    HM344186   2.884   9.124   5.820 -0.7748  0.0239 -0.3936
18536THY    CA644187   2.803   8.875   5.858  0.5041  0.3356  0.9942
18536THY    HA644188   2.812   8.934   5.949  1.5109  0.3732  0.7903
18537THY      O44189   2.146   4.657   4.751  0.5298  0.0402 -0.1705
18537THY     HO44190   2.228   4.707   4.742  0.6010 -0.0089 -0.2942
18537THY    CA144191   2.119   4.613   4.628 -0.5744  0.5439 -0.2887
18537THY    CA244192   1.990   4.567   4.603 -0.7123  0.5575 -0.0887
18537THY    CP144193   1.887   4.552   4.707  1.3144 -0.4787  0.4450
18537THY    HP144194   1.943   4.520   4.796  0.7407 -0.0290  0.6626
18537THY    CP244195   1.779   4.449   4.681  0.4341  0.4936 -0.3473
18537THY    HP244196   1.832   4.358   4.652  2.3058  0.3212  0.7483
18537THY    HP344197   1.699   4.464   4.609 -0.9614  1.8211 -1.0900
18537THY    HP444198   1.745   4.428   4.784  2.0659  0.8868 -1.3130
18537THY    CP344199   1.817   4.688   4.721 -0.3795 -0.1527 -0.4956
18537THY    HP544200   1.893   4.757   4.761 -1.2085  0.2278  0.2117
18537THY    HP644201   1.734   4.680   4.791 -0.2333  0.4941  2.4174
18537THY    HP744202   1.778   4.726   4.626 -0.9959  1.4176  3.2531
18537THY    CA344203   1.975   4.533   4.460  0.4849  0.1182  0.6892
18537THY    HA344204   1.883   4.488   4.423  0.5823  0.9142 -0.1813
18537THY    CA444205   2.068   4.562   4.364  0.3358  0.3428  0.1010
18537THY    HA444206   2.046   4.546   4.259 -1.4207  0.4756  1.3074
18537THY    CA544207   2.194   4.609   4.400  0.6442 -0.0423 -0.0208
18537THY    CM144208   2.300   4.619   4.302  0.2954 -0.2773 -0.7825
18537THY    HM144209   2.366   4.532   4.307  1.4709  0.5236  0.1213
18537THY    HM244210   2.372   4.699   4.326  0.5841 -0.5595 -0.9555
18537THY    HM344211   2.259   4.639   4.202  0.0643  0.2724  1.8256
18537THY    CA644212   2.222   4.634   4.531  0.1517 -0.5193  0.2384
18537THY    HA644213   2.323   4.662   4.558 -0.2932  1.6185 -0.0503
18538THY      O44214   3.696   1.773   6.532  0.3464 -0.9631  0.0743
18538THY     HO44215   3.648   1.846   6.490  1.2290  1.4777  2.2015
18538THY    CA144216   3.720   1.808   6.658  0.4755  1.1110 -0.0293
18538THY    CA244217   3.767   1.720   6.754  0.1272 -0.2514  1.1845
18538THY    CP144218   3.779   1.570   6.710 -0.1556 -0.2143  0.1246
18538THY    HP144219   3.797   1.558   6.602 -0.9941 -0.3838  0.3859
18538THY    CP244220   3.637   1.509   6.731  1.0884 -0.1368  0.4961
18538THY    HP244221   3.639   1.409   6.686 -1.0125  3.3282 -1.2923
18538THY    HP344222   3.563   1.572   6.682 -1.1307  3.0761  0.6102
18538THY    HP444223   3.620   1.504   6.839 -1.8156 -0.5658 -0.4740
18538THY    CP344224   3.891   1.492   6.764 -0.2592  0.7080  0.1679
18538THY    HP544225   3.984   1.520   6.712  0.4939  0.2260 -2.8532
18538THY    HP644226   3.868   1.389   6.734  1.5218  0.1013 -0.0975
18538THY    HP744227   3.901   1.513   6.871  1.3736  0.3795  1.3279
18538THY    CA344228   3.773   1.763   6.890 -0.9970  0.3807  0.8196
18538THY    HA344229   3.784   1.696   6.975 -1.8325  0.7999  1.2048
18538THY    CA444230   3.749   1.900   6.919 -0.6222 -0.6798 -0.3904
18538THY    HA444231   3.755   1.944   7.018  1.6295 -0.9958  0.1354
18538THY    CA544232   3.725   1.991   6.817 -0.3251 -0.3475  0.4104
18538THY    CM144233   3.729   2.136   6.841  0.1435 -0.3444  0.2049
18538THY    HM144234   3.780   2.181   6.755 -0.7215 -0.9460  0.0592
18538THY    HM244235   3.783   2.172   6.929  0.5975 -0.6679  0.3154
18538THY    HM344236   3.631   2.185   6.847 -0.5642  1.6776 -1.3192
18538THY    CA644237   3.708   1.945   6.685  0.3912  0.2366 -1.2001
18538THY    HA644238   3.684   2.020   6.610 -0.0029  0.5781 -0.9826
18539THY      O44239   2.469   5.602   3.124 -0.0435 -0.3246  0.9914
18539THY     HO44240   2.543   5.665   3.131  0.8649  5.4526 -0.0831
18539THY    CA144241   2.444   5.567   2.996  0.2076 -0.2637 -0.0183
18539THY    CA244242   2.424   5.431   2.952  0.3536 -0.7837 -0.0992
18539THY    CP144243   2.434   5.316   3.054 -0.9953 -0.0568  0.3619
18539THY    HP144244   2.478   5.357   3.146 -0.2184  0.0971 -0.7754
18539THY    CP244245   2.528   5.200   3.000 -0.5517  0.8337 -0.6137
18539THY    HP244246   2.630   5.234   2.978 -0.5616  0.0321 -1.0873
18539THY    HP344247   2.493   5.139   2.916  1.0036  0.4456 -1.0223
18539THY    HP444248   2.549   5.140   3.090  1.6245  1.3426  0.7894
18539THY    CP344249   2.298   5.261   3.087  0.0488 -0.0002  0.7737
18539THY    HP544250   2.218   5.336   3.089 -0.6443 -1.7852  0.1334
18539THY    HP644251   2.291   5.190   3.170  0.0004  0.8267  1.7225
18539THY    HP744252   2.260   5.196   3.007 -2.7500  1.7823  0.0142
18539THY    CA344253   2.394   5.410   2.813  1.1345  0.3275  0.4888
18539THY    HA344254   2.369   5.311   2.776 -0.1963  3.2988 -0.4135
18539THY    CA444255   2.391   5.513   2.729 -0.6444  0.9362 -0.2433
18539THY    HA444256   2.385   5.499   2.622  3.1761  0.4457  0.7036
18539THY    CA544257   2.408   5.643   2.773  0.1649  0.4679 -1.3151
18539THY    CM144258   2.401   5.759   2.685  0.3288  0.2338  0.4797
18539THY    HM144259   2.346   5.731   2.594  0.5839  0.4232 -0.6927
18539THY    HM244260   2.508   5.772   2.664  0.4210  1.3996  1.8745
18539THY    HM344261   2.372   5.858   2.723 -1.7307 -1.0232  0.4293
18539THY    CA644262   2.436   5.668   2.904  0.2815  0.1196 -0.7452
18539THY    HA644263   2.447   5.771   2.938 -1.7435 -0.8310 -0.1623
18540THY      O44264   7.037   4.991   7.433  0.4067 -0.6273 -0.0100
18540THY     HO44265   6.985   4.950   7.362 -0.4766 -0.2398  0.4007
18540THY    CA144266   7.062   5.126   7.394  0.1125  0.1895  0.6955
18540THY    CA244267   7.091   5.228   7.489 -0.1811 -0.1790 -0.1698
18540THY    CP144268   7.109   5.187   7.635  0.3098 -0.3589  0.9254
18540THY    HP144269   7.108   5.079   7.654 -0.4760 -0.4377  0.9097
18540THY    CP244270   7.004   5.256   7.724 -0.6123 -0.2220  0.6117
18540THY    HP244271   7.004   5.365   7.727 -1.0751  1.0378  0.5861
18540THY    HP344272   7.015   5.211   7.823 -1.8608 -0.4627 -0.3057
18540THY    HP444273   6.903   5.224   7.695 -0.2239 -0.3099 -0.5881
18540THY    CP344274   7.247   5.226   7.698 -0.2207 -0.2050  0.6586
18540THY    HP544275   7.283   5.328   7.676 -0.5768  1.4766  1.1828
18540THY    HP644276   7.320   5.157   7.656  0.5353  0.9260  0.7345
18540THY    HP744277   7.255   5.209   7.806 -1.7971 -0.3731 -1.6144
18540THY    CA344278   7.111   5.361   7.441 -0.1594  0.1895 -0.1652
18540THY    HA344279   7.129   5.433   7.521  0.6940  0.6690 -0.8949
18540THY    CA444280   7.107   5.391   7.306 -0.3022 -0.3374 -0.4547
18540THY    HA444281   7.137   5.491   7.276  2.0287  0.7301 -0.7526
18540THY    CA544282   7.079   5.296   7.215 -0.0976  0.6828  0.4133
18540THY    CM144283   7.078   5.320   7.070  0.8950  0.5036  0.3759
18540THY    HM144284   6.971   5.302   7.051 -0.0450  4.5757  0.5904
18540THY    HM244285   7.156   5.253   7.033 -0.6805  0.6573 -1.6504
18540THY    HM344286   7.094   5.424   7.042  0.2488  2.3406  1.0232
18540THY    CA644287   7.064   5.162   7.261 -0.2998 -0.3995  0.1244
18540THY    HA644288   7.044   5.080   7.192  0.1167  1.0766 -1.2646
18541THY      O44289   5.192   3.220   4.812 -0.3448  0.0898 -0.1327
18541THY     HO44290   5.279   3.263   4.815 -0.5422 -0.6690  0.3302
18541THY    CA144291   5.174   3.177   4.686 -0.1009 -0.1616 -0.9092
18541THY    CA244292   5.130   3.052   4.643  0.8566 -1.2144  0.7182
18541THY    CP144293   5.119   2.943   4.756  0.2936  0.0689 -0.5972
18541THY    HP144294   5.189   2.962   4.838  0.8457 -0.6250  0.4626
18541THY    CP244295   5.159   2.797   4.719 -0.0834  0.4684  0.2211
18541THY    HP244296   5.264   2.795   4.686 -0.4001 -0.5686 -0.7353
18541THY    HP344297   5.084   2.748   4.656 -0.8012  0.9799  0.6528
18541THY    HP444298   5.164   2.740   4.813  4.7015  0.2117 -0.1844
18541THY    CP344299   4.975   2.958   4.807  0.0714 -0.4370  0.9088
18541THY    HP544300   4.896   2.945   4.732  0.7444 -1.0272  0.0586
18541THY    HP644301   4.960   3.058   4.849  2.1890 -0.0032  1.1092
18541THY    HP744302   4.953   2.881   4.882 -0.6263 -1.8443 -0.3196
18541THY    CA344303   5.116   3.013   4.509  0.0561  0.7244 -0.0974
18541THY    HA344304   5.087   2.913   4.479 -1.1898  2.6604 -0.3731
18541THY    CA444305   5.133   3.117   4.415 -0.2244 -0.5437 -0.2781
18541THY    HA444306   5.109   3.088   4.313 -2.2014  0.7112 -3.7400
18541THY    CA544307   5.185   3.243   4.452  0.0270  0.1982  0.0140
18541THY    CM144308   5.211   3.334   4.340 -0.1433  0.1903  0.2074
18541THY    HM144309   5.212   3.286   4.241  0.8607 -1.0824  2.6232
18541THY    HM244310   5.308   3.383   4.355  0.4472 -0.6526 -0.6751
18541THY    HM344311   5.135   3.413   4.336 -0.5800  0.5029 -0.1978
18541THY    CA644312   5.202   3.271   4.592 -0.0149  0.4206 -0.2134
18541THY    HA644313   5.233   3.369   4.629  1.2327  0.2266 -0.5109
18542THY      O44314   2.475   4.015   7.809 -0.2931 -0.2919 -0.2071
18542THY     HO44315   2.382   4.019   7.839 -1.1241 -2.5166 -1.1224
18542THY    CA144316   2.479   3.930   7.702 -0.3443 -1.1829 -0.0062
18542THY    CA244317   2.592   3.909   7.627  0.5234 -0.1841 -0.4926
18542THY    CP144318   2.714   3.998   7.666 -0.0222 -0.4237 -0.2352
18542THY    HP144319   2.685   4.070   7.744 -0.7034 -1.4678  0.6420
18542THY    CP244320   2.771   4.080   7.545 -0.0144 -0.3197 -0.3887
18542THY    HP244321   2.796   4.015   7.460  1.4500  0.2225 -0.5566
18542THY    HP344322   2.858   4.141   7.570 -0.5515 -0.3201  0.3914
18542THY    HP444323   2.694   4.153   7.517  0.2591  0.5094  0.2316
18542THY    CP344324   2.824   3.920   7.732  0.0979  0.7898  0.3808
18542THY    HP544325   2.890   3.980   7.795  0.5879  2.1472 -1.4857
18542THY    HP644326   2.880   3.863   7.656 -1.3384 -2.4379  2.9351
18542THY    HP744327   2.791   3.849   7.808  1.3165 -0.5895 -1.7804
18542THY    CA344328   2.585   3.802   7.533 -0.5269 -0.1737 -0.4594
18542THY    HA344329   2.678   3.780   7.480  0.0370 -0.7664  2.7239
18542THY    CA444330   2.471   3.729   7.522  0.2065  0.6629 -1.0218
18542THY    HA444331   2.461   3.646   7.454 -2.3100  0.7780 -0.8852
18542THY    CA544332   2.356   3.758   7.597 -0.6478  0.1910 -0.3790
18542THY    CM144333   2.231   3.676   7.581 -0.1191 -0.4703 -0.4193
18542THY    HM144334   2.172   3.682   7.674  0.9192  0.4528 -3.1793
18542THY    HM244335   2.254   3.569   7.578 -0.0499  0.8390 -0.4641
18542THY    HM344336   2.170   3.714   7.498 -1.2567  0.9976  1.1066
18542THY    CA644337   2.358   3.857   7.687 -1.2354 -0.6565 -0.4152
18542THY    HA644338   2.268   3.889   7.741  0.1543  1.0102  0.8856
18543THY      O44339   8.250   4.770   4.021 -0.1298  0.0849 -0.1327
18543THY     HO44340   8.305   4.835   3.976  1.5217  0.8625 -0.9407
18543THY    CA144341   8.174   4.702   3.929 -0.6044  0.2813  0.1587
18543THY    CA244342   8.178   4.564   3.913  0.3958  0.3779  0.6843
18543THY    CP144343   8.273   4.472   4.002 -0.3149 -0.1236 -0.6369
18543THY    HP144344   8.322   4.530   4.081  2.4560 -3.1025  1.4378
18543THY    CP244345   8.376   4.397   3.920  0.3822 -0.3301 -0.7238
18543THY    HP244346   8.340   4.333   3.838  0.2926 -1.2462  0.4631
18543THY    HP344347   8.453   4.349   3.980  1.5264  0.9619  2.4579
18543THY    HP444348   8.438   4.473   3.872 -1.0028  0.9367  1.3165
18543THY    CP344349   8.188   4.375   4.080  0.2685 -0.0668 -0.4594
18543THY    HP544350   8.114   4.424   4.144 -1.8495 -2.1903 -0.6766
18543THY    HP644351   8.248   4.327   4.158  0.1411 -0.3926 -1.1608
18543THY    HP744352   8.144   4.295   4.018 -0.0870  0.6832 -0.8545
18543THY    CA344353   8.102   4.506   3.812  0.4690  0.3547 -0.1337
18543THY    HA344354   8.098   4.398   3.801  0.6928  1.3344 -0.2603
18543THY    CA444355   8.043   4.582   3.723  0.3885  0.6636 -0.5112
18543THY    HA444356   7.995   4.541   3.634  2.9924 -1.7127  1.1820
18543THY    CA544357   8.047   4.718   3.727 -0.3649 -0.7194 -0.5139
18543THY    CM144358   7.971   4.797   3.622 -0.0486  0.4339  0.0455
18543THY    HM144359   7.864   4.775   3.628 -0.0945  1.5392  0.5421
18543THY    HM244360   7.998   4.776   3.518  1.1113  0.4826  1.1819
18543THY    HM344361   7.987   4.902   3.647  0.5013 -0.5750  0.2128
18543THY    CA644362   8.102   4.781   3.843 -0.6027 -0.1570 -0.0780
18543THY    HA644363   8.115   4.889   3.844  1.7376  3.1367 -0.2115
18544THY      O44364   3.755   2.183   3.553  0.3142 -0.3103  0.1598
18544THY     HO44365   3.716   2.094   3.546  2.0268  2.4649 -0.9437
18544THY    CA144366   3.876   2.160   3.497 -0.0102 -0.6229 -0.3876
18544THY    CA244367   3.943   2.260   3.427  0.2107  0.9431 -0.1813
18544THY    CP144368   3.882   2.403   3.418  0.8253 -0.0798  0.2282
18544THY    HP144369   3.827   2.432   3.508  0.4931  0.6054 -2.2471
18544THY    CP244370   3.803   2.426   3.286  0.4123  0.0024 -1.0394
18544THY    HP244371   3.705   2.376   3.278 -0.6507 -0.6890  1.0492
18544THY    HP344372   3.859   2.391   3.199  2.9700  0.1511  2.2397
18544THY    HP444373   3.798   2.534   3.267  0.6186 -2.2088 -1.3730
18544THY    CP344374   3.998   2.500   3.415 -1.0623  0.7455 -0.4652
18544THY    HP544375   4.080   2.463   3.477 -0.8866 -0.0416 -1.4362
18544THY    HP644376   3.966   2.598   3.453 -1.7821  0.7386 -0.6887
18544THY    HP744377   4.035   2.516   3.313 -2.7446  0.1577 -0.0767
18544THY    CA344378   4.064   2.226   3.356  0.2961 -0.4668 -0.3346
18544THY    HA344379   4.120   2.308   3.314  0.0880  3.9614  2.4021
18544THY    CA444380   4.114   2.091   3.358  0.3759  0.1111 -1.1779
18544THY    HA444381   4.203   2.068   3.300  0.1848 -1.8026  2.2143
18544THY    CA544382   4.040   1.994   3.430  0.6224 -0.3119  0.3518
18544THY    CM144383   4.089   1.854   3.430 -0.1528 -0.0566  0.7944
18544THY    HM144384   4.123   1.822   3.529  1.1979 -0.9558 -0.6997
18544THY    HM244385   4.175   1.849   3.362 -0.1280  0.0682 -2.2337
18544THY    HM344386   4.005   1.797   3.389 -0.0880  1.0542 -0.1281
18544THY    CA644387   3.927   2.033   3.498 -0.0709 -0.9589 -0.8475
18544THY    HA644388   3.871   1.953   3.546 -0.1649  0.4268  0.0153
18545THY      O44389   2.005   4.371   3.091  0.0543 -0.2058 -0.1180
18545THY     HO44390   2.046   4.316   3.022  0.6405  0.9517 -1.1732
18545THY    CA144391   1.993   4.290   3.199 -0.2983 -0.1220 -0.0452
18545THY    CA244392   1.877   4.270   3.273  0.8866 -0.9162  0.6613
18545THY    CP144393   1.743   4.320   3.220 -0.1568 -0.4745 -0.1541
18545THY    HP144394   1.748   4.364   3.119 -1.0282 -0.8251 -0.8104
18545THY    CP244395   1.693   4.435   3.303  0.6425 -0.2950  0.0782
18545THY    HP244396   1.770   4.510   3.324 -0.8612 -0.0044  1.5977
18545THY    HP344397   1.666   4.395   3.402  3.1753  0.4454  0.0336
18545THY    HP444398   1.605   4.491   3.268  0.8177 -1.5039 -0.3841
18545THY    CP344399   1.631   4.216   3.209  0.5477 -0.4006  0.3955
18545THY    HP544400   1.659   4.132   3.145 -3.3936 -1.5754 -0.2439
18545THY    HP644401   1.546   4.262   3.158 -0.3102  0.6796  0.0558
18545THY    HP744402   1.596   4.172   3.304  0.1198 -0.8705 -0.3009
18545THY    CA344403   1.874   4.188   3.389 -0.3199 -0.1525 -0.4824
18545THY    HA344404   1.777   4.178   3.436  0.1752  1.1992  0.6815
18545THY    CA444405   1.989   4.130   3.431 -0.1548 -0.3387 -1.0188
18545THY    HA444406   1.974   4.075   3.523  0.3626 -0.4703 -1.3860
18545THY    CA544407   2.106   4.146   3.357 -0.4066  0.0247 -0.0101
18545THY    CM144408   2.239   4.097   3.412 -0.2741  0.4857 -0.1524
18545THY    HM144409   2.325   4.092   3.344 -1.0910 -0.4832 -1.5616
18545THY    HM244410   2.232   3.992   3.445 -2.4251 -0.3851 -0.3277
18545THY    HM344411   2.260   4.145   3.509  0.7084  1.5989 -2.6508
18545THY    CA644412   2.109   4.233   3.240 -0.9366  0.1776  0.7359
18545THY    HA644413   2.201   4.253   3.186 -1.2175 -0.6230 -0.0868
18546THY      O44414   0.315   6.750   4.830  0.2074 -0.1140  0.8151
18546THY     HO44415   0.234   6.702   4.807 -1.6922 -0.6713  4.0322
18546THY    CA144416   0.365   6.695   4.947  0.8982 -0.0904  0.2696
18546THY    CA244417   0.441   6.768   5.040  0.1632 -0.2917 -0.3309
18546THY    CP144418   0.497   6.906   5.010  0.6758  0.0848 -0.0441
18546THY    HP144419   0.446   6.945   4.921 -0.1305  0.8855  0.7790
18546THY    CP244420   0.641   6.881   4.978  0.4443 -0.2179  0.6618
18546THY    HP244421   0.640   6.810   4.894 -0.0812  0.2879  0.0621
18546THY    HP344422   0.688   6.832   5.063 -0.9303  0.2030  0.0171
18546THY    HP444423   0.689   6.971   4.937 -0.2203 -1.3239  0.5381
18546THY    CP344424   0.469   7.007   5.125 -0.8240 -0.2042  0.0701
18546THY    HP544425   0.530   6.984   5.213 -0.3805 -0.5011  0.1078
18546THY    HP644426   0.364   7.001   5.157 -1.1631 -0.3949  3.3884
18546THY    HP744427   0.483   7.111   5.094 -1.6694 -0.8139  0.0110
18546THY    CA344428   0.480   6.701   5.163  0.0169 -0.6003 -0.5569
18546THY    HA344429   0.528   6.757   5.243 -3.3349  0.6165  0.8173
18546THY    CA444430   0.445   6.570   5.186  0.4614  0.6731 -0.6361
18546THY    HA444431   0.489   6.526   5.275  1.5281  0.8073  0.6240
18546THY    CA544432   0.367   6.500   5.094 -0.5672  0.1722  0.2216
18546THY    CM144433   0.338   6.350   5.120 -0.7971  0.1561 -0.1402
18546THY    HM144434   0.362   6.310   5.219 -3.6526  0.9256 -0.1954
18546THY    HM244435   0.401   6.295   5.049  0.0688  1.0415 -0.3041
18546THY    HM344436   0.231   6.330   5.108 -1.2100  1.1811  1.2706
18546THY    CA644437   0.321   6.567   4.982  0.0695  0.0896  0.3928
18546THY    HA644438   0.260   6.513   4.909  0.0953  0.2959  0.0805
18547THY      O44439   3.265   7.749   4.974 -0.1198  0.6717 -0.0127
18547THY     HO44440   3.298   7.829   4.931 -1.5910 -1.5365 -0.5165
18547THY    CA144441   3.205   7.678   4.872  0.2617 -0.2494 -0.3817
18547THY    CA244442   3.206   7.535   4.869  0.2944 -0.1659 -0.3512
18547THY    CP144443   3.280   7.443   4.970  0.3721  1.0322 -0.1367
18547THY    HP144444   3.321   7.496   5.057 -0.6300  2.5437 -1.7428
18547THY    CP244445   3.403   7.374   4.909  0.3818  0.3096 -0.2456
18547THY    HP244446   3.380   7.317   4.819 -0.2321 -1.4839  2.5968
18547THY    HP344447   3.452   7.311   4.984 -0.4274  2.8751  1.9707
18547THY    HP444448   3.471   7.455   4.878  0.7076 -1.9692 -1.3179
18547THY    CP344449   3.176   7.340   5.030  0.0862  0.5969  0.4055
18547THY    HP544450   3.084   7.398   5.042  0.8747  0.0491  1.8250
18547THY    HP644451   3.223   7.311   5.125  1.3196 -0.4756 -1.3224
18547THY    HP744452   3.150   7.256   4.965  0.0429  0.7152  0.3276
18547THY    CA344453   3.131   7.480   4.764  0.5016 -0.4669  0.4084
18547THY    HA344454   3.131   7.372   4.757  1.5829  0.7809  0.2973
18547THY    CA444455   3.061   7.565   4.668 -0.3977  0.4144  0.2758
18547THY    HA444456   3.003   7.508   4.596  0.6357  0.2464 -0.6199
18547THY    CA544457   3.065   7.703   4.675 -0.1365 -0.2015 -0.0835
18547THY    CM144458   2.984   7.781   4.580  0.4359 -0.7681 -0.7999
18547THY    HM144459   2.875   7.769   4.585  0.4672 -2.0537 -1.9392
18547THY    HM244460   3.011   7.760   4.475  0.0352 -1.0096 -0.1341
18547THY    HM344461   3.001   7.889   4.586 -3.4257 -1.0693 -0.0468
18547THY    CA644462   3.146   7.761   4.771  0.4150  0.5735 -0.0623
18547THY    HA644463   3.148   7.869   4.766  1.0702 -3.7158 -0.1290
18548THY      O44464   1.546   5.241   2.422  0.0948  0.1968  0.2704
18548THY     HO44465   1.461   5.198   2.443 -1.8555 -1.9609  2.7585
18548THY    CA144466   1.536   5.262   2.288  0.3588 -0.0128  0.2498
18548THY    CA244467   1.641   5.324   2.214  0.0835 -0.4642 -0.0745
18548THY    CP144468   1.768   5.361   2.291 -0.4334 -0.1132  0.5256
18548THY    HP144469   1.767   5.350   2.400  2.0227 -0.0264  0.6760
18548THY    CP244470   1.823   5.502   2.272  0.0666 -0.2591 -0.3076
18548THY    HP244471   1.888   5.518   2.358 -0.5737 -0.1877  2.4322
18548THY    HP344472   1.738   5.569   2.288 -3.0692 -0.4514 -3.8813
18548THY    HP444473   1.865   5.519   2.172  0.8062 -0.5004 -3.1132
18548THY    CP344474   1.883   5.272   2.246 -0.5531  0.4324 -0.2167
18548THY    HP544475   1.933   5.303   2.153  1.8099  1.7771  0.2226
18548THY    HP644476   1.834   5.176   2.224  1.3930 -0.2051 -1.1175
18548THY    HP744477   1.955   5.266   2.329 -0.7515  0.5409 -1.1958
18548THY    CA344478   1.630   5.337   2.075 -0.2840 -0.1714 -0.4477
18548THY    HA344479   1.710   5.389   2.023 -0.7048 -1.4598 -1.0486
18548THY    CA444480   1.515   5.289   2.010 -0.4084  0.3124  0.3939
18548THY    HA444481   1.500   5.305   1.904 -2.8126  0.2040 -1.9847
18548THY    CA544482   1.411   5.233   2.084 -0.0006  0.1325 -0.2884
18548THY    CM144483   1.283   5.181   2.025 -1.0042 -0.3937 -0.1081
18548THY    HM144484   1.218   5.143   2.105  1.1852  2.1291  1.1306
18548THY    HM244485   1.312   5.110   1.948 -0.8287  0.2533 -0.7457
18548THY    HM344486   1.232   5.258   1.966  0.8524 -1.0254  0.6804
18548THY    CA644487   1.425   5.222   2.222  0.6925 -0.3980  0.2754
18548THY    HA644488   1.350   5.172   2.283  2.2853 -0.9429 -3.0244
18549THY      O44489   3.623   1.946   6.329 -0.2553 -0.5022  0.2433
18549THY     HO44490   3.526   1.940   6.321 -0.4445  1.8723 -0.9687
18549THY    CA144491   3.653   2.051   6.256 -0.0551 -0.5548  0.0090
18549THY    CA244492   3.780   2.090   6.220 -0.5461  0.2025 -0.1780
18549THY    CP144493   3.902   2.015   6.270  0.2710 -0.0805  0.0246
18549THY    HP144494   3.877   1.912   6.301  1.7192 -0.9655 -0.6206
18549THY    CP244495   3.960   2.083   6.393 -0.0865 -0.1063  1.3159
18549THY    HP244496   4.021   2.006   6.443 -0.9308  0.1096  0.7662
18549THY    HP344497   3.887   2.103   6.472  0.7180  1.2256 -0.6475
18549THY    HP444498   4.004   2.179   6.366  1.3132  0.0844  0.7517
18549THY    CP344499   4.021   1.992   6.167  0.5014  0.2431 -0.5340
18549THY    HP544500   4.065   2.090   6.144 -0.9970  3.0995  0.9106
18549THY    HP644501   3.985   1.952   6.072  1.5827  0.2771 -1.6618
18549THY    HP744502   4.112   1.944   6.207  1.6321 -1.7190 -0.1669
18549THY    CA344503   3.798   2.202   6.138 -0.2520  0.4513 -0.0562
18549THY    HA344504   3.898   2.233   6.106 -1.0674 -2.5828 -0.1712
18549THY    CA444505   3.686   2.269   6.093 -0.3599 -0.1282 -0.1691
18549THY    HA444506   3.705   2.348   6.020  1.9883 -1.4927 -1.8533
18549THY    CA544507   3.559   2.233   6.134  0.2784 -0.2816  0.5179
18549THY    CM144508   3.445   2.315   6.094  0.3641  0.2951  0.2347
18549THY    HM144509   3.435   2.417   6.133 -2.8998 -2.0531  0.9818
18549THY    HM244510   3.358   2.258   6.127  0.4443 -0.3258 -0.2546
18549THY    HM344511   3.434   2.312   5.985  2.1052  0.0640  0.8584
18549THY    CA644512   3.540   2.124   6.217  0.6940 -0.6481  0.0961
18549THY    HA644513   3.442   2.113   6.265  0.6360 -0.5332  1.0483
18550THY      O44514   5.578   1.518   7.583 -0.3749  0.2940 -0.1583
18550THY     HO44515   5.551   1.445   7.525 -2.0753 -1.0322  1.4252
18550THY    CA144516   5.481   1.611   7.602 -0.3698  0.1723  0.4758
18550THY    CA244517   5.512   1.743   7.562  0.6595  0.6322  0.2385
18550THY    CP144518   5.650   1.781   7.532  0.1242 -0.2017 -0.2718
18550THY    HP144519   5.721   1.711   7.578 -0.5366  0.0312 -0.8019
18550THY    CP244520   5.706   1.908   7.590  0.2982  0.4125  0.3134
18550THY    HP244521   5.815   1.897   7.587  0.3416  1.4534  0.4036
18550THY    HP344522   5.666   1.923   7.691  0.2910  0.2601  1.4018
18550THY    HP444523   5.661   1.981   7.521 -0.7170  1.0213  0.2888
18550THY    CP344524   5.677   1.778   7.385  0.2977 -0.5356 -0.5169
18550THY    HP544525   5.776   1.818   7.358 -0.6603 -1.8201  1.1279
18550THY    HP644526   5.611   1.846   7.329  3.1406 -3.3593  0.1812
18550THY    HP744527   5.666   1.683   7.333 -1.3650 -3.4377  1.1149
18550THY    CA344528   5.408   1.839   7.571  0.5273  0.3596  0.1614
18550THY    HA344529   5.436   1.941   7.545  2.6864  1.7336 -0.0184
18550THY    CA444530   5.289   1.803   7.632 -0.4512  0.6125  0.2931
18550THY    HA444531   5.209   1.874   7.652  0.3953  1.7043  0.9760
18550THY    CA544532   5.256   1.671   7.655 -0.0970 -0.0797  0.7974
18550THY    CM144533   5.121   1.622   7.702  0.4905  0.0929 -0.3990
18550THY    HM144534   5.055   1.709   7.705 -0.5445 -2.6447 -0.9942
18550THY    HM244535   5.120   1.573   7.800 -0.3139  0.7590  0.8881
18550THY    HM344536   5.073   1.551   7.634  1.3386 -0.0222 -0.8770
18550THY    CA644537   5.351   1.571   7.628  0.7305  0.7681 -0.7872
18550THY    HA644538   5.322   1.467   7.642  0.9301  0.7254 -0.8493
18551THY      O44539   2.998   4.558   1.991  0.4566 -0.4342 -0.4561
18551THY     HO44540   3.002   4.627   2.059 -1.2487 -1.6386  0.9082
18551THY    CA144541   2.925   4.453   2.026  0.1373 -0.4345 -0.0851
18551THY    CA244542   2.882   4.356   1.934  0.5773  0.1140 -0.7776
18551THY    CP144543   2.911   4.377   1.781 -0.1740  0.2711  1.1142
18551THY    HP144544   2.922   4.483   1.757  0.1662 -1.9392  0.6307
18551THY    CP244545   2.815   4.323   1.670 -0.6247 -0.1781 -0.0383
18551THY    HP244546   2.714   4.355   1.699  0.1746  0.0383  2.5515
18551THY    HP344547   2.821   4.215   1.655  3.6748  1.0364 -0.1514
18551THY    HP444548   2.839   4.379   1.579 -0.1853  0.3847  0.7053
18551THY    CP344549   3.052   4.328   1.749  0.4835 -0.2023  0.2913
18551THY    HP544550   3.059   4.220   1.769  1.3209 -1.1018  0.1693
18551THY    HP644551   3.129   4.373   1.813  3.8067 -2.0344 -2.3640
18551THY    HP744552   3.071   4.351   1.644  0.0155 -0.5106 -0.6488
18551THY    CA344553   2.792   4.257   1.985 -0.5487  0.4522 -0.3650
18551THY    HA344554   2.764   4.175   1.918  2.2797  0.9772 -1.8866
18551THY    CA444555   2.750   4.254   2.119  0.0992 -0.2327  0.3648
18551THY    HA444556   2.684   4.175   2.154  0.5133  0.4925  0.3369
18551THY    CA544557   2.790   4.353   2.208  0.6049 -0.1623  0.1878
18551THY    CM144558   2.740   4.351   2.346  0.8774  0.3834 -0.3879
18551THY    HM144559   2.798   4.426   2.402  2.7777 -1.0312 -0.7293
18551THY    HM244560   2.761   4.259   2.400  1.7641 -1.5086 -1.3404
18551THY    HM344561   2.632   4.375   2.349  0.7931 -0.2839 -0.6811
18551THY    CA644562   2.885   4.445   2.157  0.4330 -0.7332  0.7258
18551THY    HA644563   2.903   4.522   2.230 -1.6265  0.3635  0.2439
18552THY      O44564   6.524   0.999   3.488  0.1299 -0.1495 -0.1324
18552THY     HO44565   6.532   1.080   3.434 -0.2817  0.6998  0.4922
18552THY    CA144566   6.386   0.996   3.511  0.3639  0.8144  0.2832
18552THY    CA244567   6.325   0.919   3.604 -0.2073  0.1557  0.0476
18552THY    CP144568   6.409   0.808   3.663 -0.5823 -0.1294 -0.0140
18552THY    HP144569   6.515   0.794   3.639 -0.6271 -0.4510  0.1890
18552THY    CP244570   6.351   0.662   3.635 -0.0914  0.0449  0.0755
18552THY    HP244571   6.295   0.645   3.542 -1.9044  1.0534  0.3039
18552THY    HP344572   6.273   0.638   3.708  0.5592  1.3830  1.8611
18552THY    HP444573   6.417   0.575   3.646 -0.6009 -0.5711 -0.3991
18552THY    CP344574   6.426   0.836   3.818  0.5811  0.0635 -0.3065
18552THY    HP544575   6.325   0.840   3.861  0.6103  0.0566  0.6368
18552THY    HP644576   6.465   0.937   3.833 -3.6476  0.0722  1.5528
18552THY    HP744577   6.496   0.768   3.868 -0.9669  1.3208 -1.0357
18552THY    CA344578   6.186   0.918   3.622  0.1374  0.5707 -0.1427
18552THY    HA344579   6.144   0.846   3.692  1.9953  1.3969 -0.4599
18552THY    CA444580   6.110   1.013   3.551  0.7526 -0.1752  0.2639
18552THY    HA444581   6.003   1.012   3.571  0.7086 -0.4118 -0.6010
18552THY    CA544582   6.177   1.105   3.463  1.1289 -0.6967  0.3073
18552THY    CM144583   6.103   1.207   3.390 -0.0081  0.3366 -0.7359
18552THY    HM144584   6.119   1.310   3.423 -3.0849  1.0356 -0.4062
18552THY    HM244585   5.998   1.189   3.415  0.6717  4.2663 -0.1576
18552THY    HM344586   6.127   1.202   3.283  0.1958  0.0908  2.9228
18552THY    CA644587   6.314   1.098   3.442 -0.5811 -0.2547  0.5347
18552THY    HA644588   6.362   1.167   3.374 -0.8052 -0.5171  0.4310
18553THY      O44589   1.824   3.983   4.882  0.5226  0.3179 -0.2663
18553THY     HO44590   1.800   3.954   4.971  0.4766  0.9506  1.5688
18553THY    CA144591   1.916   4.080   4.898  0.0568 -0.1620  0.8555
18553THY    CA244592   2.023   4.097   4.812 -0.2283 -0.3053  0.2535
18553THY    CP144593   2.031   4.002   4.686 -0.0461 -0.1308 -0.2572
18553THY    HP144594   1.954   3.924   4.686 -0.0658 -1.5112 -0.2674
18553THY    CP244595   2.165   3.939   4.687 -0.0868  0.2312 -0.4634
18553THY    HP244596   2.192   3.909   4.789 -1.1319  0.9287  0.8560
18553THY    HP344597   2.242   4.012   4.660 -0.0127 -0.7037 -0.8661
18553THY    HP444598   2.175   3.858   4.613 -2.1982 -1.3360  0.6040
18553THY    CP344599   2.020   4.096   4.564 -0.0018  0.0241 -0.0148
18553THY    HP544600   1.930   4.159   4.568  0.3474 -0.5620  0.5389
18553THY    HP644601   2.005   4.033   4.475  1.2477 -0.5932  0.5186
18553THY    HP744602   2.105   4.164   4.551 -0.3940  2.2219  0.9699
18553THY    CA344603   2.115   4.203   4.829 -0.2553 -0.4077  0.1664
18553THY    HA344604   2.206   4.214   4.771 -0.9160 -1.6563 -0.6743
18553THY    CA444605   2.099   4.294   4.935  0.0101  0.2133  0.6860
18553THY    HA444606   2.164   4.380   4.937 -0.6621 -0.4597  1.2216
18553THY    CA544607   1.976   4.287   5.011 -0.7883 -0.2084  0.3636
18553THY    CM144608   1.945   4.394   5.114 -0.1220  0.1167  0.0657
18553THY    HM144609   1.839   4.409   5.134  0.3502  1.7483  1.5290
18553THY    HM244610   1.976   4.489   5.070 -1.2651  1.3950  1.0611
18553THY    HM344611   2.007   4.386   5.205  1.7198 -1.0929 -0.1824
18553THY    CA644612   1.886   4.181   4.996  0.1732  0.3875 -0.0833
18553THY    HA644613   1.793   4.173   5.052  0.0605  0.0908 -0.9665
18554THY      O44614   5.775   6.771   6.911  0.1085 -0.3964 -0.7104
18554THY     HO44615   5.720   6.734   6.840 -0.2971 -1.4166  1.6336
18554THY    CA144616   5.742   6.905   6.905 -0.4740  0.2028 -0.1635
18554THY    CA244617   5.747   6.981   7.022  0.1459 -0.0928  0.4397
18554THY    CP144618   5.807   6.933   7.156  0.1204  0.3224  0.1301
18554THY    HP144619   5.864   6.843   7.130 -0.6348  0.3239 -0.3627
18554THY    CP244620   5.696   6.884   7.255 -0.4789 -0.0885  0.1996
18554THY    HP244621   5.632   6.821   7.194  0.7082  0.3618 -1.5125
18554THY    HP344622   5.642   6.964   7.307  1.9074  0.4380  1.5775
18554THY    HP444623   5.738   6.823   7.336  0.8319 -1.0045 -0.1584
18554THY    CP344624   5.906   7.029   7.222 -0.2659 -0.4146  0.3994
18554THY    HP544625   5.852   7.103   7.282  0.8963  0.0950  0.8475
18554THY    HP644626   5.966   7.091   7.154 -2.1767 -2.2224  0.3856
18554THY    HP744627   5.972   6.977   7.292 -0.8324  0.5330  0.9252
18554THY    CA344628   5.702   7.117   6.998  0.3923 -0.4649 -0.7050
18554THY    HA344629   5.698   7.177   7.088  0.8101 -0.2587 -0.9864
18554THY    CA444630   5.636   7.164   6.883  0.1008  0.0486 -0.4295
18554THY    HA444631   5.591   7.262   6.873  0.4730 -0.4218 -0.3040
18554THY    CA544632   5.631   7.086   6.772  0.3810  0.2320  0.4849
18554THY    CM144633   5.573   7.129   6.648 -0.1107 -0.5608 -0.3806
18554THY    HM144634   5.520   7.225   6.656 -1.9172 -2.0345 -1.1844
18554THY    HM244635   5.490   7.068   6.611 -1.2377  1.9078 -0.4956
18554THY    HM344636   5.656   7.133   6.578  1.3212  1.0190 -1.1997
18554THY    CA644637   5.692   6.959   6.777 -0.1513  0.0758 -0.4105
18554THY    HA644638   5.687   6.887   6.696 -0.1726  0.4858 -0.8767
18555THY      O44639   4.355   1.628   2.166  0.2450 -0.4369 -0.5225
18555THY     HO44640   4.280   1.618   2.228 -0.4176 -1.0672  0.3783
18555THY    CA144641   4.457   1.691   2.234 -0.0472  0.0585 -0.5526
18555THY    CA244642   4.548   1.777   2.165 -0.6716 -0.3605 -0.5794
18555THY    CP144643   4.528   1.798   2.013 -0.3146 -0.3735  0.0514
18555THY    HP144644   4.498   1.706   1.961 -0.7130 -0.5147  0.2585
18555THY    CP244645   4.660   1.813   1.945  0.1143  0.6995 -0.2746
18555THY    HP244646   4.645   1.804   1.837  1.4120  0.6030 -1.7134
18555THY    HP344647   4.734   1.736   1.972 -1.8130  0.5565 -2.2470
18555THY    HP444648   4.701   1.914   1.961  0.1020  0.2986 -0.2034
18555THY    CP344649   4.416   1.899   1.968 -0.1834 -1.4157 -0.4525
18555THY    HP544650   4.406   1.905   1.859  1.0550 -1.4744  1.9726
18555THY    HP644651   4.446   1.998   2.004  1.0287  0.8862 -1.5702
18555THY    HP744652   4.318   1.876   2.012 -0.2909 -1.4664 -0.0983
18555THY    CA344653   4.641   1.855   2.240  0.4717 -0.0568  0.3231
18555THY    HA344654   4.699   1.935   2.195  0.5414 -0.2926  0.1424
18555THY    CA444655   4.635   1.842   2.377 -0.0708  0.3449 -0.3103
18555THY    HA444656   4.701   1.903   2.437 -2.1292  0.6378  1.7801
18555THY    CA544657   4.554   1.756   2.446  0.3718 -0.5283  0.5007
18555THY    CM144658   4.541   1.773   2.599  0.1611 -0.0918  0.1399
18555THY    HM144659   4.632   1.729   2.641  0.7662 -2.4570 -1.0664
18555THY    HM244660   4.457   1.715   2.639  0.3043 -0.1176 -0.0844
18555THY    HM344661   4.537   1.878   2.631  0.3148  1.9007 -0.4195
18555THY    CA644662   4.459   1.680   2.376 -0.2564  0.2047 -0.0243
18555THY    HA644663   4.372   1.639   2.427 -0.9329  0.1488  1.2837
18556THY      O44664   7.989   0.855   5.816  0.3025  0.0970 -0.2961
18556THY     HO44665   7.942   0.852   5.901 -0.7386 -0.4720 -0.6822
18556THY    CA144666   8.064   0.968   5.813 -0.9007 -0.2570 -0.2595
18556THY    CA244667   8.175   0.986   5.726 -0.5886  0.0150 -0.4513
18556THY    CP144668   8.213   0.881   5.622 -0.4405  0.7563 -0.1669
18556THY    HP144669   8.166   0.786   5.653 -1.6051  0.9371  0.4526
18556THY    CP244670   8.364   0.850   5.616 -0.3071  0.7435  0.0505
18556THY    HP244671   8.431   0.935   5.598 -0.3494 -0.2986 -0.1200
18556THY    HP344672   8.377   0.793   5.523 -0.9902 -0.6867  2.1368
18556THY    HP444673   8.402   0.798   5.705  0.3410 -0.0668 -0.9046
18556THY    CP344674   8.156   0.906   5.480 -0.4726  0.0222 -0.0188
18556THY    HP544675   8.176   0.823   5.411  1.2117  1.3968 -0.8012
18556THY    HP644676   8.187   1.000   5.433 -2.7071  0.2163  0.8818
18556THY    HP744677   8.047   0.911   5.489 -0.5952 -0.4825 -1.2626
18556THY    CA344678   8.241   1.109   5.717 -0.1917  0.2341  0.1108
18556THY    HA344679   8.331   1.116   5.655 -0.4873 -0.2026  0.1153
18556THY    CA444680   8.192   1.215   5.795 -0.0154  0.2322 -0.4544
18556THY    HA444681   8.221   1.318   5.776  0.1856 -1.7589 -0.8226
18556THY    CA544682   8.091   1.185   5.888 -0.3947 -0.1113 -1.2441
18556THY    CM144683   8.037   1.303   5.970  1.1259  0.5988 -0.8315
18556THY    HM144684   7.949   1.277   6.030  0.3478 -0.4562 -0.6893
18556THY    HM244685   8.012   1.386   5.903  0.9604 -0.3864 -1.6600
18556THY    HM344686   8.119   1.351   6.024  0.3952 -2.1372  4.2147
18556THY    CA644687   8.025   1.069   5.903 -0.5195  0.5632  0.7053
18556THY    HA644688   7.944   1.054   5.973 -0.6257  0.6878  1.7582
18557THY      O44689   6.559   5.001   3.850  0.2992  0.0774 -0.2639
18557THY     HO44690   6.505   5.055   3.790  1.1755 -0.1355  0.4072
18557THY    CA144691   6.661   5.077   3.904  0.6915  0.5708  0.0011
18557THY    CA244692   6.775   5.018   3.952  0.0813 -0.6373 -0.0593
18557THY    CP144693   6.794   4.873   3.927  0.7240  0.8995 -0.2908
18557THY    HP144694   6.702   4.819   3.904  1.7521  1.3195 -2.3039
18557THY    CP244695   6.849   4.798   4.052 -0.0764  0.5519  0.8436
18557THY    HP244696   6.880   4.695   4.030 -0.2443  2.5739  0.3330
18557THY    HP344697   6.777   4.801   4.134  0.1387  0.7241  1.7236
18557THY    HP444698   6.945   4.839   4.085 -0.1426  3.4756 -1.1236
18557THY    CP344699   6.896   4.854   3.809  0.0559 -0.1653  0.7757
18557THY    HP544700   6.898   4.751   3.771  2.6288  3.0303 -0.5199
18557THY    HP644701   6.994   4.880   3.850  0.6428  0.1112 -1.5871
18557THY    HP744702   6.880   4.931   3.733  2.0330 -1.4135  0.0306
18557THY    CA344703   6.879   5.103   3.996  0.3104  0.9446  0.6962
18557THY    HA344704   6.968   5.068   4.048  0.9924 -0.2973  0.5311
18557THY    CA444705   6.856   5.236   4.004 -0.1057  0.3380 -0.0264
18557THY    HA444706   6.928   5.300   4.055 -2.5033 -0.3993  3.5279
18557THY    CA544707   6.738   5.291   3.951  0.5249 -0.5789  0.1121
18557THY    CM144708   6.713   5.439   3.964  0.2970 -0.8035 -0.2656
18557THY    HM144709   6.748   5.476   4.061  0.5112 -1.6912  1.9796
18557THY    HM244710   6.605   5.456   3.954  0.2003 -1.2439 -1.0672
18557THY    HM344711   6.768   5.490   3.884 -0.2730 -0.1006  1.5080
18557THY    CA644712   6.641   5.218   3.898  0.5055 -0.5554  0.2494
18557THY    HA644713   6.544   5.260   3.875  0.9252 -1.9510  0.4945
18558THY      O44714   7.615   7.666   7.663 -0.3859  0.3037 -0.2103
18558THY     HO44715   7.622   7.754   7.622  0.1644 -1.1257 -0.8888
18558THY    CA144716   7.612   7.580   7.556  0.4755 -0.6647 -0.6642
18558THY    CA244717   7.690   7.463   7.540  0.2851 -0.0290 -0.4791
18558THY    CP144718   7.810   7.438   7.624 -0.0956  1.1147 -0.7070
18558THY    HP144719   7.822   7.524   7.691  3.6130 -0.3314  0.0757
18558THY    CP244720   7.936   7.430   7.537 -0.0461  0.4558 -0.1987
18558THY    HP244721   8.005   7.369   7.596  0.0512 -0.6190 -1.1656
18558THY    HP344722   7.981   7.524   7.502  0.2473  0.4581 -0.3402
18558THY    HP444723   7.902   7.369   7.452 -3.4968  0.5793  1.3106
18558THY    CP344724   7.784   7.310   7.700  0.1055  0.3277  0.5486
18558THY    HP544725   7.858   7.292   7.779 -0.0252  0.0260 -1.5828
18558THY    HP644726   7.775   7.222   7.635 -2.2003  1.6584 -0.2926
18558THY    HP744727   7.687   7.306   7.752 -0.6421 -1.0191 -3.3092
18558THY    CA344728   7.650   7.372   7.437  1.0389  0.7610 -0.2000
18558THY    HA344729   7.687   7.271   7.422  0.7745  0.4608 -0.2526
18558THY    CA444730   7.538   7.406   7.349 -0.8756 -0.9689 -0.4222
18558THY    HA444731   7.505   7.343   7.267 -0.6322 -3.4209  2.3837
18558THY    CA544732   7.471   7.530   7.358  0.2327  0.1016 -0.1076
18558THY    CM144733   7.368   7.563   7.247  0.4334 -0.3350  0.6394
18558THY    HM144734   7.293   7.486   7.224 -1.2999  2.5769  1.2927
18558THY    HM244735   7.410   7.603   7.154 -1.1005 -0.7426  1.3781
18558THY    HM344736   7.316   7.645   7.299  0.8207  3.0585 -1.0835
18558THY    CA644737   7.505   7.610   7.471 -0.0645 -0.5755 -0.8421
18558THY    HA644738   7.451   7.704   7.477  0.4620  0.4160 -0.5944
18559THY      O44739   1.930   6.887   5.017  0.3217  0.1683  0.6544
18559THY     HO44740   2.017   6.850   4.994 -0.4986 -1.0122 -0.6538
18559THY    CA144741   1.955   6.994   5.092  0.7747  0.1670 -0.4294
18559THY    CA244742   1.856   7.041   5.182  0.2776 -0.7525 -0.8349
18559THY    CP144743   1.725   6.962   5.213 -0.0988 -0.5002 -0.3276
18559THY    HP144744   1.717   6.886   5.134 -1.8720 -0.7752  0.1013
18559THY    CP244745   1.598   7.046   5.192 -0.2472  0.3395 -0.2548
18559THY    HP244746   1.594   7.103   5.099 -1.1846  1.4645  1.6136
18559THY    HP344747   1.594   7.110   5.281  1.2173  1.1974 -1.2728
18559THY    HP444748   1.511   6.979   5.187 -0.5055 -0.5682  0.1390
18559THY    CP344749   1.730   6.886   5.343 -0.0328 -0.4242 -0.2197
18559THY    HP544750   1.786   6.935   5.424 -0.4254 -0.1643 -0.2016
18559THY    HP644751   1.783   6.793   5.320 -1.0652 -0.5727 -0.7812
18559THY    HP744752   1.625   6.866   5.367 -0.2402 -3.0811 -3.1208
18559THY    CA344753   1.883   7.154   5.265  0.1913  0.1492  0.2232
18559THY    HA344754   1.819   7.177   5.349  0.9179  0.9237 -0.4989
18559THY    CA444755   2.009   7.217   5.246 -0.0312 -0.0811  0.3040
18559THY    HA444756   2.045   7.292   5.315  0.0771 -0.4270  0.5747
18559THY    CA544757   2.104   7.177   5.149  0.7658  0.7813 -0.3201
18559THY    CM144758   2.232   7.249   5.142  0.5577 -0.7234 -0.5768
18559THY    HM144759   2.295   7.222   5.227  1.0329 -0.0718  2.2685
18559THY    HM244760   2.212   7.357   5.138 -1.1611  1.2283 -0.7702
18559THY    HM344761   2.286   7.231   5.048 -1.1691 -2.0025  0.6061
18559THY    CA644762   2.070   7.064   5.063 -0.1084 -0.5757 -1.0658
18559THY    HA644763   2.145   7.029   4.993  1.6440  1.3297 -1.2979
18560THY      O44764   6.024   3.992   2.763  0.2857  0.2068 -0.0210
18560THY     HO44765   6.047   3.939   2.841 -0.0880 -0.0754 -0.6125
18560THY    CA144766   5.996   4.116   2.810  0.0442  0.2860 -1.0624
18560THY    CA244767   5.939   4.218   2.731 -0.2689 -0.3657 -0.0894
18560THY    CP144768   5.916   4.202   2.580  0.2819 -0.6454  0.4771
18560THY    HP144769   5.956   4.104   2.553  1.2209  3.1352 -0.3499
18560THY    CP244770   5.982   4.310   2.493 -0.0509 -0.3971 -0.3838
18560THY    HP244771   5.904   4.368   2.443  0.7767  0.0357  1.1537
18560THY    HP344772   6.040   4.275   2.407  1.1061  0.3000 -0.2294
18560THY    HP444773   6.040   4.381   2.552  0.6451  0.2617 -1.4740
18560THY    CP344774   5.766   4.200   2.551  0.4256 -0.1317  0.5695
18560THY    HP544775   5.722   4.116   2.608 -1.3421  0.5155  1.8818
18560THY    HP644776   5.743   4.173   2.448 -2.1685  0.2150  1.1726
18560THY    HP744777   5.704   4.288   2.569 -1.7431  2.2471 -1.2701
18560THY    CA344778   5.900   4.337   2.794  0.0918  0.6555  0.0232
18560THY    HA344779   5.849   4.410   2.731  0.5071 -2.1676 -1.9735
18560THY    CA444780   5.911   4.353   2.935 -0.1920 -0.3105  0.1249
18560THY    HA444781   5.872   4.445   2.978 -0.1156 -1.6469  0.8123
18560THY    CA544782   5.972   4.248   3.004 -0.0753 -0.1989  0.1017
18560THY    CM144783   5.996   4.272   3.152  0.0912  1.0606  0.2536
18560THY    HM144784   6.073   4.350   3.158  2.4462  1.3846 -1.9542
18560THY    HM244785   6.036   4.180   3.199 -0.5039  0.5152 -0.2917
18560THY    HM344786   5.903   4.309   3.196 -1.0967 -1.2285  0.1415
18560THY    CA644787   6.007   4.131   2.946 -0.4402  0.4609  0.1452
18560THY    HA644788   6.046   4.052   3.010  1.5558  0.5119  1.1051
18561THY      O44789   3.147   1.793   2.646  0.0687  0.3274  0.5997
18561THY     HO44790   3.070   1.846   2.673 -1.2973  1.3419 -1.7750
18561THY    CA144791   3.226   1.847   2.548  0.8144 -0.7896  0.6582
18561THY    CA244792   3.319   1.769   2.479 -0.6189 -0.8013  0.6723
18561THY    CP144793   3.348   1.627   2.531 -0.8682  1.2445 -0.7861
18561THY    HP144794   3.302   1.617   2.630 -0.5118  1.3924 -0.9784
18561THY    CP244795   3.501   1.602   2.549  1.0411 -0.3137 -0.3501
18561THY    HP244796   3.541   1.605   2.447 -0.6489 -1.0298  3.4697
18561THY    HP344797   3.517   1.509   2.606 -0.8784 -1.6793 -1.6044
18561THY    HP444798   3.537   1.687   2.607 -1.4972  1.0900 -0.1256
18561THY    CP344799   3.276   1.525   2.454 -0.3681 -0.3498  1.1845
18561THY    HP544800   3.287   1.429   2.505  0.9906 -0.0471  1.4779
18561THY    HP644801   3.322   1.511   2.356 -0.9875 -0.3582 -1.1677
18561THY    HP744802   3.167   1.537   2.459 -0.7923  0.5052 -2.2384
18561THY    CA344803   3.376   1.826   2.359  0.0584  0.1500  0.0106
18561THY    HA344804   3.443   1.766   2.298 -1.1571 -0.6353 -0.5847
18561THY    CA444805   3.338   1.951   2.317  0.2217  0.1207 -0.1278
18561THY    HA444806   3.373   1.989   2.222  0.2828 -0.2909 -1.1824
18561THY    CA544807   3.244   2.025   2.390  0.4550  0.9320  0.3787
18561THY    CM144808   3.199   2.153   2.328  0.4839  0.0741 -0.4158
18561THY    HM144809   3.093   2.148   2.299  0.4506 -0.5286  2.1648
18561THY    HM244810   3.251   2.174   2.234  3.5947  1.9734  0.9941
18561THY    HM344811   3.212   2.228   2.407 -1.1713  0.8774 -0.9230
18561THY    CA644812   3.187   1.969   2.502  0.4936 -0.0290 -0.1569
18561THY    HA644813   3.102   2.017   2.549  0.9429  0.3581  0.2726
18562THY      O44814   7.660   8.471   5.820 -0.2621 -0.9125 -0.4700
18562THY     HO44815   7.627   8.485   5.911 -4.0107 -2.0468 -0.7820
18562THY    CA144816   7.756   8.381   5.835 -0.7005 -0.1243 -0.1131
18562THY    CA244817   7.813   8.318   5.725 -0.4741  0.4518 -0.2892
18562THY    CP144818   7.761   8.352   5.586 -0.0907 -0.6252 -0.2250
18562THY    HP144819   7.654   8.371   5.591  0.2020 -1.9672  2.1087
18562THY    CP244820   7.766   8.236   5.487 -0.2870 -0.1436 -0.1113
18562THY    HP244821   7.735   8.143   5.535 -0.9753  0.0732  0.2228
18562THY    HP344822   7.873   8.227   5.463 -0.6216 -2.9042  1.9271
18562THY    HP444823   7.712   8.260   5.394 -0.4868  0.0912  0.3587
18562THY    CP344824   7.842   8.481   5.542  0.2529  0.3095  0.0677
18562THY    HP544825   7.777   8.541   5.477  0.5599 -0.9432 -0.9153
18562THY    HP644826   7.914   8.438   5.472 -1.1842 -1.0227 -0.2963
18562THY    HP744827   7.884   8.536   5.627 -0.9309  1.1358 -0.2530
18562THY    CA344828   7.917   8.226   5.745 -0.8313  0.2354 -0.1578
18562THY    HA344829   7.968   8.178   5.661 -1.4104 -0.1881 -0.0480
18562THY    CA444830   7.968   8.204   5.872  0.5196  0.0547 -0.2310
18562THY    HA444831   8.057   8.143   5.880  1.5467 -3.7644  0.5321
18562THY    CA544832   7.909   8.274   5.980  0.5634 -0.2201  0.2511
18562THY    CM144833   7.957   8.241   6.106  0.2218 -0.0558 -0.1452
18562THY    HM144834   7.995   8.139   6.119  1.7597  1.3776  0.5559
18562THY    HM244835   7.879   8.262   6.181 -0.0966 -1.0299  2.6216
18562THY    HM344836   8.037   8.312   6.131  1.1829  0.9805 -1.5550
18562THY    CA644837   7.800   8.359   5.968 -0.3576  0.3822  0.1359
18562THY    HA644838   7.764   8.413   6.055  1.2672  0.5278  1.0703
18563THY      O44839   5.105   1.424   3.550 -0.6260  0.3370 -0.2889
18563THY     HO44840   5.119   1.410   3.455 -1.0327  0.1490  0.4900
18563THY    CA144841   5.134   1.309   3.616 -0.0997  0.9181 -0.8230
18563THY    CA244842   5.215   1.308   3.737 -0.5520 -0.5475 -0.7806
18563THY    CP144843   5.276   1.440   3.791 -0.5308 -0.3784  0.3619
18563THY    HP144844   5.268   1.510   3.708  0.8758  1.2216  2.5537
18563THY    CP244845   5.422   1.424   3.833 -0.0298  0.3438  0.4975
18563THY    HP244846   5.426   1.354   3.917 -2.6096 -1.1779 -1.6814
18563THY    HP344847   5.469   1.520   3.856  0.4141 -2.4731  1.0441
18563THY    HP444848   5.476   1.388   3.744  2.4069  2.6533 -2.0960
18563THY    CP344849   5.198   1.500   3.905 -0.1111  0.2681 -0.7369
18563THY    HP544850   5.250   1.594   3.924  1.8104 -1.1469 -1.4381
18563THY    HP644851   5.194   1.442   3.998 -1.4133 -1.0110 -2.8477
18563THY    HP744852   5.091   1.516   3.885 -0.8124  3.1701 -1.1549
18563THY    CA344853   5.247   1.184   3.796  0.0703 -0.2873 -0.0997
18563THY    HA344854   5.301   1.173   3.889  0.5120 -0.1617  2.4289
18563THY    CA444855   5.194   1.071   3.730 -0.2035  0.0275  0.3305
18563THY    HA444856   5.217   0.977   3.778 -0.9968  2.5645  1.3415
18563THY    CA544857   5.122   1.073   3.619 -0.0395  0.1633 -0.2269
18563THY    CM144858   5.077   0.945   3.547  0.1534 -0.1734  0.3906
18563THY    HM144859   5.056   0.963   3.441 -1.0919  0.0806  0.4904
18563THY    HM244860   4.981   0.917   3.592  0.8422  0.8671 -0.3597
18563THY    HM344861   5.147   0.863   3.569  0.6922 -3.2078 -0.0631
18563THY    CA644862   5.083   1.194   3.560 -0.1993  0.3923 -0.0137
18563THY    HA644863   5.023   1.197   3.469  0.1911  0.1275  2.4291
18564THY      O44864   9.119   7.067   2.585 -0.1766  0.4587 -0.2627
18564THY     HO44865   9.091   7.013   2.509 -0.9045 -0.7793  1.7556
18564THY    CA144866   9.015   7.053   2.664 -0.3671 -1.0850  0.0471
18564THY    CA244867   9.012   7.106   2.794  0.3236 -0.1289  0.4940
18564THY    CP144868   9.132   7.181   2.847 -0.6586  0.3345  0.0995
18564THY    HP144869   9.218   7.172   2.779 -0.0655  1.1176 -0.2638
18564THY    CP244870   9.183   7.123   2.978  0.0593 -0.7486 -0.2303
18564THY    HP244871   9.269   7.177   3.016  0.1536  0.9247 -1.4731
18564THY    HP344872   9.219   7.022   2.953  0.6573  1.1931 -0.5399
18564THY    HP444873   9.099   7.134   3.048  0.8103  0.0654  0.3450
18564THY    CP344874   9.106   7.330   2.849 -0.4945 -0.0151 -0.3479
18564THY    HP544875   9.197   7.375   2.891 -0.6018  0.3096 -0.4309
18564THY    HP644876   9.019   7.358   2.910 -0.3850  0.6418 -1.4010
18564THY    HP744877   9.089   7.379   2.753 -0.5763  0.5614  0.8029
18564THY    CA344878   8.893   7.094   2.864 -0.4046  0.5599 -0.3693
18564THY    HA344879   8.886   7.123   2.968 -1.4911  0.2956  0.3549
18564THY    CA444880   8.788   7.021   2.816 -0.2567  0.0678 -0.4435
18564THY    HA444881   8.696   7.010   2.872  0.4915  1.4427  0.1093
18564THY    CA544882   8.794   6.971   2.684 -0.6254 -0.0241 -0.3546
18564THY    CM144883   8.679   6.887   2.628  0.5341 -0.2638  0.1919
18564THY    HM144884   8.716   6.784   2.626  0.8782 -0.5476  0.3184
18564THY    HM244885   8.642   6.911   2.527  1.2451 -0.7459 -0.6957
18564THY    HM344886   8.593   6.887   2.696 -0.3177 -1.3017  1.1456
18564THY    CA644887   8.911   6.984   2.608  0.4571  0.1749 -0.4702
18564THY    HA644888   8.918   6.953   2.504  0.0133  0.0026 -0.0141
18565THY      O44889   5.170   8.975   1.940 -0.9641 -0.1141 -0.0556
18565THY     HO44890   5.238   8.955   2.006 -0.5107 -0.2895  0.8852
18565THY    CA144891   5.179   8.887   1.835 -0.6124 -0.3572 -0.5935
18565THY    CA244892   5.095   8.909   1.721  0.0209  0.4285  0.8229
18565THY    CP144893   4.971   9.000   1.720 -0.8691  0.3429  0.2735
18565THY    HP144894   4.964   9.060   1.811 -1.5411  0.2371  0.3624
18565THY    CP244895   4.845   8.918   1.713 -0.2080 -0.0413  0.2534
18565THY    HP244896   4.764   8.990   1.728  1.1320  1.0087  1.6088
18565THY    HP344897   4.845   8.843   1.794 -0.2390 -0.0088  0.2883
18565THY    HP444898   4.837   8.871   1.614 -1.5275 -0.2099  0.7998
18565THY    CP344899   4.980   9.093   1.598 -0.4037  0.2478 -0.3375
18565THY    HP544900   4.964   9.038   1.504  0.9290  0.5746 -1.3350
18565THY    HP644901   5.066   9.157   1.579  0.4643 -2.3612 -2.0646
18565THY    HP744902   4.903   9.169   1.613 -0.6754  1.3365 -0.8062
18565THY    CA344903   5.104   8.811   1.625  0.0498  0.0188  0.3174
18565THY    HA344904   5.033   8.811   1.542 -1.2017  1.0490  0.4598
18565THY    CA444905   5.217   8.727   1.621 -0.3502  0.1067 -0.3794
18565THY    HA444906   5.232   8.669   1.531 -0.8647 -1.7980  2.2759
18565THY    CA544907   5.306   8.718   1.732 -0.3922 -0.3986 -0.1655
18565THY    CM144908   5.440   8.656   1.713 -0.2723  0.2497 -0.3174
18565THY    HM144909   5.495   8.707   1.633 -0.3133  0.2681 -0.2446
18565THY    HM244910   5.418   8.550   1.696 -1.6536 -1.9762  0.2585
18565THY    HM344911   5.506   8.666   1.801 -0.5471  0.2997  1.2182
18565THY    CA644912   5.279   8.792   1.841 -0.4424 -0.2030 -0.3554
18565THY    HA644913   5.344   8.787   1.928  0.1097 -0.4602  1.6321
18566THY      O44914   1.864   6.299   7.502 -0.2630 -0.6512 -0.5684
18566THY     HO44915   1.878   6.256   7.588  0.9576 -0.5591  0.0001
18566THY    CA144916   1.774   6.228   7.428 -0.1753  0.7786 -0.3116
18566THY    CA244917   1.681   6.286   7.336 -0.7738  0.2807  0.3687
18566THY    CP144918   1.668   6.437   7.312 -0.4568 -0.4165 -0.5522
18566THY    HP144919   1.766   6.485   7.321 -0.2783 -1.3171 -0.7102
18566THY    CP244920   1.581   6.506   7.409 -0.3597  0.1077 -0.1313
18566THY    HP244921   1.545   6.436   7.486  0.1478 -2.3104 -3.3119
18566THY    HP344922   1.490   6.544   7.361  0.2755 -0.0522  1.2235
18566THY    HP444923   1.632   6.594   7.448  1.1400 -1.6208 -0.1822
18566THY    CP344924   1.645   6.476   7.165  1.3077 -0.2328 -1.0785
18566THY    HP544925   1.542   6.441   7.146  0.9039 -0.4606  0.1741
18566THY    HP644926   1.699   6.424   7.085 -1.5737 -1.9087 -1.7685
18566THY    HP744927   1.639   6.582   7.140 -0.6950 -1.7544 -1.4870
18566THY    CA344928   1.602   6.190   7.268 -0.3715  0.4091 -1.4877
18566THY    HA344929   1.527   6.235   7.204 -0.0458  1.0149 -0.0254
18566THY    CA444930   1.606   6.056   7.289 -0.6257 -0.4801  0.5456
18566THY    HA444931   1.540   5.983   7.243  1.0455 -3.0377  0.5352
18566THY    CA544932   1.685   6.007   7.391 -0.0246  0.6819  0.2232
18566THY    CM144933   1.686   5.857   7.412  0.0797 -0.7816  0.2638
18566THY    HM144934   1.594   5.812   7.373  3.0862 -3.5780 -4.2418
18566THY    HM244935   1.710   5.840   7.518 -1.2896 -0.2682  1.3192
18566THY    HM344936   1.761   5.818   7.342  1.5758 -0.1148  1.8003
18566THY    CA644937   1.772   6.091   7.456  0.0608  0.4366 -0.0516
18566THY    HA644938   1.833   6.052   7.537 -1.1623  1.5910  0.3702
18567THY      O44939   3.870   4.780   6.551 -0.2912 -0.4755 -0.0842
18567THY     HO44940   3.842   4.722   6.479  0.1886 -0.6841 -0.0675
18567THY    CA144941   3.754   4.787   6.621 -0.6701  0.0330 -0.2715
18567THY    CA244942   3.732   4.891   6.716 -0.3388  0.4782 -0.1913
18567THY    CP144943   3.840   4.991   6.763  0.0014  0.2067  0.0826
18567THY    HP144944   3.937   4.960   6.720 -0.2337  1.6525 -2.9851
18567THY    CP244945   3.866   4.971   6.911 -0.6155  0.1844 -0.1769
18567THY    HP244946   3.967   5.006   6.937 -0.8969  1.2287 -0.0897
18567THY    HP344947   3.859   4.863   6.928  0.9744  0.3930 -0.2830
18567THY    HP444948   3.803   5.029   6.980  2.0662  1.3212  1.6093
18567THY    CP344949   3.808   5.128   6.724 -0.2424 -0.3894  0.5418
18567THY    HP544950   3.801   5.125   6.614  0.9525 -0.4711  0.2715
18567THY    HP644951   3.883   5.204   6.743 -1.4923  1.5180  1.3652
18567THY    HP744952   3.710   5.153   6.768  0.5469  1.1477  1.0110
18567THY    CA344953   3.604   4.900   6.776  0.0915  0.0017 -0.6864
18567THY    HA344954   3.588   4.986   6.841  1.3425 -0.8069  0.1796
18567THY    CA444955   3.506   4.806   6.742  0.7497 -0.1263  0.5761
18567THY    HA444956   3.405   4.819   6.780  0.8694  0.4036 -0.0166
18567THY    CA544957   3.525   4.706   6.646 -0.3459 -0.1400 -0.9992
18567THY    CM144958   3.415   4.629   6.592 -0.1130 -0.1697 -0.2121
18567THY    HM144959   3.436   4.523   6.611 -3.1693  2.6697 -0.4738
18567THY    HM244960   3.398   4.651   6.486  1.6987  0.0053  2.4545
18567THY    HM344961   3.320   4.656   6.640  0.0018 -0.6623  1.1198
18567THY    CA644962   3.650   4.699   6.583  0.0044  0.0358 -0.4168
18567THY    HA644963   3.674   4.631   6.502 -1.6247 -0.9303  0.1112
18568THY      O44964   1.706   6.663   4.947  0.1898  0.7532 -0.4978
18568THY     HO44965   1.751   6.746   4.970 -1.8743  0.4711  0.7677
18568THY    CA144966   1.641   6.676   4.824  0.4079  0.2129  0.1956
18568THY    CA244967   1.547   6.585   4.776  0.1700 -0.8025 -0.7232
18568THY    CP144968   1.513   6.455   4.855  0.4565 -0.6677  0.3651
18568THY    HP144969   1.591   6.419   4.923 -1.9611  1.3687 -1.4371
18568THY    CP244970   1.509   6.341   4.749  0.5986 -1.0762  0.1026
18568THY    HP244971   1.590   6.343   4.676  1.4842 -0.1581 -0.7137
18568THY    HP344972   1.411   6.344   4.700 -0.6395  1.2530  1.0077
18568THY    HP444973   1.519   6.242   4.795  1.1560 -0.2586  0.5253
18568THY    CP344974   1.386   6.477   4.943  0.6681 -0.6920  0.0844
18568THY    HP544975   1.296   6.506   4.887  0.0269  1.1167  1.8126
18568THY    HP644976   1.402   6.563   5.009 -1.1904 -0.0565 -0.0205
18568THY    HP744977   1.363   6.379   4.987  0.1867 -1.6402 -0.2491
18568THY    CA344978   1.488   6.620   4.653  0.2994  0.3177  0.1758
18568THY    HA344979   1.412   6.552   4.615  0.2986 -0.2036  0.4646
18568THY    CA444980   1.527   6.734   4.580  0.6983  0.5077 -0.3175
18568THY    HA444981   1.478   6.759   4.486 -0.9676  1.7776  1.5279
18568THY    CA544982   1.615   6.827   4.640  0.6428 -0.4447  0.1268
18568THY    CM144983   1.657   6.940   4.559 -0.2878 -0.2230  0.3127
18568THY    HM144984   1.710   7.019   4.613  0.4756  0.6157 -0.7453
18568THY    HM244985   1.568   6.988   4.516  1.1659 -2.0939  1.4922
18568THY    HM344986   1.713   6.911   4.469  0.5103 -0.2487  1.8450
18568THY    CA644987   1.663   6.799   4.772 -0.9098  0.5443 -0.7146
18568THY    HA644988   1.735   6.868   4.818 -0.2633 -0.3015 -0.8068
18569THY      O44989   3.099   8.664   4.984  0.2347 -0.7184  0.1576
18569THY     HO44990   3.030   8.605   4.950 -0.4779 -0.1685  0.6511
18569THY    CA144991   3.024   8.750   5.054 -0.1525 -0.0696 -0.2437
18569THY    CA244992   3.056   8.787   5.182  0.0364  0.2892 -1.4182
18569THY    CP144993   3.171   8.728   5.263  0.1187 -0.1631 -0.1152
18569THY    HP144994   3.218   8.645   5.208  2.1667  0.4128  0.5891
18569THY    CP244995   3.124   8.658   5.398 -0.3444 -0.3777 -0.1148
18569THY    HP244996   3.196   8.598   5.454  0.3414 -1.5743 -0.4494
18569THY    HP344997   3.048   8.580   5.386 -0.4230  1.5183 -0.3724
18569THY    HP444998   3.090   8.731   5.472  1.4994  2.7792 -2.2175
18569THY    CP344999   3.279   8.830   5.303 -0.1383 -0.3270 -0.6132
18569THY    HP545000   3.296   8.908   5.228  3.7445  2.0299  1.0978
18569THY    HP645001   3.372   8.778   5.328 -0.7325 -0.5898 -1.8347
18569THY    HP745002   3.238   8.871   5.396 -1.2778 -0.7323 -0.7915
18569THY    CA345003   2.977   8.893   5.246  0.1066 -0.1299  0.4214
18569THY    HA345004   3.009   8.931   5.343  1.0497 -0.8429  1.5327
18569THY    CA445005   2.862   8.941   5.180  0.6306 -0.5932  0.5908
18569THY    HA445006   2.793   9.011   5.226  1.9356 -0.8031  2.0877
18569THY    CA545007   2.815   8.884   5.059 -0.3577 -0.2380 -0.1295
18569THY    CM145008   2.692   8.928   4.996 -0.5129  0.8810  0.0815
18569THY    HM145009   2.684   9.035   4.974 -2.1951  0.3761 -0.1174
18569THY    HM245010   2.605   8.904   5.058  0.4880  1.8505 -1.1650
18569THY    HM345011   2.677   8.881   4.898 -0.9259  0.9811  0.0009
18569THY    CA645012   2.902   8.794   4.994 -0.3112  0.0171  0.1229
18569THY    HA645013   2.874   8.748   4.899 -0.7011 -0.0598  0.5138
18570THY      O45014   4.294   4.680   5.431 -0.2268  0.0002  0.2180
18570THY     HO45015   4.298   4.669   5.335 -0.8985 -0.1701  1.2252
18570THY    CA145016   4.415   4.693   5.483  0.2310  0.3353 -0.2740
18570THY    CA245017   4.429   4.778   5.590  0.1674  0.2092  0.1024
18570THY    CP145018   4.302   4.845   5.652 -1.0829  0.0209  0.4871
18570THY    HP145019   4.214   4.785   5.628  0.1288 -0.4260 -1.1734
18570THY    CP245020   4.284   4.989   5.605 -0.0851  0.0531 -0.3257
18570THY    HP245021   4.198   5.033   5.656  0.7921  1.8997 -0.6707
18570THY    HP345022   4.253   4.990   5.500 -1.3140  0.3386  2.9348
18570THY    HP445023   4.381   5.039   5.619 -0.0141  1.5842 -0.8342
18570THY    CP345024   4.298   4.859   5.810  0.0907  0.1331 -0.4574
18570THY    HP545025   4.362   4.944   5.835  0.1507  0.4884 -0.6044
18570THY    HP645026   4.342   4.771   5.858  0.7951 -0.3647 -0.3773
18570THY    HP745027   4.194   4.878   5.840 -0.3804  0.4938 -3.2555
18570THY    CA345028   4.555   4.812   5.638 -0.8830  0.4886 -0.2704
18570THY    HA345029   4.571   4.892   5.709  0.7797  0.5806 -0.6340
18570THY    CA445030   4.668   4.745   5.583 -0.1703  0.2245 -0.7273
18570THY    HA445031   4.767   4.773   5.619 -0.8438  1.3816  0.2725
18570THY    CA545032   4.658   4.653   5.486  0.8525  0.0412 -0.2776
18570THY    CM145033   4.777   4.588   5.423 -0.3373 -0.0154  0.1778
18570THY    HM145034   4.748   4.522   5.341  1.5509  0.5627 -1.4771
18570THY    HM245035   4.824   4.521   5.496 -0.1788 -0.5612 -0.3164
18570THY    HM345036   4.849   4.666   5.394  0.3732  0.4923 -0.2771
18570THY    CA645037   4.528   4.628   5.434 -0.0804  0.5984  0.5505
18570THY    HA645038   4.515   4.560   5.350  0.0649  0.6685  0.4371
18571THY      O45039   4.987   0.261   3.887 -0.0150  0.4310  0.3218
18571THY     HO45040   4.980   0.198   3.960 -0.5321  0.5600  0.5232
18571THY    CA145041   4.862   0.292   3.846  0.3724  0.4399 -0.0707
18571THY    CA245042   4.821   0.424   3.824  0.3747 -0.0420 -0.9704
18571THY    CP145043   4.938   0.523   3.820  0.0895 -0.8124  0.4379
18571THY    HP145044   5.022   0.476   3.769  0.5953 -0.1208  0.5841
18571THY    CP245045   4.983   0.578   3.949 -0.0763 -0.0418  0.0016
18571THY    HP245046   4.901   0.617   4.009  2.3303  1.1798  3.7194
18571THY    HP345047   5.050   0.661   3.926 -1.3125 -0.0197  1.0243
18571THY    HP445048   5.036   0.497   4.001 -0.8263 -0.5539 -0.8399
18571THY    CP345049   4.899   0.647   3.727 -0.2204  0.7516  0.3697
18571THY    HP545050   4.823   0.713   3.771 -1.0549  0.7681 -0.5844
18571THY    HP645051   4.861   0.611   3.631  2.6254 -1.7399  3.4587
18571THY    HP745052   4.983   0.711   3.698 -1.3840 -1.1469  1.1175
18571THY    CA345053   4.686   0.456   3.812 -0.4308  0.2464 -0.6841
18571THY    HA345054   4.644   0.552   3.786 -1.8417  0.0130 -1.3380
18571THY    CA445055   4.592   0.349   3.808  0.1830  0.3063 -0.4159
18571THY    HA445056   4.486   0.368   3.792  0.4994  0.6283  1.8766
18571THY    CA545057   4.629   0.217   3.826 -0.0465  0.5071 -0.8991
18571THY    CM145058   4.523   0.107   3.822  0.4756 -0.6088  0.1999
18571THY    HM145059   4.448   0.110   3.743 -0.8972  0.5692 -1.1522
18571THY    HM245060   4.463   0.115   3.914 -0.7572 -1.4987  1.6548
18571THY    HM345061   4.578   0.013   3.808  0.3244 -2.1221  0.3161
18571THY    CA645062   4.766   0.193   3.839 -0.7940  0.2512  0.4502
18571THY    HA645063   4.798   0.090   3.853 -1.8932 -2.6328 -0.3842
18572THY      O45064   8.727   0.725   7.345 -0.1564  0.0182  0.3568
18572THY     HO45065   8.811   0.702   7.302 -1.2457 -1.6674 -0.6836
18572THY    CA145066   8.671   0.608   7.355  0.0693  0.8584 -0.7250
18572THY    CA245067   8.538   0.581   7.387  0.7526 -0.4972 -0.4222
18572THY    CP145068   8.431   0.687   7.391 -0.0537 -0.7449  0.0432
18572THY    HP145069   8.466   0.781   7.347 -1.3979 -3.0702 -0.4686
18572THY    CP245070   8.386   0.718   7.534  0.2527 -0.2043  0.5606
18572THY    HP245071   8.475   0.737   7.596 -0.1101  0.2333  0.8565
18572THY    HP345072   8.341   0.630   7.582 -0.5302  0.4460  1.2937
18572THY    HP445073   8.323   0.807   7.534 -1.0590 -1.6279 -0.3328
18572THY    CP345074   8.309   0.653   7.309 -0.2150 -0.3080 -0.6764
18572THY    HP545075   8.338   0.627   7.206 -0.6377 -0.6207  0.0416
18572THY    HP645076   8.224   0.722   7.316  0.1095 -0.8620 -0.2027
18572THY    HP745077   8.265   0.557   7.337 -1.4719 -3.5475 -1.1889
18572THY    CA345078   8.495   0.444   7.418  0.7293  0.0939  0.4665
18572THY    HA345079   8.398   0.418   7.460  1.0056  0.0141 -0.7469
18572THY    CA445080   8.591   0.340   7.400 -0.2509  0.2681  0.1659
18572THY    HA445081   8.575   0.235   7.423  2.1978 -0.4317 -0.4170
18572THY    CA545082   8.722   0.369   7.369 -0.5869 -0.4401  0.4416
18572THY    CM145083   8.826   0.264   7.358  0.5230  0.3511 -0.0839
18572THY    HM145084   8.828   0.201   7.448  1.4966  0.2918 -0.1527
18572THY    HM245085   8.925   0.308   7.346 -0.0411 -1.1591  0.8286
18572THY    HM345086   8.798   0.196   7.276 -0.7881  2.4308 -2.2463
18572THY    CA645087   8.763   0.502   7.344  0.3879 -0.5016  0.2338
18572THY    HA645088   8.867   0.517   7.318  0.2805 -0.1616  1.7714
18573THY      O45089   1.969   0.408   4.730 -0.1275 -0.1038 -0.0969
18573THY     HO45090   1.883   0.449   4.710  1.6946 -1.7192  3.4149
18573THY    CA145091   2.030   0.380   4.612  0.0827  0.5641  0.4055
18573THY    CA245092   2.161   0.335   4.608  0.6088 -0.2405 -0.3409
18573THY    CP145093   2.230   0.312   4.745 -0.7466 -0.1651 -0.0647
18573THY    HP145094   2.188   0.379   4.821 -2.3922 -0.6853 -0.4512
18573THY    CP245095   2.382   0.346   4.737  0.1158  0.0334  1.1222
18573THY    HP245096   2.431   0.269   4.676 -1.8425 -1.7955  1.2502
18573THY    HP345097   2.430   0.355   4.835  0.0724 -0.0665  2.6400
18573THY    HP445098   2.381   0.443   4.686 -3.2064  0.8273  1.6500
18573THY    CP345099   2.216   0.167   4.792 -0.3745 -0.2124 -0.2003
18573THY    HP545100   2.267   0.158   4.889  0.4695 -0.3332  2.3326
18573THY    HP645101   2.269   0.093   4.731 -0.9564  1.1925 -1.8148
18573THY    HP745102   2.109   0.143   4.789 -0.0415 -2.6523 -1.7814
18573THY    CA345103   2.232   0.322   4.484 -0.1324 -0.0716  0.0821
18573THY    HA345104   2.335   0.286   4.482 -0.3306  1.9316 -0.6758
18573THY    CA445105   2.160   0.339   4.362 -0.1918  0.0469  0.3012
18573THY    HA445106   2.214   0.325   4.269  2.3197  1.6728 -1.5654
18573THY    CA545107   2.028   0.377   4.368 -0.3179 -0.2896 -0.0826
18573THY    CM145108   1.960   0.407   4.235 -0.9950 -0.1598 -0.8067
18573THY    HM145109   1.997   0.331   4.165 -1.1701 -2.3582  1.0397
18573THY    HM245110   1.982   0.507   4.196 -1.0781  2.2716  0.2221
18573THY    HM345111   1.851   0.396   4.243 -1.0908  1.1818  0.6951
18573THY    CA645112   1.963   0.401   4.494  0.2635  0.3386 -0.0712
18573THY    HA645113   1.862   0.440   4.493  0.4128  0.8144  0.3308
18574THY      O45114   7.081   2.280   6.842 -0.3775 -0.0368  0.0268
18574THY     HO45115   7.024   2.231   6.904 -3.7387 -1.9258  1.2061
18574THY    CA145116   7.095   2.204   6.735  0.0235 -0.1758  0.4321
18574THY    CA245117   7.150   2.073   6.746 -0.4269  0.1061 -0.1379
18574THY    CP145118   7.182   2.015   6.886  0.2328 -0.2976 -0.2597
18574THY    HP145119   7.118   2.056   6.965  2.1738  1.8506 -1.1485
18574THY    CP245120   7.320   2.063   6.930  0.2328 -0.0643  0.5873
18574THY    HP245121   7.396   2.046   6.853  2.3734  2.1438 -0.5368
18574THY    HP345122   7.335   1.997   7.017  0.1443 -0.1732  0.4241
18574THY    HP445123   7.320   2.169   6.958  2.4287  0.4241  0.5092
18574THY    CP345124   7.156   1.863   6.887 -0.2987  0.4332  0.2296
18574THY    HP545125   7.131   1.833   6.989  1.6317  0.5219 -1.2767
18574THY    HP645126   7.242   1.803   6.856 -0.5511 -0.2428  0.2044
18574THY    HP745127   7.077   1.827   6.819  0.4237 -0.0793 -0.4179
18574THY    CA345128   7.173   2.001   6.640  0.3435  0.1725  0.4159
18574THY    HA345129   7.225   1.906   6.644  0.7917 -0.9745  0.5951
18574THY    CA445130   7.126   2.045   6.516  0.7633 -0.1748  0.3047
18574THY    HA445131   7.142   1.981   6.430  0.5594 -0.0210  0.0474
18574THY    CA545132   7.069   2.175   6.502  0.0198 -0.3588 -0.8287
18574THY    CM145133   7.009   2.214   6.369  0.4157  0.5248  0.3170
18574THY    HM145134   7.034   2.313   6.330  1.0446  1.5052  0.5584
18574THY    HM245135   6.900   2.224   6.384  0.3121 -0.3708  0.6455
18574THY    HM345136   7.021   2.144   6.286 -1.7888 -0.6870  1.2755
18574THY    CA645137   7.063   2.255   6.612 -0.2793 -0.2447 -0.8915
18574THY    HA645138   7.024   2.356   6.619 -0.5923  1.8414 -1.1054
18575THY      O45139   3.343   5.935   7.377  0.2376  0.1264  0.2052
18575THY     HO45140   3.268   5.984   7.416 -1.3464  1.3509 -2.9500
18575THY    CA145141   3.300   5.938   7.244 -0.6547 -0.4823  0.3348
18575THY    CA245142   3.336   5.835   7.154  0.8493 -0.3401  0.0349
18575THY    CP145143   3.422   5.720   7.207 -0.2482  0.0474  0.4108
18575THY    HP145144   3.505   5.777   7.252  0.2140  0.3466 -0.4825
18575THY    CP245145   3.479   5.637   7.092 -0.3068  0.3335  0.5369
18575THY    HP245146   3.566   5.580   7.128 -0.7977  1.2350  0.3414
18575THY    HP345147   3.514   5.702   7.011 -1.1002  0.7644  1.5261
18575THY    HP445148   3.398   5.577   7.049 -0.2801 -0.1057  0.8099
18575THY    CP345149   3.348   5.626   7.306 -0.5022  0.0494 -0.1813
18575THY    HP545150   3.313   5.669   7.401 -2.5219 -1.1509  0.9536
18575THY    HP645151   3.415   5.540   7.321 -0.9240  2.5932 -0.1424
18575THY    HP745152   3.254   5.597   7.258 -2.1235  1.1999  2.7508
18575THY    CA345153   3.275   5.839   7.026 -0.6550 -0.2402  0.5452
18575THY    HA345154   3.302   5.772   6.946 -0.5198 -1.6694  2.2292
18575THY    CA445155   3.197   5.947   6.982  0.0272 -0.3838 -0.0843
18575THY    HA445156   3.131   5.939   6.896  0.2769 -0.7541  1.4675
18575THY    CA545157   3.175   6.054   7.070  0.3569 -0.2914  0.2106
18575THY    CM145158   3.089   6.170   7.031  0.0034 -0.2103  0.0329
18575THY    HM145159   2.989   6.126   7.016 -0.0999  0.9585 -0.1748
18575THY    HM245160   3.115   6.220   6.938 -1.2170 -0.2910  0.5598
18575THY    HM345161   3.101   6.251   7.104  0.6082 -0.9257  0.6020
18575THY    CA645162   3.227   6.043   7.200  0.2163  0.1486  0.1956
18575THY    HA645163   3.214   6.125   7.271  0.3115  1.5088 -0.9197
18576THY      O45164   4.898   2.578   4.198  0.0801 -0.8122  0.2207
18576THY     HO45165   4.848   2.659   4.177  0.7674  0.0149  0.8696
18576THY    CA145166   4.886   2.575   4.330 -1.0369  0.3600 -0.1923
18576THY    CA245167   4.980   2.505   4.404  0.0462  0.2499  0.3243
18576THY    CP145168   5.088   2.426   4.336 -0.4333 -0.1006 -0.4457
18576THY    HP145169   5.055   2.374   4.245  0.9212 -0.9947  0.2130
18576THY    CP245170   5.129   2.310   4.424  0.1061  0.5240 -0.1650
18576THY    HP245171   5.037   2.275   4.472 -2.1950 -2.0974  1.8494
18576THY    HP345172   5.208   2.339   4.493  0.4609 -0.4525  1.2865
18576THY    HP445173   5.182   2.233   4.366  1.7090  2.2170 -0.3872
18576THY    CP345174   5.213   2.521   4.310  0.3908  0.4277  0.1044
18576THY    HP545175   5.240   2.569   4.404 -0.2395  0.6629  0.0022
18576THY    HP645176   5.180   2.599   4.240 -0.2187 -0.8803 -1.2625
18576THY    HP745177   5.296   2.462   4.269 -1.9717 -0.0619 -3.1670
18576THY    CA345178   4.973   2.516   4.545 -0.1685  0.1072  0.3529
18576THY    HA345179   5.039   2.462   4.612 -3.1570  3.3398  0.3077
18576THY    CA445180   4.873   2.597   4.603 -0.1334 -0.5083 -0.0752
18576THY    HA445181   4.871   2.598   4.711 -0.0088 -0.5093  0.2416
18576THY    CA545182   4.776   2.657   4.530 -0.3055  0.4113  0.3250
18576THY    CM145183   4.663   2.732   4.587 -0.4542 -0.3182 -0.2426
18576THY    HM145184   4.668   2.837   4.555 -1.8251  0.3260  0.0413
18576THY    HM245185   4.658   2.722   4.696  2.8469  0.0977  1.3627
18576THY    HM345186   4.576   2.678   4.546  0.4813 -0.4578 -1.7151
18576THY    CA645187   4.789   2.654   4.389  0.0507  0.3338 -0.6792
18576THY    HA645188   4.727   2.717   4.326 -1.4682  0.0007 -2.4103
18577THY      O45189   5.429   3.240   6.986  0.3957  0.3456 -0.1881
18577THY     HO45190   5.444   3.171   7.053 -1.0791 -1.4394 -2.4060
18577THY    CA145191   5.453   3.190   6.865 -0.4056  0.1537 -0.4451
18577THY    CA245192   5.457   3.269   6.754  0.2951  0.5006 -0.6216
18577THY    CP145193   5.430   3.419   6.763 -0.5002 -0.3947 -0.2004
18577THY    HP145194   5.378   3.445   6.856 -2.4552 -1.8181  1.2833
18577THY    CP245195   5.325   3.449   6.660 -0.2319 -0.2544 -0.5688
18577THY    HP245196   5.367   3.445   6.560  0.9427  0.1737  0.5763
18577THY    HP345197   5.284   3.549   6.681  1.1630 -1.2690  0.2444
18577THY    HP445198   5.236   3.384   6.657 -1.1045 -0.8782  0.6195
18577THY    CP345199   5.554   3.516   6.738  0.4659  0.4685 -0.5845
18577THY    HP545200   5.598   3.554   6.831 -0.8119  0.3774  1.2824
18577THY    HP645201   5.524   3.610   6.689 -0.4415  1.9385 -0.0658
18577THY    HP745202   5.636   3.469   6.683  1.0480  0.6238  0.2330
18577THY    CA345203   5.481   3.207   6.631  0.9020  0.1715 -0.1005
18577THY    HA345204   5.495   3.271   6.544  0.8802 -0.0233 -0.3558
18577THY    CA445205   5.486   3.069   6.619  0.3890 -0.4445  0.1190
18577THY    HA445206   5.515   3.020   6.526  1.7810  0.0926 -0.1501
18577THY    CA545207   5.489   2.993   6.736 -0.1993  0.2121 -0.5466
18577THY    CM145208   5.524   2.848   6.725 -0.9361 -0.3066  0.1492
18577THY    HM145209   5.437   2.781   6.732  1.0238 -2.3878 -2.8705
18577THY    HM245210   5.594   2.840   6.809  0.5567 -1.4539  0.8778
18577THY    HM345211   5.578   2.819   6.634 -1.7638 -0.3804 -1.2269
18577THY    CA645212   5.465   3.050   6.856  0.3285  0.2720  0.2517
18577THY    HA645213   5.459   2.976   6.936  0.1641 -1.0897 -1.2434
18578THY      O45214   1.033   3.215   6.116  0.3337  0.1792 -0.1288
18578THY     HO45215   1.051   3.302   6.075 -0.2480 -1.5276 -0.7674
18578THY    CA145216   1.150   3.179   6.170  0.7041  0.0482  0.1409
18578THY    CA245217   1.161   3.062   6.253  0.2705 -0.7027 -0.2155
18578THY    CP145218   1.039   2.982   6.282 -0.0579 -0.9862 -0.8829
18578THY    HP145219   0.957   3.005   6.212 -1.3837  0.9148  0.4561
18578THY    CP245220   0.997   3.000   6.435  0.4679  0.8570 -0.3067
18578THY    HP245221   0.913   2.933   6.458 -0.8640  2.5713  1.7973
18578THY    HP345222   0.966   3.105   6.444  0.0428  0.1418 -0.3661
18578THY    HP445223   1.076   2.973   6.507 -0.3190  1.8060 -0.1463
18578THY    CP345224   1.072   2.833   6.256  0.4878 -0.2810  0.0590
18578THY    HP545225   1.136   2.792   6.335  1.7453 -0.5957  1.3603
18578THY    HP645226   1.108   2.828   6.153 -2.1358 -1.4479  2.5198
18578THY    HP745227   0.975   2.781   6.248  0.7655 -1.2066 -0.3299
18578THY    CA345228   1.284   3.020   6.297  0.1200  0.2774  0.1116
18578THY    HA345229   1.300   2.937   6.366  1.2982  0.7610  0.7151
18578THY    CA445230   1.397   3.088   6.248 -0.0166 -0.0759  0.8332
18578THY    HA445231   1.498   3.056   6.275 -1.5140  0.5949 -4.1501
18578THY    CA545232   1.386   3.201   6.164 -0.2857 -0.3060  0.2635
18578THY    CM145233   1.502   3.278   6.135 -0.6920  0.1872 -0.6456
18578THY    HM145234   1.597   3.234   6.170  0.6613 -2.3747  0.0774
18578THY    HM245235   1.491   3.376   6.183  2.7852  3.2630 -1.5160
18578THY    HM345236   1.510   3.300   6.028  2.2576  0.0190 -1.9338
18578THY    CA645237   1.263   3.248   6.125 -0.2128  0.0315  0.3352
18578THY    HA645238   1.253   3.326   6.050 -0.6051 -0.2528  0.0196
18579THY      O45239   1.374   8.263   4.632  0.5250 -0.0500  0.4655
18579THY     HO45240   1.311   8.325   4.673 -0.4084  1.0944 -1.1516
18579THY    CA145241   1.298   8.145   4.617 -0.0075  1.1133 -0.6979
18579THY    CA245242   1.342   8.040   4.529  0.0977 -0.7578 -0.0013
18579THY    CP145243   1.476   8.049   4.458  0.9277 -0.7021 -0.1460
18579THY    HP145244   1.521   8.145   4.486  0.7671 -0.8817 -0.0164
18579THY    CP245245   1.456   8.052   4.306 -0.0482  0.2531 -0.5666
18579THY    HP245246   1.434   7.954   4.262  1.1608 -2.1599  0.1616
18579THY    HP345247   1.546   8.081   4.251  0.1949 -0.0187 -1.7941
18579THY    HP445248   1.381   8.130   4.292  2.2612  1.1247  1.9647
18579THY    CP345249   1.563   7.931   4.493 -0.1415 -0.3222 -0.2753
18579THY    HP545250   1.570   7.912   4.601  3.1442  0.3652  3.6531
18579THY    HP645251   1.665   7.956   4.463 -0.0262 -0.7937 -1.2412
18579THY    HP745252   1.533   7.842   4.436 -0.3483  0.5997 -0.8074
18579THY    CA345253   1.259   7.930   4.509 -0.0048  0.4856  0.3081
18579THY    HA345254   1.293   7.844   4.453 -0.8626 -0.7498  0.7420
18579THY    CA445255   1.137   7.926   4.576  0.0479 -0.5309 -0.5487
18579THY    HA445256   1.073   7.839   4.565 -0.1088  0.3898 -0.5609
18579THY    CA545257   1.094   8.024   4.666 -0.4834  0.4345  0.4920
18579THY    CM145258   0.961   8.027   4.730 -0.5809 -0.6306 -0.0705
18579THY    HM145259   0.967   8.083   4.824  0.0394 -0.3456 -0.5968
18579THY    HM245260   0.927   7.927   4.761  1.5498 -1.1624 -1.0251
18579THY    HM345261   0.886   8.081   4.672 -0.3155  1.7677  3.1611
18579THY    CA645262   1.171   8.143   4.674 -0.5271 -0.7989  0.6322
18579THY    HA645263   1.132   8.216   4.744  1.3295 -1.7878  2.6987
18580THY      O45264   3.656   4.583   3.163  0.3299  0.3581  0.1372
18580THY     HO45265   3.679   4.598   3.070  0.3505  0.3603  0.1189
18580THY    CA145266   3.650   4.458   3.182 -0.3847  0.1072  0.3909
18580THY    CA245267   3.614   4.406   3.307 -0.4263 -0.5437  0.3118
18580THY    CP145268   3.563   4.512   3.405 -0.3077 -0.0699  0.4902
18580THY    HP145269   3.515   4.591   3.346 -0.3209  0.0683  0.5863
18580THY    CP245270   3.689   4.572   3.481  0.3271 -0.1918 -0.1203
18580THY    HP245271   3.719   4.501   3.559  2.1864 -0.9641 -0.2539
18580THY    HP345272   3.666   4.659   3.543 -0.7255  1.3086 -1.3950
18580THY    HP445273   3.774   4.588   3.414 -1.2278 -1.8101  1.8326
18580THY    CP345274   3.452   4.464   3.499 -0.1943 -0.3154 -0.4997
18580THY    HP545275   3.425   4.545   3.567  0.9263 -0.0349 -0.3415
18580THY    HP645276   3.488   4.377   3.555  0.0371  0.4125  0.0504
18580THY    HP745277   3.362   4.435   3.444 -1.6349  0.2871  2.5026
18580THY    CA345278   3.608   4.265   3.332  1.4606  0.6022 -0.3469
18580THY    HA345279   3.560   4.220   3.418 -1.2708 -2.9792 -5.2034
18580THY    CA445280   3.644   4.189   3.221  0.6216 -0.6318  0.0847
18580THY    HA445281   3.637   4.082   3.242 -0.6054  1.1803  0.4735
18580THY    CA545282   3.698   4.237   3.100  0.2686 -0.1385  0.1992
18580THY    CM145283   3.736   4.146   2.993  0.1728  0.2180  0.7454
18580THY    HM145284   3.801   4.192   2.918  0.4157  0.9084  1.5561
18580THY    HM245285   3.646   4.112   2.940  0.3372  0.0166  0.6300
18580THY    HM345286   3.785   4.053   3.022  0.0512  2.5785  1.3446
18580THY    CA645287   3.700   4.377   3.082  0.1444  0.2566 -0.1822
18580THY    HA645288   3.742   4.421   2.992  0.3989  0.8499  0.8000
18581THY      O45289   2.120   8.060   2.480  0.3136 -0.5188 -0.1891
18581THY     HO45290   2.078   8.140   2.517  0.2574  0.2999 -0.5924
18581THY    CA145291   2.020   7.986   2.424 -0.0810  0.4038 -0.0291
18581THY    CA245292   2.028   7.845   2.419 -0.2288  0.1566 -0.3201
18581THY    CP145293   2.159   7.774   2.463 -0.1144 -0.3600  0.4325
18581THY    HP145294   2.245   7.841   2.471 -0.6228  0.2254  1.0277
18581THY    CP245295   2.213   7.665   2.360 -0.4489 -0.4535  0.0136
18581THY    HP245296   2.280   7.709   2.285 -1.0544 -0.4128  1.0575
18581THY    HP345297   2.130   7.602   2.326 -0.5906 -0.6680  0.3109
18581THY    HP445298   2.273   7.595   2.418 -0.7734  0.3976  0.4116
18581THY    CP345299   2.131   7.710   2.601 -0.4032  0.3065  0.1676
18581THY    HP545300   2.216   7.652   2.638 -0.3088  1.3863  0.9575
18581THY    HP645301   2.045   7.642   2.596 -1.1836  0.0481  1.1273
18581THY    HP745302   2.113   7.781   2.683  1.1756  1.3202 -0.5621
18581THY    CA345303   1.914   7.778   2.375  0.2303 -0.1193 -0.5394
18581THY    HA345304   1.909   7.671   2.391  0.9315  0.2995 -0.5157
18581THY    CA445305   1.806   7.852   2.334  0.2234  0.2765 -0.1398
18581THY    HA445306   1.717   7.794   2.311 -0.0506  2.9517 -0.9493
18581THY    CA545307   1.792   7.991   2.337 -0.4565 -0.4306 -0.2679
18581THY    CM145308   1.671   8.067   2.290 -0.5217 -0.0301 -0.3967
18581THY    HM145309   1.688   8.175   2.300 -0.9710 -1.4948 -0.1711
18581THY    HM245310   1.583   8.042   2.350  0.4205  0.9996 -1.3377
18581THY    HM345311   1.657   8.043   2.184  0.4369 -0.4594  0.8043
18581THY    CA645312   1.910   8.056   2.378  0.2933 -0.5793 -0.4912
18581THY    HA645313   1.918   8.163   2.366  2.3220 -0.1742 -0.5562
18582THY      O45314   1.053   3.515   4.295  0.0412 -0.7370  0.2936
18582THY     HO45315   0.995   3.448   4.255  1.3951 -2.3052  0.0017
18582THY    CA145316   1.000   3.544   4.416 -0.2901 -0.1667 -0.3712
18582THY    CA245317   1.059   3.636   4.509  0.1101  0.1344  0.5389
18582THY    CP145318   1.178   3.726   4.477  0.1557 -0.0735  0.0918
18582THY    HP145319   1.206   3.703   4.374  2.9618  1.0427 -1.9666
18582THY    CP245320   1.294   3.690   4.567  0.6797  0.3795  0.5254
18582THY    HP245321   1.326   3.585   4.568  1.9688  2.9023  0.8583
18582THY    HP345322   1.273   3.721   4.670  1.7682  1.0604 -0.8979
18582THY    HP445323   1.384   3.747   4.540  0.9218 -0.2681 -0.1475
18582THY    CP345324   1.137   3.874   4.487  0.5533 -0.0109  0.4647
18582THY    HP545325   1.226   3.933   4.461  0.4650  1.1500  1.1454
18582THY    HP645326   1.105   3.909   4.586 -1.7651 -0.5046 -0.1114
18582THY    HP745327   1.065   3.897   4.407  1.3449 -0.5331  1.1999
18582THY    CA345328   0.992   3.653   4.636 -0.4555  0.5683  0.2159
18582THY    HA345329   1.034   3.724   4.707  0.6645 -0.4353  0.5798
18582THY    CA445330   0.890   3.557   4.670 -0.2414  0.0266  0.8163
18582THY    HA445331   0.854   3.549   4.772  1.8426  0.9974  2.9711
18582THY    CA545332   0.835   3.475   4.578  0.2353  0.0177 -0.5018
18582THY    CM145333   0.724   3.379   4.614 -0.4637  0.2673  0.0365
18582THY    HM145334   0.625   3.424   4.617 -0.1808  1.3243  0.6347
18582THY    HM245335   0.739   3.328   4.710  0.5558 -0.8138 -1.8460
18582THY    HM345336   0.716   3.293   4.546 -1.3889  0.6059 -0.1559
18582THY    CA645337   0.880   3.481   4.449 -0.4198 -0.3620 -0.1153
18582THY    HA645338   0.832   3.427   4.367 -2.8482  0.8280  0.0847
18583THY      O45339   8.996   1.497   6.995  0.4576  0.0218 -0.4550
18583THY     HO45340   8.987   1.462   6.905 -0.8260  0.1147 -0.4270
18583THY    CA145341   8.910   1.598   6.999  0.2582 -0.3569  0.1340
18583THY    CA245342   8.912   1.698   7.096  0.5522 -0.2036  0.3971
18583THY    CP145343   9.042   1.710   7.181  0.0850  0.1387  0.0795
18583THY    HP145344   9.089   1.611   7.190  0.4842 -3.0157 -0.1117
18583THY    CP245345   9.024   1.767   7.322 -1.0444 -0.0896 -0.5536
18583THY    HP245346   9.116   1.743   7.377 -0.6891  0.6706  2.2109
18583THY    HP345347   8.940   1.710   7.363 -0.6601 -0.4932 -1.4317
18583THY    HP445348   9.003   1.873   7.333 -2.7034  0.2703 -0.8966
18583THY    CP345349   9.153   1.793   7.112  1.0743  0.2038 -0.1942
18583THY    HP545350   9.114   1.894   7.095 -0.2617 -0.8258 -0.8508
18583THY    HP645351   9.187   1.750   7.017  0.3609  0.9575 -2.5789
18583THY    HP745352   9.230   1.800   7.189  1.5461 -0.1697 -1.0870
18583THY    CA345353   8.802   1.793   7.101 -0.0340  0.6521 -0.2720
18583THY    HA345354   8.810   1.877   7.169 -1.1647  1.6178 -0.9197
18583THY    CA445355   8.698   1.781   6.998 -0.3577 -0.3052  0.5235
18583THY    HA445356   8.609   1.843   6.992 -3.0410  0.1815 -2.9301
18583THY    CA545357   8.698   1.671   6.913 -0.1776 -0.4212 -0.7248
18583THY    CM145358   8.595   1.651   6.814 -0.1055  0.5013 -0.0544
18583THY    HM145359   8.509   1.718   6.829 -0.8162  0.9544 -1.0334
18583THY    HM245360   8.556   1.549   6.807 -0.7804  0.0680  0.2309
18583THY    HM345361   8.638   1.667   6.715 -1.4336 -0.2845 -1.0738
18583THY    CA645362   8.806   1.581   6.912  0.4991 -0.2194  0.0418
18583THY    HA645363   8.803   1.500   6.840  2.0405 -0.0079 -0.2228
18584THY      O45364   6.829   6.227   5.812  0.8521 -0.1048  0.0471
18584THY     HO45365   6.808   6.312   5.768  1.9562 -1.8775 -0.5387
18584THY    CA145366   6.772   6.234   5.940  0.3860  0.4288 -0.0126
18584THY    CA245367   6.767   6.119   6.015 -0.0403  0.3947  0.1749
18584THY    CP145368   6.837   5.988   5.962 -0.3448 -0.4510  1.4864
18584THY    HP145369   6.925   6.011   5.900 -0.8751 -1.9514 -0.2732
18584THY    CP245370   6.742   5.896   5.885  0.4678  0.3618  0.3957
18584THY    HP245371   6.790   5.806   5.845 -0.2681 -2.2252  1.0692
18584THY    HP345372   6.703   5.949   5.797  0.5508  1.2390  1.9782
18584THY    HP445373   6.648   5.880   5.938  0.4485  1.3874  3.3074
18584THY    CP345374   6.884   5.889   6.074 -0.3203 -0.1703 -0.5282
18584THY    HP545375   6.810   5.823   6.122 -2.1751  1.0565  2.2243
18584THY    HP645376   6.906   5.956   6.158 -1.3178  1.5227 -2.2161
18584THY    HP745377   6.971   5.831   6.043  0.7383 -0.6794  1.2386
18584THY    CA345378   6.712   6.122   6.149  0.6348  0.1757 -0.0266
18584THY    HA345379   6.701   6.031   6.208  2.0289 -0.4610 -0.6320
18584THY    CA445380   6.653   6.248   6.192  0.0213  0.1475  0.2668
18584THY    HA445381   6.601   6.244   6.287  1.1560  0.8643  1.6237
18584THY    CA545382   6.661   6.363   6.107  0.2668 -0.4870  0.5767
18584THY    CM145383   6.600   6.488   6.161 -0.0525  0.0766 -0.0640
18584THY    HM145384   6.663   6.520   6.245  0.4316 -1.0755  2.1864
18584THY    HM245385   6.499   6.464   6.198 -0.3056 -1.4686 -1.5515
18584THY    HM345386   6.585   6.571   6.091 -0.1180  1.7691  1.4123
18584THY    CA645387   6.714   6.353   5.978  0.6070 -0.2487  0.4403
18584THY    HA645388   6.704   6.442   5.917 -0.9652  1.4722  1.5223
18585THY      O45389   7.868   0.984   3.422  0.0454 -0.6412  0.0414
18585THY     HO45390   7.869   1.074   3.386 -1.5824  2.6352  1.5387
18585THY    CA145391   7.851   0.903   3.312  0.6167 -0.1244  0.0905
18585THY    CA245392   7.733   0.820   3.302 -0.5897 -0.2582  0.2741
18585THY    CP145393   7.632   0.816   3.423 -0.6357  0.1249  1.1572
18585THY    HP145394   7.648   0.909   3.479 -0.7473  2.1734  0.0109
18585THY    CP245395   7.645   0.700   3.527 -0.8462 -0.2651  0.1982
18585THY    HP245396   7.579   0.700   3.614 -0.1140  0.3030 -0.4499
18585THY    HP345397   7.747   0.694   3.566 -0.8096 -0.4139 -0.1914
18585THY    HP445398   7.637   0.612   3.462  1.3638 -1.1058  0.5643
18585THY    CP345399   7.490   0.823   3.360  0.1913  0.6164 -0.8932
18585THY    HP545400   7.490   0.896   3.279 -0.4188 -0.5007 -2.0889
18585THY    HP645401   7.415   0.841   3.438 -1.2591 -0.6791 -1.1741
18585THY    HP745402   7.464   0.722   3.327 -0.2081 -2.7344  0.1998
18585THY    CA345403   7.712   0.735   3.194 -0.0132  0.8678 -0.5087
18585THY    HA345404   7.632   0.662   3.196  0.6645  2.2758 -1.2525
18585THY    CA445405   7.801   0.752   3.079  0.2154  0.1894 -0.7767
18585THY    HA445406   7.799   0.698   2.985 -1.1064 -0.3213  0.0866
18585THY    CA545407   7.923   0.829   3.103  0.0511 -0.0463  0.9456
18585THY    CM145408   8.018   0.847   2.992 -0.5003  0.3713 -0.6716
18585THY    HM145409   7.962   0.859   2.899 -1.0499  1.0762  4.1366
18585THY    HM245410   8.091   0.766   2.981 -0.7760  1.2915 -1.0711
18585THY    HM345411   8.090   0.927   3.013 -0.4762  1.0804 -0.8706
18585THY    CA645412   7.943   0.905   3.219 -0.4141  0.6639 -0.2365
18585THY    HA645413   8.038   0.951   3.243 -1.5264  0.8754  2.0796
18586THY      O45414   8.816   1.456   2.701 -0.2822 -0.5277 -0.2526
18586THY     HO45415   8.830   1.449   2.797 -0.3036 -0.6305 -2.3472
18586THY    CA145416   8.773   1.581   2.669  0.0025 -0.1798  0.0957
18586THY    CA245417   8.856   1.695   2.664 -0.2686  0.2371 -0.8543
18586THY    CP145418   9.002   1.680   2.682 -0.5265  0.1567 -0.3178
18586THY    HP145419   9.027   1.574   2.672 -1.9770 -1.0797 -0.5824
18586THY    CP245420   9.050   1.740   2.813  0.0120 -0.6899 -0.2716
18586THY    HP245421   9.062   1.849   2.814  0.8785  2.8577 -0.2667
18586THY    HP345422   9.139   1.688   2.849  0.1568  0.3630  0.6633
18586THY    HP445423   8.980   1.721   2.895  0.0958 -0.8565 -1.3381
18586THY    CP345424   9.080   1.755   2.569 -0.2174 -0.4040 -1.2162
18586THY    HP545425   9.187   1.733   2.581  0.0409 -2.1185 -1.0264
18586THY    HP645426   9.078   1.863   2.582  1.4363 -0.9628 -1.0915
18586THY    HP745427   9.057   1.728   2.465  0.7252 -1.6984  2.4533
18586THY    CA345428   8.790   1.820   2.633  0.0890  0.0111 -0.4141
18586THY    HA345429   8.849   1.911   2.632 -1.6711  1.0486  0.7870
18586THY    CA445430   8.655   1.818   2.606 -0.0600 -0.5105 -0.5073
18586THY    HA445431   8.609   1.911   2.572  0.0083  1.3319  0.2462
18586THY    CA545432   8.579   1.700   2.607 -0.1796  0.7765 -0.3188
18586THY    CM145433   8.431   1.700   2.575  0.3527  0.0911  0.3607
18586THY    HM145434   8.387   1.798   2.595 -3.0412  0.0084 -1.0218
18586THY    HM245435   8.378   1.629   2.640 -0.0450  0.1253  0.6855
18586THY    HM345436   8.430   1.672   2.469  1.9574  0.0547  0.3611
18586THY    CA645437   8.639   1.583   2.645 -0.2754  0.1555 -0.0720
18586THY    HA645438   8.585   1.489   2.650  1.4770  1.6898 -1.0893
18587THY      O45439   9.131   6.060   6.947 -0.0020  0.1222 -0.6291
18587THY     HO45440   9.213   6.038   6.900  1.1982  1.9553 -0.2606
18587THY    CA145441   9.141   6.193   6.983  1.0068 -0.2993 -0.2085
18587THY    CA245442   9.086   6.233   7.107 -0.2474  0.3825  0.2513
18587THY    CP145443   9.043   6.127   7.213  0.5864  0.1200 -0.2820
18587THY    HP145444   9.070   6.023   7.192 -0.7111 -0.6194 -0.4995
18587THY    CP245445   8.886   6.114   7.211 -0.1855 -0.2495  0.1405
18587THY    HP245446   8.859   6.043   7.289  2.6920 -1.3562 -2.3824
18587THY    HP345447   8.854   6.062   7.120 -1.2189  0.9080 -1.2994
18587THY    HP445448   8.837   6.212   7.220  0.2664  1.8857  0.2048
18587THY    CP345449   9.079   6.157   7.360 -0.1834  0.0041 -0.8568
18587THY    HP545450   9.026   6.249   7.386 -0.7254  1.0190 -1.4471
18587THY    HP645451   9.187   6.176   7.365 -0.1456 -1.7610 -0.4378
18587THY    HP745452   9.057   6.074   7.428 -0.0809  0.8838 -0.1800
18587THY    CA345453   9.066   6.368   7.137  0.4546 -0.5801 -0.4276
18587THY    HA345454   9.018   6.400   7.229 -0.6038 -0.1158 -3.0488
18587THY    CA445455   9.108   6.465   7.046  0.1108  0.6833 -0.5465
18587THY    HA445456   9.104   6.573   7.059  3.3685 -2.9363  0.2692
18587THY    CA545457   9.172   6.420   6.929  0.2760  0.3389  0.7530
18587THY    CM145458   9.236   6.520   6.845 -0.2244 -0.1284 -0.4848
18587THY    HM145459   9.224   6.623   6.880  3.3246 -1.0308  0.3698
18587THY    HM245460   9.197   6.513   6.742 -0.7376  0.1291 -1.7171
18587THY    HM345461   9.344   6.503   6.833  0.3669 -0.2446  2.7534
18587THY    CA645462   9.188   6.285   6.893  0.7765 -0.7048 -0.3460
18587THY    HA645463   9.229   6.256   6.796 -1.3727 -2.1842  1.2187
18588THY      O45464   8.486   3.127   4.672  0.2130  0.5017  0.5257
18588THY     HO45465   8.454   3.219   4.669 -0.5255  1.7109  0.3346
18588THY    CA145466   8.610   3.144   4.638 -0.3042  0.2608  0.4570
18588THY    CA245467   8.686   3.035   4.592 -0.4305 -0.2063  0.4377
18588THY    CP145468   8.627   2.894   4.604 -0.1652  0.0822  0.0736
18588THY    HP145469   8.557   2.877   4.686 -1.5595 -1.0360  0.2553
18588THY    CP245470   8.739   2.791   4.613 -0.6310 -0.4711 -0.4873
18588THY    HP245471   8.819   2.809   4.686 -1.3106  0.0876  0.3230
18588THY    HP345472   8.796   2.773   4.521  0.6826  0.2292 -0.0143
18588THY    HP445473   8.700   2.692   4.641  4.0206  1.7198 -2.0100
18588THY    CP345474   8.543   2.869   4.475 -0.2872 -0.3695  0.4362
18588THY    HP545475   8.480   2.952   4.440  2.6677 -4.1487  1.3959
18588THY    HP645476   8.468   2.796   4.507 -2.4172 -2.5761  1.4938
18588THY    HP745477   8.590   2.829   4.385 -0.2179 -0.3074  0.3763
18588THY    CA345478   8.814   3.073   4.545 -0.4988  0.0674 -0.4545
18588THY    HA345479   8.887   3.001   4.510  0.4483 -1.4027  1.1314
18588THY    CA445480   8.858   3.208   4.538 -0.0171 -0.4495 -0.2079
18588THY    HA445481   8.957   3.234   4.502  0.3476  1.3902  1.2222
18588THY    CA545482   8.773   3.310   4.578 -0.8295 -0.0178  0.1404
18588THY    CM145483   8.808   3.455   4.545  0.0453 -0.7749 -0.6441
18588THY    HM145484   8.719   3.512   4.518 -1.2223  2.2612 -0.9761
18588THY    HM245485   8.888   3.467   4.470  1.2797  0.6262  0.2108
18588THY    HM345486   8.850   3.505   4.633  3.8450 -1.8914 -1.5268
18588THY    CA645487   8.654   3.276   4.636  0.1322 -0.7218 -0.5246
18588THY    HA645488   8.595   3.353   4.684 -0.7505  0.7997 -2.0740
18589THY      O45489   0.100   2.166   2.667 -0.6307 -0.0432 -0.4708
18589THY     HO45490   0.081   2.141   2.575  0.3788 -0.3624 -0.1571
18589THY    CA145491   0.170   2.062   2.722  0.1609 -0.4072 -0.4154
18589THY    CA245492   0.223   2.076   2.854  0.4257  0.5950 -0.1005
18589THY    CP145493   0.224   2.212   2.924  0.7999  0.3903 -0.6207
18589THY    HP145494   0.234   2.291   2.850 -1.1564  0.4807 -0.2334
18589THY    CP245495   0.344   2.227   3.019 -0.3290  0.4177  0.5674
18589THY    HP245496   0.336   2.162   3.107  0.0795  0.2040  0.2205
18589THY    HP345497   0.345   2.335   3.034  1.5520  3.2764  0.2859
18589THY    HP445498   0.440   2.202   2.972 -1.2264 -2.2276  1.7614
18589THY    CP345499   0.092   2.245   3.005  0.2597  0.5232 -0.6155
18589THY    HP545500   0.004   2.209   2.950 -0.1977  0.4694  0.5359
18589THY    HP645501   0.067   2.351   3.020 -0.3520  0.2035 -0.7104
18589THY    HP745502   0.098   2.206   3.107 -1.0279  0.7943 -0.1579
18589THY    CA345503   0.259   1.962   2.924 -0.0151  0.7617  0.0788
18589THY    HA345504   0.302   1.970   3.023  1.1946  0.4968 -2.2937
18589THY    CA445505   0.254   1.841   2.856  0.0416 -0.4035 -0.0517
18589THY    HA445506   0.286   1.750   2.905  0.2045  0.5654  0.5058
18589THY    CA545507   0.221   1.838   2.719 -0.6224  0.0153  0.2578
18589THY    CM145508   0.237   1.705   2.646 -0.4976 -0.6529 -0.4848
18589THY    HM145509   0.152   1.640   2.671 -2.0693 -1.5856  1.0955
18589THY    HM245510   0.330   1.652   2.670  0.2302  2.2141  1.8425
18589THY    HM345511   0.234   1.719   2.537  1.4743 -0.7528 -0.6527
18589THY    CA645512   0.176   1.948   2.647  0.4278 -0.2317  1.1775
18589THY    HA645513   0.156   1.949   2.540  3.0718 -0.8722 -1.3341
18590THY      O45514   7.957   2.128   1.899 -0.0707 -0.4189 -0.1686
18590THY     HO45515   8.037   2.102   1.849 -0.3385 -2.1342  1.9989
18590THY    CA145516   7.923   2.253   1.857  0.3566  0.0969  0.3724
18590THY    CA245517   7.839   2.324   1.937 -0.2025  0.0012  0.1563
18590THY    CP145518   7.758   2.264   2.055  0.5505 -0.0707  0.8861
18590THY    HP145519   7.809   2.173   2.090 -1.9590  3.5313  0.6267
18590THY    CP245520   7.614   2.235   1.989 -0.7057  0.0185 -0.2351
18590THY    HP245521   7.547   2.187   2.061 -1.2187 -0.9067 -0.9405
18590THY    HP345522   7.630   2.165   1.906 -0.0092  0.3922 -0.5268
18590THY    HP445523   7.577   2.333   1.956 -2.3679  1.3394 -0.3651
18590THY    CP345524   7.743   2.342   2.177  0.1159 -0.8171  0.3270
18590THY    HP545525   7.848   2.360   2.202  0.1685 -0.8591  0.0820
18590THY    HP645526   7.685   2.287   2.252  1.3457 -1.5417 -2.0747
18590THY    HP745527   7.691   2.438   2.164  0.9605  0.2233  0.9479
18590THY    CA345528   7.809   2.456   1.902 -0.3099 -0.3722 -0.4333
18590THY    HA345529   7.728   2.505   1.954  0.4150  0.1950  0.1800
18590THY    CA445530   7.871   2.507   1.782  0.3288 -0.5024  0.1660
18590THY    HA445531   7.859   2.611   1.753 -2.0349 -0.4889 -0.0336
18590THY    CA545532   7.960   2.428   1.707  0.1577 -0.2263 -0.6983
18590THY    CM145533   8.028   2.494   1.582 -0.3121  0.0830  0.1138
18590THY    HM145534   7.957   2.540   1.512  0.7913 -1.0933  0.0906
18590THY    HM245535   8.090   2.432   1.517 -1.8663 -1.2100 -0.1691
18590THY    HM345536   8.091   2.579   1.610  0.1832 -1.2143  0.1943
18590THY    CA645537   7.985   2.299   1.742  0.0981  0.3357 -0.1150
18590THY    HA645538   8.048   2.233   1.682 -1.5144  0.7934 -2.2003
18591THY      O45539   2.467   5.962   3.204  0.5769  0.5485 -0.2665
18591THY     HO45540   2.436   5.898   3.269 -0.1116  0.8886  0.3970
18591THY    CA145541   2.556   6.045   3.260  0.1743  0.1646  0.5496
18591THY    CA245542   2.581   6.168   3.207 -0.3575  0.0254  0.1069
18591THY    CP145543   2.514   6.214   3.075 -0.6176 -0.8451 -0.4209
18591THY    HP145544   2.424   6.157   3.053 -1.8628  0.4671  0.9635
18591THY    CP245545   2.608   6.160   2.968 -0.2521  0.3149 -0.3232
18591THY    HP245546   2.563   6.162   2.868 -1.6442  0.9090 -0.6443
18591THY    HP345547   2.641   6.058   2.987  4.6953 -0.7154  0.8090
18591THY    HP445548   2.704   6.212   2.957  0.6550  0.3485 -1.9295
18591THY    CP345549   2.497   6.363   3.054  0.4559 -0.5641 -0.2188
18591THY    HP545550   2.583   6.428   3.073 -2.1088 -1.5341  3.7639
18591THY    HP645551   2.411   6.402   3.109  1.1832  0.8486 -0.5295
18591THY    HP745552   2.471   6.383   2.950  0.8244 -0.7114 -0.4978
18591THY    CA345553   2.681   6.242   3.270 -0.2274  0.3131 -0.0965
18591THY    HA345554   2.704   6.339   3.228 -0.6957  2.1274  0.8328
18591THY    CA445555   2.752   6.194   3.382  0.7442  0.0059 -0.2471
18591THY    HA445556   2.827   6.255   3.431 -2.0271  1.6461  2.1662
18591THY    CA545557   2.712   6.074   3.438  0.7253 -0.1756 -0.5457
18591THY    CM145558   2.776   6.024   3.565 -0.2644 -1.1496  0.2072
18591THY    HM145559   2.773   6.090   3.652 -0.9816  2.1967 -3.8777
18591THY    HM245560   2.882   6.005   3.546  0.2690  2.1397 -0.5802
18591THY    HM345561   2.737   5.932   3.610 -1.4814  2.1281  2.1717
18591THY    CA645562   2.611   6.002   3.380 -0.5519 -0.4464  0.0393
18591THY    HA645563   2.576   5.909   3.424  2.4924  1.3938 -0.3945
18592THY      O45564   7.076   7.155   1.486 -0.0836 -0.2784  0.3923
18592THY     HO45565   7.170   7.155   1.463  0.0049 -0.0770  2.3190
18592THY    CA145566   7.037   7.041   1.544  0.0231 -0.7944 -0.1347
18592THY    CA245567   6.915   7.038   1.613 -1.0278  0.4391  0.5826
18592THY    CP145568   6.829   7.155   1.626 -0.6660 -0.2885  0.1605
18592THY    HP145569   6.867   7.234   1.559  0.4246 -0.9647 -0.9116
18592THY    CP245570   6.833   7.213   1.767  0.4369 -0.1040  0.8186
18592THY    HP245571   6.939   7.222   1.793  1.0935 -1.7442 -1.4420
18592THY    HP345572   6.794   7.135   1.833  0.9416 -0.0799  0.5872
18592THY    HP445573   6.783   7.311   1.774  0.8991 -0.1770  1.0616
18592THY    CP345574   6.684   7.131   1.587 -0.1315  0.1116 -0.2799
18592THY    HP545575   6.679   7.075   1.493  2.6070  0.1086 -0.6919
18592THY    HP645576   6.627   7.223   1.574  1.6099 -2.8445  0.5051
18592THY    HP745577   6.625   7.072   1.658 -1.9303 -2.0547 -1.1913
18592THY    CA345578   6.889   6.915   1.681  0.6024  0.5557 -0.2090
18592THY    HA345579   6.801   6.906   1.744  1.0992  1.4497  0.9179
18592THY    CA445580   6.976   6.805   1.676 -0.1892 -0.6399  0.0808
18592THY    HA445581   6.947   6.712   1.726  2.2996 -2.3796 -1.7745
18592THY    CA545582   7.090   6.809   1.599  0.0028 -0.3219  0.5991
18592THY    CM145583   7.178   6.687   1.594  0.0473 -0.3095  0.0379
18592THY    HM145584   7.207   6.644   1.690 -0.4614 -0.5445 -0.8608
18592THY    HM245585   7.274   6.696   1.541 -1.0815 -2.3595  0.6946
18592THY    HM345586   7.115   6.612   1.544 -0.7814  1.1436 -0.2663
18592THY    CA645587   7.122   6.930   1.539 -0.9297  0.4332  0.4958
18592THY    HA645588   7.215   6.928   1.482 -1.0208  0.2690 -1.5164
18593THY      O45589   5.531   3.111   7.235 -0.0414  0.1067 -0.1494
18593THY     HO45590   5.542   3.201   7.270 -1.6360  0.3070 -0.0024
18593THY    CA145591   5.624   3.035   7.285  0.2187 -0.6618 -0.4840
18593THY    CA245592   5.614   2.893   7.290 -0.3064 -0.2659 -0.0869
18593THY    CP145593   5.500   2.808   7.231 -0.8010 -0.2319 -0.0008
18593THY    HP145594   5.428   2.872   7.180  0.1636 -3.0819 -1.0219
18593THY    CP245595   5.427   2.727   7.343 -0.3164  0.4184  0.1646
18593THY    HP245596   5.449   2.767   7.442 -2.4560  1.2883 -0.6626
18593THY    HP345597   5.472   2.627   7.343  1.6558 -2.2547  0.9410
18593THY    HP445598   5.317   2.735   7.337 -0.1946  0.4576  2.5990
18593THY    CP345599   5.546   2.706   7.121  0.3716  0.3921  0.0454
18593THY    HP545600   5.589   2.614   7.163  0.2052 -0.6367 -0.5104
18593THY    HP645601   5.617   2.760   7.059  0.8906 -0.3143 -1.4059
18593THY    HP745602   5.459   2.682   7.058  0.8692 -0.2536 -0.0719
18593THY    CA345603   5.719   2.827   7.354  0.0997 -0.5837  0.0036
18593THY    HA345604   5.721   2.719   7.368  1.7101  1.4505  0.2299
18593THY    CA445605   5.829   2.890   7.399 -0.0213  0.2453  0.2743
18593THY    HA445606   5.906   2.835   7.454 -0.0307 -1.1038 -1.1425
18593THY    CA545607   5.840   3.032   7.396 -0.4488  0.4723 -0.1573
18593THY    CM145608   5.949   3.105   7.460 -0.6789  0.0594 -1.1883
18593THY    HM145609   6.043   3.111   7.404 -2.5455 -3.1983 -0.1543
18593THY    HM245610   5.959   3.058   7.559  1.1658 -0.0967 -1.2159
18593THY    HM345611   5.935   3.211   7.484  0.0973 -0.9859 -0.8307
18593THY    CA645612   5.739   3.102   7.338 -0.2832 -0.1595  0.0362
18593THY    HA645613   5.756   3.208   7.348  1.6987  2.1216 -0.4217
18594THY      O45614   7.127   5.121   2.555  0.1671  0.3311  1.0195
18594THY     HO45615   7.070   5.127   2.477 -0.0577  0.1150 -2.1650
18594THY    CA145616   7.062   5.045   2.642 -0.5280  0.2028  0.0641
18594THY    CA245617   7.116   5.026   2.770  0.2892 -0.2014  0.0858
18594THY    CP145618   7.231   5.106   2.813 -0.0180 -0.1896 -0.3553
18594THY    HP145619   7.242   5.193   2.747  0.3515 -2.4623 -2.0388
18594THY    CP245620   7.359   5.024   2.794 -0.2694 -0.0048  0.4058
18594THY    HP245621   7.358   4.993   2.689  2.0772 -0.1271  0.5882
18594THY    HP345622   7.362   4.934   2.857  0.5019 -1.6498 -0.7547
18594THY    HP445623   7.446   5.090   2.805  0.7203 -1.0063 -0.6934
18594THY    CP345624   7.222   5.151   2.958 -0.0306  0.1226  0.1492
18594THY    HP545625   7.240   5.068   3.027  5.3477 -0.2187  0.7097
18594THY    HP645626   7.134   5.210   2.986 -0.4916 -0.0178 -0.4592
18594THY    HP745627   7.305   5.220   2.974  2.3342 -0.0779 -2.4466
18594THY    CA345628   7.057   4.929   2.859  0.0098  1.2390  0.5194
18594THY    HA345629   7.100   4.905   2.956  3.2731 -0.0846  0.4136
18594THY    CA445630   6.929   4.873   2.817 -0.1677  0.2630  0.2604
18594THY    HA445631   6.883   4.797   2.880 -0.7241 -0.4847 -0.0283
18594THY    CA545632   6.870   4.898   2.690 -0.6556  0.3824 -0.3334
18594THY    CM145633   6.734   4.844   2.658 -0.3995  0.0252  0.6156
18594THY    HM145634   6.705   4.870   2.555 -3.0804  0.2980 -0.9134
18594THY    HM245635   6.661   4.902   2.716 -0.2500  0.2765  0.5537
18594THY    HM345636   6.718   4.737   2.675 -0.7861  1.3822  0.8780
18594THY    CA645637   6.937   4.990   2.606 -1.1181 -0.4518  0.4151
18594THY    HA645638   6.898   5.003   2.506 -1.1139 -0.5925 -0.6260
18595THY      O45639   0.979   8.832   3.997  0.6597 -0.0632 -1.1122
18595THY     HO45640   0.891   8.812   3.961 -0.0215  1.4938 -1.0368
18595THY    CA145641   0.971   8.968   3.997 -0.1967 -0.1057  0.2923
18595THY    CA245642   1.098   9.034   4.013  0.0385  0.3345  0.1689
18595THY    CP145643   1.237   8.951   4.015 -0.6001 -0.3708 -0.0903
18595THY    HP145644   1.220   8.855   4.066 -1.4035  0.1586  0.3258
18595THY    CP245645   1.342   9.017   4.110  0.4042  0.0826  0.1743
18595THY    HP245646   1.427   8.955   4.140 -0.4908  2.7473  0.1158
18595THY    HP345647   1.300   9.024   4.211  0.9304  0.2111  1.9795
18595THY    HP445648   1.375   9.114   4.070 -0.5394  0.8099  0.8088
18595THY    CP345649   1.292   8.935   3.875  0.4192 -0.0751 -0.5140
18595THY    HP545650   1.209   8.893   3.818  0.1395 -0.2711  0.2906
18595THY    HP645651   1.372   8.859   3.879  1.2313  0.9635  0.3589
18595THY    HP745652   1.322   9.027   3.824 -1.2251 -1.4339 -0.7027
18595THY    CA345653   1.092   9.179   4.021  0.0380 -0.2924  0.0451
18595THY    HA345654   1.184   9.235   4.025  0.2535 -2.0823 -0.1519
18595THY    CA445655   0.973   9.251   4.004  0.3194 -0.3411  0.0277
18595THY    HA445656   0.958   9.356   4.023 -1.0792 -1.2683  0.0329
18595THY    CA545657   0.851   9.183   3.977  0.4888 -0.6051  0.2968
18595THY    CM145658   0.717   9.246   3.966  1.0769 -0.0111  0.7102
18595THY    HM145659   0.644   9.211   4.041  0.0883 -0.6178  1.4236
18595THY    HM245660   0.694   9.205   3.867  1.1081  0.1052  0.4031
18595THY    HM345661   0.721   9.355   3.955 -4.2045  1.5550  1.3880
18595THY    CA645662   0.848   9.041   3.975 -0.3109 -0.6319  0.2572
18595THY    HA645663   0.755   8.988   3.958 -0.5491 -0.6802  0.6939
18596THY      O45664   6.509   5.723   4.721 -0.7356 -0.4203  0.5072
18596THY     HO45665   6.577   5.714   4.791 -2.6379  2.0762  3.5460
18596THY    CA145666   6.481   5.605   4.664  0.1596  0.4039 -0.0514
18596THY    CA245667   6.461   5.586   4.523 -0.5209 -0.6698  0.0406
18596THY    CP145668   6.476   5.704   4.429  0.7778 -0.1295 -0.2019
18596THY    HP145669   6.489   5.796   4.488 -0.3218  1.7347 -1.1912
18596THY    CP245670   6.339   5.743   4.355 -0.4287 -0.1412 -0.2730
18596THY    HP245671   6.277   5.799   4.425  0.3122 -1.6831  2.6716
18596THY    HP345672   6.284   5.655   4.318  0.5187 -0.5807 -0.7002
18596THY    HP445673   6.363   5.807   4.269  0.2508  1.3996  1.6212
18596THY    CP345674   6.594   5.685   4.325  0.5187 -0.1543  0.1441
18596THY    HP545675   6.559   5.612   4.252 -1.5247 -0.3143  1.2300
18596THY    HP645676   6.687   5.646   4.370 -0.1682 -1.2989 -3.1501
18596THY    HP745677   6.619   5.772   4.264  2.9226  0.9660  0.3217
18596THY    CA345678   6.423   5.461   4.472  0.3906  0.5109 -0.2823
18596THY    HA345679   6.397   5.448   4.367 -0.1364  0.8094 -1.8901
18596THY    CA445680   6.412   5.353   4.563  0.2594 -0.3160 -0.2585
18596THY    HA445681   6.372   5.262   4.520  0.7547 -1.9185  0.2433
18596THY    CA545682   6.422   5.370   4.706  0.5784 -0.4370 -0.8742
18596THY    CM145683   6.406   5.257   4.798 -0.2076 -0.6614  0.1422
18596THY    HM145684   6.411   5.284   4.904 -0.2114 -0.4729 -0.5806
18596THY    HM245685   6.495   5.194   4.793  0.6827 -0.1117  1.3228
18596THY    HM345686   6.310   5.209   4.775 -0.0512 -0.8825 -0.0656
18596THY    CA645687   6.457   5.497   4.750 -0.6741  0.1735 -0.4308
18596THY    HA645688   6.467   5.516   4.857  0.2207  0.1654 -0.8109
18597THY      O45689   1.625   5.652   6.762  0.1579  0.5327 -0.0121
18597THY     HO45690   1.613   5.746   6.740  0.1157  0.8944  0.0705
18597THY    CA145691   1.600   5.637   6.895 -1.0761  0.1472 -0.1654
18597THY    CA245692   1.682   5.545   6.972  0.4966  0.1856 -0.4227
18597THY    CP145693   1.789   5.459   6.904  0.2643 -0.5880  0.2511
18597THY    HP145694   1.778   5.473   6.796  1.0667 -0.6293  0.6671
18597THY    CP245695   1.769   5.317   6.943  0.1557  0.1484  0.1379
18597THY    HP245696   1.667   5.288   6.916 -0.7807  3.0835  0.4219
18597THY    HP345697   1.787   5.305   7.050  0.1121  0.2526  0.9096
18597THY    HP445698   1.836   5.254   6.883  0.0509 -0.4119  0.5507
18597THY    CP345699   1.935   5.500   6.936 -0.1433 -0.5113  0.0928
18597THY    HP545700   1.952   5.494   7.044 -1.1997 -0.3183  0.2867
18597THY    HP645701   1.958   5.605   6.913  1.2001  1.5884  0.3079
18597THY    HP745702   1.998   5.428   6.882  0.2272  0.1864 -0.1084
18597THY    CA345703   1.654   5.546   7.111 -0.2353 -0.1114  0.2268
18597THY    HA345704   1.725   5.484   7.165  1.3263 -4.4673 -2.2565
18597THY    CA445705   1.550   5.628   7.165  1.0818 -0.5867 -0.6398
18597THY    HA445706   1.530   5.616   7.271 -0.7101 -1.0303 -1.9552
18597THY    CA545707   1.471   5.702   7.079  0.8643  0.2840  1.0904
18597THY    CM145708   1.364   5.783   7.130 -1.1143  0.2069 -0.2855
18597THY    HM145709   1.351   5.784   7.239 -0.4801  0.2969  1.7619
18597THY    HM245710   1.273   5.749   7.077  0.4851 -1.3056 -2.5101
18597THY    HM345711   1.392   5.884   7.101 -0.5428 -1.3987 -0.8679
18597THY    CA645712   1.498   5.711   6.947 -1.0010 -0.2105  0.3060
18597THY    HA645713   1.429   5.757   6.876 -0.6953 -2.0245 -1.8168
18598THY      O45714   6.016   4.139   5.427  0.0102  0.5664  0.1295
18598THY     HO45715   6.021   4.142   5.524 -0.4098  0.6860 -1.6782
18598THY    CA145716   6.126   4.069   5.387 -0.1742 -0.2623 -0.1559
18598THY    CA245717   6.141   3.999   5.264 -0.2171  0.0170  0.5283
18598THY    CP145718   6.034   4.014   5.158  1.0270 -0.9065 -0.1646
18598THY    HP145719   5.962   4.089   5.193  1.9745 -0.4033  0.5270
18598THY    CP245720   5.941   3.894   5.148 -0.4737  0.1101 -0.1725
18598THY    HP245721   5.895   3.872   5.245 -0.5153  0.7601  2.4568
18598THY    HP345722   5.997   3.803   5.125 -2.3100 -0.9115 -1.1117
18598THY    HP445723   5.862   3.916   5.075  1.6510 -2.0579  0.6949
18598THY    CP345724   6.091   4.069   5.026  0.8570 -0.3605  0.3211
18598THY    HP545725   6.179   4.134   5.036  1.4384 -0.1433 -0.4787
18598THY    HP645726   6.016   4.115   4.961 -0.1212 -0.3313 -1.1632
18598THY    HP745727   6.127   3.985   4.965  0.2624 -0.4496  0.1271
18598THY    CA345728   6.258   3.920   5.240  0.4700 -0.2835 -1.0353
18598THY    HA345729   6.277   3.859   5.152  1.4084  0.4158 -1.7865
18598THY    CA445730   6.349   3.903   5.342 -0.3107 -0.1327  0.0825
18598THY    HA445731   6.430   3.832   5.331 -1.0489 -0.5450 -0.7157
18598THY    CA545732   6.341   3.979   5.456  0.2316 -0.0600  0.4391
18598THY    CM145733   6.444   3.967   5.573  0.0171 -0.4880 -0.4155
18598THY    HM145734   6.522   3.895   5.546  0.8471 -0.3406  0.4051
18598THY    HM245735   6.388   3.930   5.660 -0.6689 -1.2681 -1.2900
18598THY    HM345736   6.487   4.061   5.609 -3.2617  3.5804 -0.1626
18598THY    CA645737   6.232   4.061   5.477  0.0420  0.0893  0.1047
18598THY    HA645738   6.229   4.126   5.564  0.4152 -1.0046  1.6386
18599THY      O45739   4.139   2.555   5.378 -0.3660  0.3067  0.1914
18599THY     HO45740   4.156   2.471   5.331 -2.2003 -1.5846  0.7651
18599THY    CA145741   4.201   2.556   5.500  0.9071 -0.4454 -0.5989
18599THY    CA245742   4.129   2.596   5.613  1.0483 -0.2126  0.2035
18599THY    CP145743   3.987   2.643   5.598  0.5989 -0.6586 -0.0478
18599THY    HP145744   3.947   2.581   5.516 -0.0434  0.9037 -1.8176
18599THY    CP245745   3.977   2.787   5.556 -0.1961 -0.7565 -0.5598
18599THY    HP245746   3.878   2.820   5.522  0.9640 -0.4126  3.9293
18599THY    HP345747   4.038   2.806   5.467  0.4843 -0.5343 -1.6354
18599THY    HP445748   4.021   2.849   5.634 -0.6256  0.8783 -2.2189
18599THY    CP345749   3.887   2.631   5.719 -0.4561  0.2678  0.4239
18599THY    HP545750   3.878   2.530   5.761 -3.4031  0.0595  0.5158
18599THY    HP645751   3.786   2.660   5.690 -1.4982  0.2946 -2.7604
18599THY    HP745752   3.916   2.698   5.801  2.3434 -0.8332  0.7045
18599THY    CA345753   4.197   2.604   5.738 -0.2952  0.0283  0.3224
18599THY    HA345754   4.145   2.636   5.828 -0.1030  0.4862 -0.6257
18599THY    CA445755   4.325   2.553   5.752 -0.7318 -0.1743 -0.2637
18599THY    HA445756   4.363   2.558   5.854  0.2403 -0.4307 -1.7882
18599THY    CA545757   4.392   2.492   5.639  0.1586 -0.8949 -0.4937
18599THY    CM145758   4.527   2.438   5.657 -0.0376  0.9095 -0.5746
18599THY    HM145759   4.543   2.387   5.753  0.3685  1.1654  0.0328
18599THY    HM245760   4.605   2.511   5.635 -0.1154 -0.7714 -0.9544
18599THY    HM345761   4.531   2.356   5.583 -1.6586  1.6142 -1.3510
18599THY    CA645762   4.328   2.504   5.517 -0.3477  0.0606 -0.5112
18599THY    HA645763   4.383   2.469   5.430 -1.0789 -1.4597  1.8604
18600THY      O45764   7.026   1.526   3.355 -0.0172  0.0878 -0.1265
18600THY     HO45765   6.999   1.477   3.275 -1.2575  0.1360  0.4434
18600THY    CA145766   7.142   1.592   3.324 -0.2561  0.5372 -0.3070
18600THY    CA245767   7.243   1.616   3.417 -0.2375 -0.3266 -0.3112
18600THY    CP145768   7.242   1.556   3.562 -0.1580  0.2672 -0.5528
18600THY    HP145769   7.154   1.491   3.575  0.8895  0.7178 -1.9109
18600THY    CP245770   7.227   1.670   3.670  0.3501 -0.4072  0.4615
18600THY    HP245771   7.130   1.722   3.673 -0.6878  0.2116 -1.4079
18600THY    HP345772   7.295   1.753   3.650  1.3173  0.9869  0.0442
18600THY    HP445773   7.247   1.634   3.772  0.2165  0.1645  1.9123
18600THY    CP345774   7.354   1.455   3.579  0.5200 -0.1285  0.0912
18600THY    HP545775   7.453   1.492   3.549  0.9301  0.5925 -0.3939
18600THY    HP645776   7.335   1.364   3.521 -0.8391 -2.6419  1.8684
18600THY    HP745777   7.359   1.428   3.686 -0.1235  0.5298  2.3342
18600THY    CA345778   7.357   1.693   3.380 -0.2260 -0.0729 -0.0450
18600THY    HA345779   7.439   1.721   3.446 -0.9971  0.8090  0.1680
18600THY    CA445780   7.370   1.734   3.247  0.1531 -0.2425  0.3100
18600THY    HA445781   7.463   1.774   3.208  0.4943  1.4471  1.2381
18600THY    CA545782   7.268   1.721   3.160  0.3069 -0.1359  0.2870
18600THY    CM145783   7.277   1.765   3.021 -0.3635  0.5402 -0.5121
18600THY    HM145784   7.231   1.863   3.009  3.4781  0.8794  1.5213
18600THY    HM245785   7.232   1.687   2.958  1.8125 -1.7649 -0.0321
18600THY    HM345786   7.379   1.773   2.981 -0.2724  0.7651 -0.5264
18600THY    CA645787   7.153   1.651   3.196  0.6902 -0.0773  0.1527
18600THY    HA645788   7.071   1.649   3.124  0.4734  0.1394 -2.5646
18601THY      O45789   2.168   5.997   7.618  0.1447  0.7795 -0.2396
18601THY     HO45790   2.163   6.024   7.524 -0.4530  0.5652 -1.0604
18601THY    CA145791   2.286   5.932   7.646 -0.2356  0.2136 -0.1377
18601THY    CA245792   2.369   5.973   7.751 -0.0035  0.3674 -0.3396
18601THY    CP145793   2.347   6.101   7.827 -0.3694  0.4599 -0.6296
18601THY    HP145794   2.238   6.114   7.830 -0.4364  2.0656 -1.3678
18601THY    CP245795   2.395   6.220   7.755 -0.3072  0.6493 -0.1183
18601THY    HP245796   2.340   6.312   7.778  0.5172  0.9241  0.3189
18601THY    HP345797   2.380   6.201   7.648  0.7553  0.9199 -2.9779
18601THY    HP445798   2.503   6.228   7.771  0.2996 -1.6389 -2.4868
18601THY    CP345799   2.402   6.099   7.972 -0.2119 -0.1340 -0.0255
18601THY    HP545800   2.374   6.007   8.024  0.4469  1.3831  0.5961
18601THY    HP645801   2.363   6.191   8.016 -0.1935 -2.0502  0.9620
18601THY    HP745802   2.511   6.103   7.984  0.2116 -3.3928  1.0068
18601THY    CA345803   2.491   5.903   7.769  0.2693  0.7358 -0.6530
18601THY    HA345804   2.565   5.929   7.844  1.3230 -0.9973  1.6419
18601THY    CA445805   2.517   5.786   7.698 -0.0650 -0.0299  0.7733
18601THY    HA445806   2.595   5.718   7.731 -0.5998 -0.2732  0.0272
18601THY    CA545807   2.436   5.746   7.589 -0.7562  0.3520 -1.1082
18601THY    CM145808   2.464   5.631   7.488 -0.0966 -0.1957 -1.0278
18601THY    HM145809   2.369   5.582   7.465 -0.1595 -0.5963 -0.7233
18601THY    HM245810   2.526   5.561   7.545 -1.2358  0.7121 -1.3338
18601THY    HM345811   2.516   5.673   7.401 -0.4890 -0.3593 -0.8776
18601THY    CA645812   2.325   5.825   7.561  0.4061 -0.3768 -0.3411
18601THY    HA645813   2.258   5.792   7.483 -1.4905  1.0574 -0.0868
18602THY      O45814   4.928   1.899   2.531  0.4287  0.3960  0.1684
18602THY     HO45815   4.920   1.974   2.592  1.3121  1.8671 -0.8899
18602THY    CA145816   4.925   1.797   2.610  1.1922 -0.4908 -0.4790
18602THY    CA245817   4.921   1.667   2.557  0.6324 -0.4899 -0.3168
18602THY    CP145818   4.962   1.637   2.412  0.0767 -0.3866 -0.5415
18602THY    HP145819   4.956   1.733   2.358  2.1639 -2.7587 -1.6097
18602THY    CP245820   4.863   1.541   2.348 -0.4530  0.5677  0.2049
18602THY    HP245821   4.761   1.580   2.349 -1.0625  3.7310 -1.1759
18602THY    HP345822   4.860   1.447   2.404 -1.1442  0.4992  0.1807
18602THY    HP445823   4.901   1.528   2.246 -0.9129  0.4973 -0.6349
18602THY    CP345824   5.113   1.593   2.402 -0.6372  0.0794  0.0566
18602THY    HP545825   5.140   1.590   2.295  0.4323  0.3238 -3.5305
18602THY    HP645826   5.139   1.493   2.437 -0.6971 -1.1153 -0.3975
18602THY    HP745827   5.180   1.657   2.461 -1.2327  0.7828  0.0341
18602THY    CA345828   4.918   1.557   2.646  0.3210 -0.0390  0.1999
18602THY    HA345829   4.927   1.460   2.598 -0.7427 -0.3546  0.2360
18602THY    CA445830   4.905   1.580   2.781 -0.3222 -0.8927  0.0632
18602THY    HA445831   4.894   1.492   2.843  0.2896 -1.9202 -0.7660
18602THY    CA545832   4.913   1.712   2.833 -0.5779 -1.0985  1.0009
18602THY    CM145833   4.892   1.747   2.985  0.5421  0.4227 -0.5478
18602THY    HM145834   4.885   1.665   3.057  1.2791  0.2785 -0.7492
18602THY    HM245835   4.789   1.782   2.995  0.1972 -1.0009 -1.0988
18602THY    HM345836   4.974   1.810   3.021  1.8614  0.3451 -2.1591
18602THY    CA645837   4.910   1.812   2.746  0.1185 -0.3920 -0.4391
18602THY    HA645838   4.896   1.909   2.794 -0.6531  0.4219 -0.9421
18603THY      O45839   1.408   2.404   7.703 -0.0874  0.1967 -0.3693
18603THY     HO45840   1.403   2.470   7.633  0.8752  1.1186  0.7319
18603THY    CA145841   1.536   2.406   7.725 -0.9791 -0.4159  0.7034
18603THY    CA245842   1.613   2.290   7.721  0.5761  0.2675  0.0107
18603THY    CP145843   1.545   2.154   7.694  0.9804  0.0688  0.6660
18603THY    HP145844   1.436   2.153   7.694  0.8968  0.8929 -2.4596
18603THY    CP245845   1.578   2.050   7.802  1.1338 -0.3561 -0.1299
18603THY    HP245846   1.571   2.091   7.904  0.6255 -0.1900 -0.6005
18603THY    HP345847   1.682   2.019   7.790  0.6408 -1.3971 -1.4821
18603THY    HP445848   1.505   1.968   7.795  0.7540 -0.8408  0.2423
18603THY    CP345849   1.578   2.097   7.553 -0.1346  0.5608 -0.7058
18603THY    HP545850   1.513   2.014   7.521  0.3287 -1.4931 -0.3285
18603THY    HP645851   1.683   2.072   7.533  0.2600 -1.5170  2.1428
18603THY    HP745852   1.560   2.168   7.471 -0.1557  0.1002 -1.2378
18603THY    CA345853   1.748   2.299   7.746  0.3013 -0.2435  0.2190
18603THY    HA345854   1.799   2.205   7.727 -1.4248 -1.5700 -0.4982
18603THY    CA445855   1.817   2.426   7.751  0.7685 -0.0687  0.0927
18603THY    HA445856   1.919   2.424   7.788  0.1495  1.7218 -0.0338
18603THY    CA545857   1.743   2.546   7.743  0.4638 -0.0402  0.1306
18603THY    CM145858   1.824   2.674   7.760  0.3531  0.4974 -0.7761
18603THY    HM145859   1.760   2.732   7.827  0.8896  1.0057 -0.7623
18603THY    HM245860   1.835   2.730   7.667 -1.5120  1.3188  1.1187
18603THY    HM345861   1.920   2.657   7.811  0.5430  0.1828 -0.6535
18603THY    CA645862   1.603   2.534   7.740  0.1348 -0.0737  0.3605
18603THY    HA645863   1.537   2.620   7.745  0.6154  0.4513  0.7089
18604THY      O45864   3.376   8.605   4.861 -0.5749 -0.0495 -0.1014
18604THY     HO45865   3.303   8.625   4.921 -1.7349 -0.8906 -1.5679
18604THY    CA145866   3.451   8.526   4.936  1.0122  0.0671  0.0206
18604THY    CA245867   3.589   8.503   4.909  0.0041  0.4074 -0.1162
18604THY    CP145868   3.652   8.568   4.789 -0.4232  0.1739  0.1490
18604THY    HP145869   3.581   8.617   4.723  0.4746 -0.8700  0.0853
18604THY    CP245870   3.729   8.470   4.705 -0.5286 -0.4376  0.0731
18604THY    HP245871   3.809   8.434   4.771 -1.8750  1.0873 -0.2543
18604THY    HP345872   3.770   8.514   4.614 -2.4318 -1.1219  0.5313
18604THY    HP445873   3.668   8.380   4.692 -0.4859 -1.2128  0.1509
18604THY    CP345874   3.741   8.683   4.835  0.7624  0.9092 -0.4262
18604THY    HP545875   3.836   8.649   4.878  1.8442  1.7178  3.1545
18604THY    HP645876   3.690   8.767   4.884 -0.2753  0.8725 -1.0294
18604THY    HP745877   3.779   8.738   4.748 -0.8456  0.0437 -0.6355
18604THY    CA345878   3.657   8.424   5.005  0.3035  0.2115 -0.6132
18604THY    HA345879   3.765   8.412   5.001  0.3048 -0.1836 -0.4747
18604THY    CA445880   3.580   8.365   5.111 -0.6868 -0.8658  0.8275
18604THY    HA445881   3.626   8.304   5.188  0.8783 -0.9920  1.7918
18604THY    CA545882   3.435   8.376   5.111 -0.3555 -0.5122  0.3965
18604THY    CM145883   3.364   8.310   5.220  0.0702 -0.9483  0.2209
18604THY    HM145884   3.258   8.301   5.194 -0.6032  1.2984  1.2168
18604THY    HM245885   3.356   8.379   5.304  0.7781 -0.7028  0.0255
18604THY    HM345886   3.408   8.212   5.245 -2.2566 -0.8271 -0.8575
18604THY    CA645887   3.372   8.464   5.032  0.2285  0.6485 -1.1512
18604THY    HA645888   3.267   8.486   5.045  0.5801  2.5366 -0.3801
18605THY      O45889   6.140   4.956   3.823 -0.4744 -0.1444 -0.2317
18605THY     HO45890   6.125   4.869   3.784  2.7975 -0.0867 -0.9587
18605THY    CA145891   6.060   4.967   3.931 -0.0841 -0.1721  0.1674
18605THY    CA245892   6.100   5.021   4.053  0.3037 -0.9078 -0.6000
18605THY    CP145893   6.240   5.067   4.056  0.0210 -0.4414 -0.4212
18605THY    HP145894   6.303   5.005   3.990 -2.1846 -2.7015 -0.4309
18605THY    CP245895   6.312   5.070   4.195 -0.0338  0.6273 -0.2311
18605THY    HP245896   6.282   4.981   4.251 -0.5018 -0.3280 -0.6775
18605THY    HP345897   6.297   5.165   4.248  1.1747  0.5178  0.0446
18605THY    HP445898   6.422   5.070   4.189  0.0717  2.1649 -0.8896
18605THY    CP345899   6.242   5.213   4.006  0.7060  0.6276  0.4229
18605THY    HP545900   6.165   5.274   4.056 -1.0060  2.1017 -2.7160
18605THY    HP645901   6.215   5.219   3.900 -0.3605  0.7170 -1.9064
18605THY    HP745902   6.341   5.259   4.020  0.2066  0.0490  1.7212
18605THY    CA345903   6.007   5.024   4.163 -1.1307  0.0561 -0.0205
18605THY    HA345904   6.031   5.069   4.259  0.2591 -0.0434 -0.5078
18605THY    CA445905   5.879   4.968   4.145 -0.0687 -0.2066 -0.1651
18605THY    HA445906   5.803   4.972   4.223 -1.3262 -1.4302  0.6724
18605THY    CA545907   5.843   4.916   4.020 -0.2739 -1.0889  0.5037
18605THY    CM145908   5.712   4.842   4.013 -0.3988  0.1900 -1.0451
18605THY    HM145909   5.691   4.784   4.104 -0.3113 -0.7314 -2.6011
18605THY    HM245910   5.708   4.767   3.933 -0.8197  0.2554 -1.0922
18605THY    HM345911   5.634   4.914   3.988 -1.3205  0.2812 -1.9876
18605THY    CA645912   5.937   4.901   3.921 -0.1798  0.9902  0.1406
18605THY    HA645913   5.906   4.850   3.830  0.2631  0.5589  0.6384
18606THY      O45914   4.504   7.117   6.663  0.6821  0.8039  0.0485
18606THY     HO45915   4.598   7.110   6.638  0.5291 -0.0606  0.8786
18606THY    CA145916   4.447   7.017   6.602  0.5503 -0.2094  0.7310
18606THY    CA245917   4.336   6.945   6.656  0.6659 -0.5247 -0.0324
18606THY    CP145918   4.285   6.982   6.796 -0.2318 -0.2493 -0.0496
18606THY    HP145919   4.308   7.082   6.834  3.0202  0.4526 -0.9434
18606THY    CP245920   4.360   6.898   6.899 -0.7395  0.3064  0.1994
18606THY    HP245921   4.298   6.909   6.989 -3.3275 -1.0638 -1.9197
18606THY    HP345922   4.463   6.928   6.921 -0.7428  1.8127 -0.7774
18606THY    HP445923   4.370   6.793   6.869  4.0544 -0.1518  0.5343
18606THY    CP345924   4.132   6.962   6.818  0.0730  0.2098 -0.1488
18606THY    HP545925   4.110   6.855   6.817  0.6905 -1.8934 -0.3006
18606THY    HP645926   4.083   7.006   6.730  0.3459  0.0983 -0.0630
18606THY    HP745927   4.102   7.014   6.909  0.4921 -0.3346  1.0852
18606THY    CA345928   4.291   6.832   6.595  1.1227  0.2128  0.3126
18606THY    HA345929   4.223   6.760   6.641  0.2847 -1.1999  0.1661
18606THY    CA445930   4.334   6.803   6.463 -0.4936 -0.1798  0.9059
18606THY    HA445931   4.296   6.721   6.404  0.6320 -2.3998  1.8989
18606THY    CA545932   4.425   6.886   6.397 -0.7378 -0.1689 -0.4654
18606THY    CM145933   4.480   6.854   6.264 -0.1447  0.2275 -0.8708
18606THY    HM145934   4.405   6.804   6.203 -0.0020 -1.6277  1.0240
18606THY    HM245935   4.561   6.781   6.275 -1.2598  1.9257 -1.9204
18606THY    HM345936   4.497   6.951   6.215 -0.4423  2.3925  0.3424
18606THY    CA645937   4.477   6.992   6.471 -0.2596  0.0170 -0.7003
18606THY    HA645938   4.559   7.051   6.431 -0.3412 -0.9189 -1.2166
18607THY      O45939   3.162   1.110   5.095 -0.2743 -0.0777  0.3850
18607THY     HO45940   3.076   1.149   5.070 -1.2704  2.8856  0.3328
18607THY    CA145941   3.230   1.101   4.981  0.5479  0.2735  0.4973
18607THY    CA245942   3.361   1.050   4.969 -0.1737  0.0406  0.1526
18607THY    CP145943   3.445   1.032   5.097  0.4684  0.2493  0.0587
18607THY    HP145944   3.426   1.111   5.171 -1.0610  0.8488 -0.8115
18607THY    CP245945   3.591   1.061   5.072 -0.5213 -0.7178  0.4063
18607THY    HP245946   3.639   0.982   5.013  1.0936 -1.7239  2.0981
18607THY    HP345947   3.640   1.067   5.170  0.7015 -1.2995  0.2435
18607THY    HP445948   3.601   1.158   5.024  1.2980  0.9835  1.1354
18607THY    CP345949   3.436   0.889   5.162  0.4388  0.3206 -0.1747
18607THY    HP545950   3.375   0.820   5.103 -0.8097  0.5758  0.6635
18607THY    HP645951   3.391   0.907   5.261 -0.3522 -0.1889  0.8174
18607THY    HP745952   3.535   0.843   5.173 -0.2674  1.4524 -1.5010
18607THY    CA345953   3.412   1.036   4.838  0.1315  0.1895 -0.2847
18607THY    HA345954   3.514   1.003   4.818 -0.2817 -0.9472 -0.9069
18607THY    CA445955   3.332   1.064   4.727 -0.5103 -0.1454  0.7400
18607THY    HA445956   3.365   1.046   4.625 -1.4868 -0.4892  0.8377
18607THY    CA545957   3.194   1.090   4.744 -0.2188  0.6869 -0.4309
18607THY    CM145958   3.103   1.110   4.618 -0.9064 -0.0590  0.1253
18607THY    HM145959   2.998   1.095   4.647 -2.6421 -3.6461  3.5710
18607THY    HM245960   3.132   1.036   4.542  0.2222  1.2185 -0.7984
18607THY    HM345961   3.122   1.210   4.577 -2.0894  1.1822  0.8877
18607THY    CA645962   3.145   1.100   4.873  0.0650  0.5569 -0.3523
18607THY    HA645963   3.038   1.115   4.881 -0.2320 -3.3323  0.6106
18608THY      O45964   2.262   4.439   6.400  0.0739  0.0228 -0.1838
18608THY     HO45965   2.181   4.395   6.431 -0.6562 -0.4312  0.8200
18608THY    CA145966   2.252   4.565   6.461  0.8727 -0.4970  0.9658
18608THY    CA245967   2.341   4.674   6.448  0.3669 -0.2949 -0.1618
18608THY    CP145968   2.451   4.656   6.345  0.0585  0.1744 -0.8558
18608THY    HP145969   2.425   4.570   6.282  0.1207 -1.6739  0.4353
18608THY    CP245970   2.588   4.636   6.413  0.0852 -0.2031 -0.4233
18608THY    HP245971   2.583   4.542   6.469  0.3825 -1.5220 -1.2516
18608THY    HP345972   2.614   4.729   6.464 -0.5074  1.4025 -1.1062
18608THY    HP445973   2.677   4.610   6.354  0.7389  0.6192 -0.0712
18608THY    CP345974   2.459   4.779   6.251 -0.0091  0.5350  0.4901
18608THY    HP545975   2.527   4.763   6.167  1.3381  1.5434  0.7870
18608THY    HP645976   2.482   4.874   6.301 -1.8663 -0.3358  1.4539
18608THY    HP745977   2.357   4.799   6.217 -0.7779  2.2257 -0.3290
18608THY    CA345978   2.316   4.781   6.529 -0.0600 -0.4374  0.6812
18608THY    HA345979   2.378   4.869   6.512 -0.1876 -3.6764  0.2726
18608THY    CA445980   2.213   4.783   6.618  0.6124 -0.2643 -0.0251
18608THY    HA445981   2.199   4.873   6.677  2.5868  0.3109 -0.0483
18608THY    CA545982   2.131   4.669   6.640 -0.5378 -0.0148 -0.0132
18608THY    CM145983   2.053   4.661   6.779  0.0482 -0.5799  0.8600
18608THY    HM145984   2.019   4.762   6.802  0.9224 -0.3936  1.1171
18608THY    HM245985   2.101   4.620   6.868 -2.2727  0.3116 -0.1015
18608THY    HM345986   1.970   4.591   6.761  1.2903 -2.0559 -0.3313
18608THY    CA645987   2.151   4.566   6.555  0.1189 -0.4569  0.6840
18608THY    HA645988   2.087   4.479   6.562 -0.2382  0.0151  0.9777
18609THY      O45989   7.670   2.714   5.741  0.6281  0.3272 -0.4535
18609THY     HO45990   7.670   2.736   5.836 -3.8306  0.0160  2.0296
18609THY    CA145991   7.623   2.826   5.680 -0.0522  0.1895  0.5634
18609THY    CA245992   7.639   2.844   5.539  0.1791 -0.1073 -0.5438
18609THY    CP145993   7.727   2.754   5.448 -0.1463 -0.7489 -0.2567
18609THY    HP145994   7.804   2.708   5.511 -1.4819  1.5452  0.4867
18609THY    CP245995   7.807   2.840   5.354  0.2995  0.1344  0.0922
18609THY    HP245996   7.751   2.871   5.265 -0.3209  0.9998  1.5774
18609THY    HP345997   7.889   2.786   5.306  0.3819 -0.5164  0.7799
18609THY    HP445998   7.852   2.929   5.400 -2.2984  2.3369  0.3851
18609THY    CP345999   7.646   2.647   5.387 -0.0862 -0.4612 -0.1367
18609THY    HP546000   7.589   2.593   5.463  0.9793  2.0497  2.0474
18609THY    HP646001   7.715   2.578   5.335 -1.0317 -2.0471  0.0640
18609THY    HP746002   7.582   2.685   5.306  0.7105 -1.1485 -0.2138
18609THY    CA346003   7.578   2.962   5.489 -0.5483  0.2468 -0.3432
18609THY    HA346004   7.582   2.993   5.385  3.1558  0.2896 -0.2588
18609THY    CA446005   7.493   3.042   5.564  0.1412 -0.2781  0.0951
18609THY    HA446006   7.449   3.130   5.518  0.2963 -0.5588  0.0278
18609THY    CA546007   7.475   3.015   5.695  0.9308  0.1936  0.3606
18609THY    CM146008   7.372   3.094   5.773 -0.1757 -0.6720 -0.0574
18609THY    HM146009   7.379   3.200   5.748 -0.3151 -0.1213  0.0818
18609THY    HM246010   7.381   3.079   5.881 -0.6548 -0.5367  0.5978
18609THY    HM346011   7.270   3.058   5.755 -0.4284 -2.6558  1.4316
18609THY    CA646012   7.534   2.904   5.751  0.4104 -0.4673 -0.5993
18609THY    HA646013   7.515   2.886   5.857 -1.0714 -0.9410 -2.0187
18610THY      O46014   8.593   7.741   4.589 -0.0938  0.2811 -0.0122
18610THY     HO46015   8.502   7.729   4.622 -0.6363 -1.0896  0.1414
18610THY    CA146016   8.653   7.780   4.699  0.2903  0.1058 -0.0773
18610THY    CA246017   8.791   7.821   4.697  0.5439 -0.3904 -1.3634
18610THY    CP146018   8.878   7.814   4.570  0.6873  0.1458  0.0464
18610THY    HP146019   8.814   7.754   4.503  0.1859  0.9445 -0.3298
18610THY    CP246020   9.004   7.742   4.592  0.8511  0.3180  0.0133
18610THY    HP246021   8.985   7.645   4.641 -0.2893  0.8056  0.4647
18610THY    HP346022   9.084   7.795   4.644  1.4870 -1.7211  1.1665
18610THY    HP446023   9.063   7.729   4.500  1.1385  0.1101  2.3785
18610THY    CP346024   8.885   7.951   4.497 -0.4935  0.1291 -0.0579
18610THY    HP546025   8.918   7.943   4.392  0.4946  0.2007  2.2953
18610THY    HP646026   8.946   8.017   4.560 -1.4501  0.3435  0.6420
18610THY    HP746027   8.790   8.004   4.503 -0.1660 -2.5685  1.0217
18610THY    CA346028   8.842   7.869   4.819 -0.3799 -0.6116  0.0620
18610THY    HA346029   8.946   7.901   4.814 -0.4100 -1.9518  0.0227
18610THY    CA446030   8.764   7.873   4.933  0.1604 -0.6158 -0.1668
18610THY    HA446031   8.804   7.912   5.026  0.3812  0.7233 -3.2961
18610THY    CA546032   8.634   7.833   4.928  0.3526 -0.3362  0.2181
18610THY    CM146033   8.550   7.826   5.050 -0.1674 -0.8038 -0.0870
18610THY    HM146034   8.459   7.884   5.029 -0.0395 -0.6821  0.1574
18610THY    HM246035   8.602   7.869   5.136 -0.1824 -1.0617  0.4570
18610THY    HM346036   8.516   7.727   5.081  0.2753 -2.5809 -0.8498
18610THY    CA646037   8.580   7.793   4.810 -0.1669 -0.0207 -0.3031
18610THY    HA646038   8.475   7.765   4.810  0.6470 -0.4985 -3.8524
18611THY      O46039   6.602   3.210   3.388 -0.2824 -0.3010 -0.7152
18611THY     HO46040   6.679   3.156   3.362  0.6712  1.3278 -0.2094
18611THY    CA146041   6.620   3.337   3.333 -0.6847 -0.2332 -0.4969
18611THY    CA246042   6.623   3.450   3.413 -0.2203 -0.0250  0.4697
18611THY    CP146043   6.610   3.433   3.563  0.2604 -0.2153 -0.2957
18611THY    HP146044   6.604   3.328   3.595  2.3116  1.0357 -0.0960
18611THY    CP246045   6.493   3.506   3.629  0.1551 -0.7697 -0.7547
18611THY    HP246046   6.477   3.603   3.581 -4.0253  0.3146 -0.7455
18611THY    HP346047   6.511   3.541   3.731 -1.3397 -1.2466  1.6062
18611THY    HP446048   6.400   3.448   3.621 -0.0332 -3.0162 -0.2347
18611THY    CP346049   6.734   3.494   3.632  0.0316  0.5098 -0.2531
18611THY    HP546050   6.823   3.444   3.594 -0.1470 -3.6408  2.0848
18611THY    HP646051   6.737   3.476   3.740 -1.5662  1.1904  2.7949
18611THY    HP746052   6.736   3.600   3.603 -1.9152  3.1957  0.6253
18611THY    CA346053   6.622   3.574   3.343  0.2632  0.5873  0.5074
18611THY    HA346054   6.623   3.669   3.396  0.5880 -0.0309  0.8547
18611THY    CA446055   6.620   3.580   3.202  0.1572  0.3473 -0.7560
18611THY    HA446056   6.624   3.679   3.157  2.9568  2.5988  0.3010
18611THY    CA546057   6.627   3.468   3.129  0.0790 -0.2262 -0.1897
18611THY    CM146058   6.653   3.470   2.981  0.8773 -0.3481 -0.3775
18611THY    HM146059   6.618   3.387   2.918 -0.4545  0.0456 -0.1333
18611THY    HM246060   6.760   3.485   2.960  1.4439  1.0386 -2.1624
18611THY    HM346061   6.615   3.561   2.933 -1.0767  0.3363 -0.7960
18611THY    CA646062   6.629   3.347   3.197 -0.1752 -0.0687  0.2482
18611THY    HA646063   6.614   3.259   3.135 -0.8692 -0.1364  0.4053
18612THY      O46064   0.219   7.921   6.571  0.2817  0.1753  1.0461
18612THY     HO46065   0.131   7.963   6.574 -1.7158  4.0968 -2.5809
18612THY    CA146066   0.239   7.871   6.697  0.4930  0.7979  0.8367
18612THY    CA246067   0.299   7.746   6.719 -0.5666  0.2833  0.3677
18612THY    CP146068   0.361   7.665   6.605 -0.1551  0.3726  0.1424
18612THY    HP146069   0.403   7.734   6.531 -3.2470 -1.7110  0.0365
18612THY    CP246070   0.249   7.587   6.531 -0.5034  0.4268  0.3162
18612THY    HP246071   0.155   7.643   6.525 -0.8891 -0.9435 -0.4205
18612THY    HP346072   0.233   7.494   6.586 -1.3134  0.2756  0.3564
18612THY    HP446073   0.287   7.565   6.430 -1.9562 -0.5502  1.9750
18612THY    CP346074   0.480   7.570   6.636  0.0630  0.0496 -0.5827
18612THY    HP546075   0.566   7.630   6.669  0.7027 -1.3585 -0.6742
18612THY    HP646076   0.498   7.511   6.545  0.0523 -1.5823  1.7722
18612THY    HP746077   0.452   7.493   6.709 -1.5165 -0.4089 -0.4716
18612THY    CA346078   0.310   7.694   6.848  0.2486 -0.4344 -0.0911
18612THY    HA346079   0.366   7.603   6.869 -0.7920 -1.8835 -1.1081
18612THY    CA446080   0.250   7.766   6.955 -0.1886  1.3695  0.6216
18612THY    HA446081   0.260   7.734   7.058  0.3141  1.2995  0.5532
18612THY    CA546082   0.182   7.887   6.932  0.0240  0.4808 -0.9876
18612THY    CM146083   0.121   7.961   7.048  0.5509 -0.0781 -0.6282
18612THY    HM146084   0.153   7.928   7.147 -3.8024  0.9189 -2.5303
18612THY    HM246085   0.013   7.947   7.054  0.6292 -0.0412 -1.2431
18612THY    HM346086   0.146   8.068   7.047  2.8891  3.2058 -1.0011
18612THY    CA646087   0.177   7.947   6.800 -0.6840 -0.0252  0.5856
18612THY    HA646088   0.129   8.043   6.787 -0.0712 -1.5878  0.7160
18613THY      O46089   5.438   6.633   2.368  0.3411  0.2385 -0.0160
18613THY     HO46090   5.387   6.716   2.371 -1.1661 -0.6860 -0.8587
18613THY    CA146091   5.551   6.657   2.300 -0.0617  0.8933 -0.1213
18613THY    CA246092   5.671   6.594   2.336  0.4530  0.3608  0.3187
18613THY    CP146093   5.672   6.499   2.463 -0.0572 -0.5109 -0.3057
18613THY    HP146094   5.596   6.523   2.538 -0.2082  0.0454 -2.3369
18613THY    CP246095   5.804   6.510   2.552  0.6800  1.1601 -0.7388
18613THY    HP246096   5.805   6.615   2.581 -0.8700 -0.0287 -0.3573
18613THY    HP346097   5.894   6.499   2.490 -0.5622 -1.0810  0.9215
18613THY    HP446098   5.815   6.429   2.625 -0.4318  0.5020 -1.5164
18613THY    CP346099   5.654   6.358   2.424 -0.2142 -0.3931  0.3030
18613THY    HP546100   5.742   6.327   2.365  0.2554  0.0186  0.8319
18613THY    HP646101   5.565   6.335   2.365 -0.8007  0.3612  0.6135
18613THY    HP746102   5.650   6.295   2.514 -1.0343  0.5653  1.6685
18613THY    CA346103   5.781   6.632   2.261 -0.3909  0.5640  0.1595
18613THY    HA346104   5.877   6.591   2.289  0.4956 -2.5180 -0.0914
18613THY    CA446105   5.770   6.713   2.151  0.9897  0.4228  0.1837
18613THY    HA446106   5.855   6.750   2.095  0.0847  0.0798  1.8525
18613THY    CA546107   5.646   6.771   2.124 -0.0567  0.3172 -0.0721
18613THY    CM146108   5.635   6.874   2.016 -0.5634 -0.3512 -0.0878
18613THY    HM146109   5.566   6.822   1.949 -1.1754 -0.3428  0.6975
18613THY    HM246110   5.725   6.898   1.958 -1.1859 -1.6239 -0.7360
18613THY    HM346111   5.603   6.966   2.066  0.9578 -1.2623  0.9818
18613THY    CA646112   5.533   6.743   2.195 -0.6222 -0.6158 -0.0847
18613THY    HA646113   5.438   6.780   2.159 -2.4154  0.7635 -2.9917
18614THY      O46114   5.422   6.330   3.686 -0.0566  0.0982 -0.0884
18614THY     HO46115   5.509   6.315   3.646 -0.5073 -1.1375  0.4328
18614THY    CA146116   5.434   6.442   3.759 -0.9178 -0.1777 -0.8190
18614THY    CA246117   5.320   6.508   3.820 -0.9369  0.1410  0.4909
18614THY    CP146118   5.177   6.473   3.786 -0.2363  0.6117 -0.2455
18614THY    HP146119   5.180   6.427   3.686 -0.1584  1.3949 -1.9914
18614THY    CP246120   5.074   6.591   3.772 -0.0807  0.6739  0.0156
18614THY    HP246121   5.048   6.636   3.869 -0.8944 -0.4012  1.9895
18614THY    HP346122   4.983   6.553   3.726 -0.5440 -1.9041  3.6763
18614THY    HP446123   5.112   6.661   3.697 -1.3678 -0.8018 -0.8151
18614THY    CP346124   5.119   6.384   3.894 -0.0480  0.0703  0.4922
18614THY    HP546125   5.015   6.357   3.873  0.0391 -0.2214  0.3784
18614THY    HP646126   5.119   6.429   3.994 -1.8205  0.5085 -0.3850
18614THY    HP746127   5.178   6.291   3.892 -1.0630  1.9196 -0.2664
18614THY    CA346128   5.347   6.621   3.905 -0.2334  0.1884  0.1404
18614THY    HA346129   5.264   6.674   3.950 -1.6766 -0.8657 -1.1061
18614THY    CA446130   5.474   6.676   3.912  0.2094 -1.0882  0.1000
18614THY    HA446131   5.484   6.760   3.980  0.8263  0.1122 -0.9112
18614THY    CA546132   5.583   6.609   3.855 -0.2823 -0.6671  0.2221
18614THY    CM146133   5.718   6.669   3.850  0.0469 -0.3314  0.0883
18614THY    HM146134   5.793   6.593   3.874  1.6337 -1.5540  1.1924
18614THY    HM246135   5.725   6.745   3.928 -2.0533 -3.0017  3.3885
18614THY    HM346136   5.745   6.704   3.749  0.7119 -0.9198 -1.9686
18614THY    CA646137   5.565   6.490   3.780  0.5330 -0.2021 -0.0245
18614THY    HA646138   5.647   6.433   3.738 -1.5236 -1.3003 -2.3651
18615THY      O46139   7.936   7.786   7.469 -0.6427  0.7141 -0.1855
18615THY     HO46140   7.994   7.800   7.546  0.3475  0.1647 -1.0765
18615THY    CA146141   7.984   7.866   7.370 -0.0105  0.4219  0.3633
18615THY    CA246142   7.960   7.843   7.234 -0.5814 -0.7764  0.1425
18615THY    CP146143   7.883   7.722   7.197 -0.1406 -0.1077 -0.2261
18615THY    HP146144   7.906   7.645   7.272 -3.1161  0.4630 -0.6537
18615THY    CP246145   7.941   7.662   7.065  0.6796  0.2347  0.0838
18615THY    HP246146   8.049   7.679   7.060  0.6176 -1.4221  0.1197
18615THY    HP346147   7.891   7.710   6.980 -0.4702 -0.4156 -2.1594
18615THY    HP446148   7.930   7.553   7.062 -0.8205  0.2141  0.2239
18615THY    CP346149   7.729   7.736   7.188  0.0719  0.8302 -0.0636
18615THY    HP546150   7.699   7.829   7.139 -0.8052  2.2406  0.4256
18615THY    HP646151   7.678   7.731   7.286 -1.8496 -0.1391 -0.5033
18615THY    HP746152   7.694   7.652   7.127  0.8446 -0.5364  0.5741
18615THY    CA346153   8.014   7.941   7.140  0.5807 -0.2378 -0.5237
18615THY    HA346154   8.004   7.939   7.032  1.0751 -0.3842  1.6726
18615THY    CA446155   8.067   8.059   7.185  0.4552 -0.5900  0.1275
18615THY    HA446156   8.101   8.139   7.120  0.5584  2.5018  2.8120
18615THY    CA546157   8.095   8.075   7.328 -0.9236 -0.2716  0.0225
18615THY    CM146158   8.164   8.207   7.362 -0.1550 -0.5996  0.0235
18615THY    HM146159   8.093   8.278   7.404 -0.8045  0.2803 -1.1095
18615THY    HM246160   8.212   8.253   7.274  1.8678  0.6792  0.4968
18615THY    HM346161   8.237   8.187   7.441 -0.2357 -0.7068 -0.7191
18615THY    CA646162   8.057   7.978   7.416  0.3120  0.0436  0.2256
18615THY    HA646163   8.064   7.997   7.523  1.1641  0.1186 -0.5046
18616THY      O46164   2.989   4.720   7.398  0.4671 -0.4115  0.1896
18616THY     HO46165   2.959   4.671   7.320  2.1794 -1.1348  0.2099
18616THY    CA146166   3.120   4.738   7.372  0.8538 -0.4640 -0.1544
18616THY    CA246167   3.228   4.699   7.451  0.5200  0.2762  0.5420
18616THY    CP146168   3.211   4.622   7.579 -0.1859  0.4456 -0.1414
18616THY    HP146169   3.306   4.587   7.620 -0.3901  0.4852 -0.6520
18616THY    CP246170   3.126   4.497   7.562 -0.0713  0.4811 -0.1195
18616THY    HP246171   3.155   4.429   7.481 -1.4976 -0.6700  0.5832
18616THY    HP346172   3.021   4.529   7.565  0.3415  2.0287  1.1822
18616THY    HP446173   3.138   4.428   7.646  1.6636 -0.6504 -1.2859
18616THY    CP346174   3.153   4.719   7.690 -0.6460 -0.3010  0.0065
18616THY    HP546175   3.232   4.792   7.713 -0.8330 -0.3644  0.2300
18616THY    HP646176   3.132   4.670   7.786  3.2614  0.7237 -0.0324
18616THY    HP746177   3.061   4.757   7.645 -0.3431 -0.9845 -0.0544
18616THY    CA346178   3.354   4.734   7.408 -0.8130  0.4238  0.1164
18616THY    HA346179   3.445   4.708   7.461 -0.0711 -0.2384  1.2836
18616THY    CA446180   3.374   4.794   7.282 -0.2560  0.2982  0.7624
18616THY    HA446181   3.473   4.830   7.256  0.0708 -0.4246 -0.5878
18616THY    CA546182   3.271   4.811   7.195 -0.5236 -0.5654 -0.3111
18616THY    CM146183   3.294   4.883   7.055 -0.9726 -0.8088 -0.7408
18616THY    HM146184   3.391   4.855   7.011 -0.3079  0.1935 -0.0371
18616THY    HM246185   3.295   4.990   7.078 -2.0818  0.8716 -1.0565
18616THY    HM346186   3.215   4.868   6.980 -1.1615 -0.8932  0.5764
18616THY    CA646187   3.141   4.776   7.241 -0.2782  0.3227 -0.2347
18616THY    HA646188   3.055   4.800   7.179 -2.0617  1.8651 -2.1790
18617THY      O46189   3.841   4.203   2.387 -0.3826  0.3803  0.7223
18617THY     HO46190   3.881   4.248   2.311 -0.8431  0.4789  1.3121
18617THY    CA146191   3.740   4.131   2.327 -0.5473 -0.1323 -1.6255
18617THY    CA246192   3.644   4.063   2.408 -0.0942 -0.3142 -0.2625
18617THY    CP146193   3.647   4.073   2.562 -0.3566  0.7208 -0.2875
18617THY    HP146194   3.740   4.120   2.597 -1.3362  0.5969  1.8296
18617THY    CP246195   3.643   3.933   2.617  0.4400 -0.1471 -0.4189
18617THY    HP246196   3.669   3.938   2.724  2.7844 -0.6981  2.1863
18617THY    HP346197   3.716   3.857   2.587  1.5478  3.1396 -0.8137
18617THY    HP446198   3.536   3.910   2.614 -0.0539  0.8257  1.5349
18617THY    CP346199   3.538   4.155   2.614  0.0713  0.4739  0.2041
18617THY    HP546200   3.544   4.260   2.581 -0.8735  2.4230  0.9208
18617THY    HP646201   3.559   4.168   2.721  1.0497  0.1361  1.6148
18617THY    HP746202   3.440   4.107   2.603  1.3541  0.1217 -2.5038
18617THY    CA346203   3.543   3.988   2.348 -0.4882  0.8991  0.0535
18617THY    HA346204   3.459   3.949   2.405  0.1654  4.2400  2.9470
18617THY    CA446205   3.553   3.968   2.209  0.0331  0.1892 -1.0250
18617THY    HA446206   3.482   3.903   2.159  1.3437 -2.4732 -0.5674
18617THY    CA546207   3.649   4.037   2.131 -0.9599 -0.8295  0.2114
18617THY    CM146208   3.675   4.011   1.986 -0.1281  0.8970 -0.4233
18617THY    HM146209   3.618   3.926   1.948 -1.1798  1.7313 -0.1212
18617THY    HM246210   3.781   3.992   1.966  0.3315  2.7137  0.0420
18617THY    HM346211   3.652   4.097   1.922 -0.3406 -1.2464 -2.0096
18617THY    CA646212   3.743   4.124   2.192 -0.4121 -0.2467 -0.5357
18617THY    HA646213   3.813   4.186   2.137 -1.7326 -0.4771  0.8243
18618THY      O46214   7.124   5.187   4.619 -0.4389 -0.2414  0.0402
18618THY     HO46215   7.096   5.094   4.624  0.7651 -0.8418 -0.3734
18618THY    CA146216   7.015   5.258   4.664 -0.2610  0.1013 -0.4409
18618THY    CA246217   6.983   5.377   4.593 -0.2984  0.4601 -0.2814
18618THY    CP146218   7.045   5.403   4.451  0.1329  0.6524 -0.5485
18618THY    HP146219   7.064   5.308   4.401  2.5666  1.1098 -0.3831
18618THY    CP246220   7.185   5.473   4.460  0.9519 -0.3616  0.0243
18618THY    HP246221   7.241   5.462   4.366  1.1114 -0.5907  2.3133
18618THY    HP346222   7.247   5.419   4.532  0.0391  0.6766  0.3406
18618THY    HP446223   7.183   5.573   4.506 -1.1269  0.0746 -0.1925
18618THY    CP346224   6.957   5.492   4.354  0.0606 -0.3758 -0.2633
18618THY    HP546225   6.856   5.450   4.352 -0.3514  2.6813  0.3897
18618THY    HP646226   7.003   5.476   4.256 -2.1517 -1.6334  0.5655
18618THY    HP746227   6.960   5.599   4.378  0.7817 -0.9600 -0.1414
18618THY    CA346228   6.879   5.463   4.642  0.1639 -0.4467  0.4327
18618THY    HA346229   6.848   5.547   4.580  2.2108  0.5316  2.0116
18618THY    CA446230   6.822   5.435   4.766 -0.3950  1.2787  0.0422
18618THY    HA446231   6.744   5.494   4.813  1.1887  1.9328  1.7399
18618THY    CA546232   6.859   5.319   4.835 -0.2687  0.3035 -0.6858
18618THY    CM146233   6.801   5.289   4.964  0.4596 -0.0381  0.3910
18618THY    HM146234   6.851   5.218   5.032 -0.4472  0.7784  0.5183
18618THY    HM246235   6.698   5.254   4.951 -0.7426  1.0595  3.2295
18618THY    HM346236   6.789   5.376   5.029  2.2344  2.1236 -0.8520
18618THY    CA646237   6.959   5.233   4.784  0.0289  0.1415 -0.3787
18618THY    HA646238   6.995   5.161   4.856  0.8378  0.4831  0.3490
18619THY      O46239   0.731   7.361   2.548 -0.5064  0.2655  0.0277
18619THY     HO46240   0.634   7.369   2.553 -0.4369 -0.4698  2.1348
18619THY    CA146241   0.754   7.273   2.443 -0.1717 -0.8836 -0.4562
18619THY    CA246242   0.876   7.270   2.372  0.0447  0.2415 -0.1506
18619THY    CP146243   0.999   7.315   2.441 -0.2189  0.0492 -0.2804
18619THY    HP146244   0.987   7.303   2.549  0.6399  0.0989 -0.8432
18619THY    CP246245   1.031   7.454   2.392  0.3041 -0.2299 -0.2322
18619THY    HP246246   0.938   7.510   2.379  0.1759 -0.9495 -0.5989
18619THY    HP346247   1.083   7.465   2.296 -0.7280 -0.8485 -0.6042
18619THY    HP446248   1.091   7.508   2.466  0.4216 -1.5701  1.5761
18619THY    CP346249   1.123   7.232   2.417 -0.1637 -0.6329 -0.5197
18619THY    HP546250   1.196   7.280   2.482 -1.6777 -0.4737  1.7050
18619THY    HP646251   1.158   7.240   2.314 -2.8138 -1.4594  2.1645
18619THY    HP746252   1.110   7.131   2.460  2.0648  1.1071 -0.1549
18619THY    CA346253   0.886   7.192   2.253 -0.0621  0.6996 -0.7739
18619THY    HA346254   0.977   7.175   2.197  0.6294  1.5838 -0.0421
18619THY    CA446255   0.772   7.122   2.213 -0.0637 -0.2828 -0.3168
18619THY    HA446256   0.770   7.070   2.117 -2.4813 -1.6910  2.1265
18619THY    CA546257   0.651   7.138   2.276  0.0117  0.2367 -0.4977
18619THY    CM146258   0.534   7.062   2.234  0.7489  0.0521 -0.1688
18619THY    HM146259   0.450   7.133   2.237  0.3766 -0.3934 -0.5825
18619THY    HM246260   0.516   6.970   2.291  0.1843 -1.0315 -0.7449
18619THY    HM346261   0.548   7.026   2.131  1.0645  0.2344 -0.5727
18619THY    CA646262   0.639   7.205   2.400  0.0749 -0.6616  0.1735
18619THY    HA646263   0.547   7.210   2.458 -0.6198 -1.7537  0.3202
18620THY      O46264   3.758   1.711   3.911 -0.4083 -0.3529 -0.5597
18620THY     HO46265   3.694   1.720   3.838 -0.4858 -0.1483  0.8655
18620THY    CA146266   3.737   1.605   3.995  0.1078 -0.5526 -0.6960
18620THY    CA246267   3.822   1.571   4.102 -0.5901 -0.1268  0.3513
18620THY    CP146268   3.926   1.675   4.149  0.0028 -0.4808 -0.6005
18620THY    HP146269   3.954   1.750   4.074 -1.4235  0.5822  1.1002
18620THY    CP246270   4.061   1.614   4.188  0.2359  0.1354 -0.1196
18620THY    HP246271   4.087   1.542   4.109 -1.1689 -2.4503  2.0207
18620THY    HP346272   4.048   1.567   4.286 -1.9113 -0.2831 -0.5399
18620THY    HP446273   4.140   1.689   4.195 -0.1185 -2.7535  0.6457
18620THY    CP346274   3.877   1.769   4.264  0.6783  0.5700  0.4907
18620THY    HP546275   3.859   1.715   4.357  2.2473  1.3549  1.2591
18620THY    HP646276   3.800   1.841   4.235 -1.1115  0.8791 -1.2147
18620THY    HP746277   3.964   1.834   4.279 -0.3746 -2.6960  2.9751
18620THY    CA346278   3.807   1.438   4.152 -0.2132  0.0757  0.5988
18620THY    HA346279   3.871   1.404   4.232 -0.9871  1.3604  2.0284
18620THY    CA446280   3.709   1.347   4.101 -0.4006 -0.4200  0.0714
18620THY    HA446281   3.703   1.246   4.140  0.3011 -2.4255 -0.7813
18620THY    CA546282   3.624   1.385   3.996  0.6724 -0.3104 -0.7234
18620THY    CM146283   3.523   1.288   3.944  0.6208 -0.3064 -0.4567
18620THY    HM146284   3.420   1.325   3.949  1.3757 -1.0471  1.8877
18620THY    HM246285   3.528   1.191   3.995  0.3791 -1.4805 -1.1125
18620THY    HM346286   3.540   1.258   3.840 -0.4867 -0.7736  0.4922
18620THY    CA646287   3.643   1.518   3.949 -0.2733 -0.4083  0.3138
18620THY    HA646288   3.595   1.541   3.854  0.7204 -1.7593 -2.6458
18621THY      O46289   4.358   3.980   7.375 -0.1471 -0.3320  0.3369
18621THY     HO46290   4.289   4.042   7.346  0.3528 -2.1583  0.0727
18621THY    CA146291   4.477   4.042   7.370 -0.2286  0.5283 -0.3677
18621THY    CA246292   4.597   3.981   7.325  0.7216  0.4126  0.3578
18621THY    CP146293   4.597   3.828   7.298 -0.4752  0.0215 -0.5624
18621THY    HP146294   4.497   3.800   7.262 -1.3445  1.4360  0.5863
18621THY    CP246295   4.632   3.757   7.432 -0.5032 -0.7286 -0.0533
18621THY    HP246296   4.727   3.798   7.470 -0.3499 -0.4682 -0.6444
18621THY    HP346297   4.640   3.649   7.415 -1.2287 -0.7416 -0.1054
18621THY    HP446298   4.556   3.771   7.509 -0.8846 -1.3386  1.3922
18621THY    CP346299   4.698   3.792   7.189 -0.6125  0.2127 -0.1281
18621THY    HP546300   4.804   3.775   7.209  0.2811 -2.7813  1.2463
18621THY    HP646301   4.675   3.853   7.101 -0.9343  1.3453  1.4405
18621THY    HP746302   4.675   3.692   7.150 -3.0951  2.1536 -0.4303
18621THY    CA346303   4.709   4.059   7.306  0.3688 -0.7994  0.7746
18621THY    HA346304   4.801   4.007   7.282  0.4233 -1.8255  1.3126
18621THY    CA446305   4.707   4.197   7.339  0.6809 -0.2951  0.4969
18621THY    HA446306   4.800   4.253   7.331  1.5018 -1.4122 -0.9414
18621THY    CA546307   4.583   4.258   7.379 -1.0144 -0.2856  0.8428
18621THY    CM146308   4.575   4.393   7.433  0.7311  0.3185 -0.2968
18621THY    HM146309   4.632   4.467   7.376  0.5525 -0.9816 -1.1315
18621THY    HM246310   4.607   4.395   7.538 -1.0331  0.9192 -1.5270
18621THY    HM346311   4.472   4.432   7.432  0.2611  0.0360 -1.4880
18621THY    CA646312   4.470   4.179   7.389  0.0326 -0.5219 -0.0293
18621THY    HA646313   4.378   4.214   7.435  0.1239 -0.6438  0.3805
18622THY      O46314   6.647   5.367   6.675 -0.1724 -0.1489 -0.5328
18622THY     HO46315   6.602   5.316   6.744 -1.0261 -0.7445 -0.5916
18622THY    CA146316   6.770   5.320   6.658 -0.0139  1.0544 -0.1497
18622THY    CA246317   6.870   5.377   6.581  0.5721  0.3586 -0.7557
18622THY    CP146318   6.856   5.512   6.503  0.0450  0.3665 -0.6080
18622THY    HP146319   6.764   5.559   6.540 -0.9337 -2.0645 -0.4443
18622THY    CP246320   6.854   5.500   6.340 -0.7499  0.0244 -0.6804
18622THY    HP246321   6.959   5.493   6.309 -0.5186 -0.1713  2.2386
18622THY    HP346322   6.808   5.590   6.297 -0.0582  1.5778  0.4635
18622THY    HP446323   6.796   5.411   6.314 -1.8835 -0.4208  0.1507
18622THY    CP346324   6.962   5.613   6.553 -0.2920  0.3339  0.3970
18622THY    HP546325   6.969   5.632   6.661  1.8801  0.1982  0.6806
18622THY    HP646326   6.946   5.713   6.510  1.3962 -0.4448  0.3627
18622THY    HP746327   7.062   5.576   6.527 -0.4031  0.5700 -0.0692
18622THY    CA346328   7.002   5.317   6.576  0.2120  0.0774 -0.8270
18622THY    HA346329   7.077   5.345   6.504  0.9917  1.5176  0.9990
18622THY    CA446330   7.037   5.210   6.663  0.0004  0.3756 -0.7276
18622THY    HA446331   7.135   5.164   6.667  0.7063 -0.0804  0.7055
18622THY    CA546332   6.932   5.166   6.751 -0.5973  0.8775  0.0088
18622THY    CM146333   6.958   5.054   6.862 -0.1829 -0.5187 -0.3540
18622THY    HM146334   7.056   5.008   6.847  1.5614 -0.6762  3.0309
18622THY    HM246335   6.881   4.977   6.859 -1.2963 -0.9447  0.7303
18622THY    HM346336   6.951   5.097   6.962  1.8831 -0.6173  0.3070
18622THY    CA646337   6.805   5.215   6.740  0.6165  0.8859 -0.9033
18622THY    HA646338   6.725   5.173   6.800 -2.8784 -2.2041  0.7109
18623THY      O46339   3.744   5.540   6.837 -0.2572  0.5889  0.4268
18623THY     HO46340   3.681   5.558   6.765 -0.4303  0.8673  0.9647
18623THY    CA146341   3.693   5.439   6.917 -0.6128 -0.0799  0.6157
18623THY    CA246342   3.769   5.360   7.011  0.1968 -0.4193  0.4837
18623THY    CP146343   3.909   5.400   7.057  0.1061 -0.5445 -0.2641
18623THY    HP146344   3.940   5.479   6.988 -2.2370  0.0550  1.2865
18623THY    CP246345   4.016   5.287   7.057 -0.1027  0.1503 -0.3038
18623THY    HP246346   3.995   5.209   7.131 -2.2459  1.5745  1.5021
18623THY    HP346347   4.111   5.331   7.088  0.5897  0.9230 -2.2375
18623THY    HP446348   4.031   5.238   6.960 -0.5952  0.2746 -0.7085
18623THY    CP346349   3.916   5.465   7.193 -0.0362 -0.1548  0.2095
18623THY    HP546350   4.015   5.506   7.215  0.9237 -0.6816 -1.7366
18623THY    HP646351   3.896   5.392   7.272 -0.3014 -1.3673 -1.0772
18623THY    HP746352   3.845   5.549   7.200  0.3260 -0.7128  0.5673
18623THY    CA346353   3.703   5.252   7.072  0.3860 -0.1016 -0.5163
18623THY    HA346354   3.761   5.184   7.134  0.9669 -1.5596 -1.4122
18623THY    CA446355   3.573   5.219   7.032 -0.5116 -0.9120  0.3787
18623THY    HA446356   3.521   5.133   7.073 -0.5343  1.2675  1.3519
18623THY    CA546357   3.507   5.290   6.937  1.1503  0.1087 -0.8353
18623THY    CM146358   3.374   5.234   6.891 -0.3636  0.2481  0.1402
18623THY    HM146359   3.330   5.266   6.796 -1.1592  0.8213  0.7966
18623THY    HM246360   3.306   5.252   6.975  1.4137  1.6518  0.6187
18623THY    HM346361   3.384   5.126   6.871 -0.4145  1.1445 -0.0412
18623THY    CA646362   3.566   5.395   6.875 -0.8042  0.0403  0.4125
18623THY    HA646363   3.495   5.445   6.809 -0.1402 -1.3337 -0.4031
18624THY      O46364   6.324   4.261   3.101 -0.2783 -0.5638  0.2002
18624THY     HO46365   6.322   4.310   3.017  1.7046  0.0831  1.5270
18624THY    CA146366   6.383   4.141   3.086  0.5886  0.4818  0.2807
18624THY    CA246367   6.373   4.032   3.178 -0.3162 -0.2525 -0.2020
18624THY    CP146368   6.296   4.058   3.304  0.0455  0.2170  0.4560
18624THY    HP146369   6.259   4.160   3.316  0.0617 -2.9372  0.9342
18624THY    CP246370   6.390   4.030   3.426 -0.3151  0.8482  0.5417
18624THY    HP246371   6.463   4.111   3.429 -1.6167  0.5435  1.7733
18624THY    HP346372   6.442   3.933   3.421 -1.0602 -1.0792  0.1896
18624THY    HP446373   6.334   4.042   3.519 -3.3243 -0.4974 -1.5434
18624THY    CP346374   6.175   3.958   3.310  0.3176  0.2593  0.0926
18624THY    HP546375   6.216   3.856   3.308  1.8597  0.9851  0.6811
18624THY    HP646376   6.104   3.954   3.226  2.2544 -1.4775  0.5104
18624THY    HP746377   6.131   3.981   3.407  1.6970  0.5974  1.4850
18624THY    CA346378   6.426   3.906   3.151 -0.4859  0.2559  0.1737
18624THY    HA346379   6.414   3.818   3.214  1.3151 -0.4759 -0.6497
18624THY    CA446380   6.496   3.887   3.035 -0.2497 -0.5512  0.2501
18624THY    HA446381   6.532   3.787   3.012 -3.0446 -0.3317 -0.9107
18624THY    CA546382   6.521   3.998   2.948  0.5602 -0.4355 -0.8993
18624THY    CM146383   6.617   3.979   2.840 -0.4702 -0.3328  0.5095
18624THY    HM146384   6.709   4.031   2.868 -0.1798  1.0565 -0.6811
18624THY    HM246385   6.584   4.016   2.742  1.2577 -1.0425  0.2648
18624THY    HM346386   6.642   3.873   2.831  0.0664  1.1326  0.4867
18624THY    CA646387   6.459   4.126   2.971  1.0131  0.3526 -0.1589
18624THY    HA646388   6.481   4.220   2.922  1.3494 -1.4262 -1.1269
18625THY      O46389   2.928   6.517   4.113 -0.7066 -0.1289 -0.1887
18625THY     HO46390   3.009   6.528   4.060 -0.5837  0.2041  0.6712
18625THY    CA146391   2.941   6.620   4.204  0.0280  0.5875  0.2064
18625THY    CA246392   2.904   6.605   4.345 -0.3082  0.9502 -0.1246
18625THY    CP146393   2.837   6.484   4.404 -0.1009  0.2247  0.2037
18625THY    HP146394   2.815   6.412   4.325 -0.2009 -1.0716  1.6085
18625THY    CP246395   2.697   6.529   4.460 -0.2552  0.9450 -0.4804
18625THY    HP246396   2.631   6.575   4.385  0.9730  1.0267  1.5273
18625THY    HP346397   2.704   6.598   4.545 -1.0457  1.6808 -1.2809
18625THY    HP446398   2.648   6.436   4.492  2.2897 -0.7791 -2.5485
18625THY    CP346399   2.913   6.418   4.513 -0.4048 -0.4323  0.3475
18625THY    HP546400   2.908   6.486   4.599  4.2012  1.2732 -1.0931
18625THY    HP646401   3.013   6.398   4.472 -0.2527  0.4375 -0.7352
18625THY    HP746402   2.875   6.319   4.537  1.6717  1.0295 -0.1585
18625THY    CA346403   2.923   6.722   4.424 -0.0106  0.1261 -0.1242
18625THY    HA346404   2.897   6.724   4.530  2.1143  0.7976 -2.5220
18625THY    CA446405   2.995   6.831   4.375 -0.3318  0.4391 -0.7051
18625THY    HA446406   3.017   6.918   4.437  0.8622  1.0287 -1.3960
18625THY    CA546407   3.040   6.839   4.238 -0.3347 -0.3171  0.7770
18625THY    CM146408   3.117   6.952   4.186 -0.1291  0.3100 -0.4799
18625THY    HM146409   3.060   7.006   4.108 -0.2388  0.8848  0.2475
18625THY    HM246410   3.220   6.927   4.158  0.4586  1.4728  0.5520
18625THY    HM346411   3.128   7.024   4.268  1.4833  0.1950 -0.5686
18625THY    CA646412   3.013   6.733   4.153  0.0567 -0.5864 -0.1976
18625THY    HA646413   3.045   6.742   4.050  0.6802 -0.2973  1.2367
18626THY      O46414   7.081   7.529   5.699  0.0015 -0.0637 -0.1027
18626THY     HO46415   6.989   7.557   5.683  0.0674  1.6764  1.3214
18626THY    CA146416   7.150   7.545   5.582 -0.3104  0.5198  0.5829
18626THY    CA246417   7.294   7.561   5.581 -0.0620  0.5076  0.0059
18626THY    CP146418   7.369   7.553   5.716  0.4356  0.6251 -0.0176
18626THY    HP146419   7.314   7.489   5.785  0.9558  0.4077 -0.7182
18626THY    CP246420   7.375   7.697   5.766 -0.4718  0.8034 -0.7160
18626THY    HP246421   7.397   7.700   5.874  0.2659  0.6272  1.4803
18626THY    HP346422   7.279   7.747   5.750  0.7199 -1.3866  1.0323
18626THY    HP446423   7.445   7.759   5.710 -2.2412 -0.8171 -0.0728
18626THY    CP346424   7.510   7.492   5.722  0.0750  0.4778 -0.9050
18626THY    HP546425   7.563   7.535   5.637 -1.9785  0.5355  2.0536
18626THY    HP646426   7.507   7.384   5.703 -1.7417 -0.1808 -0.7722
18626THY    HP746427   7.556   7.526   5.816 -1.9463  1.8242 -1.6956
18626THY    CA346428   7.359   7.602   5.458 -0.0602  0.1705 -0.3995
18626THY    HA346429   7.467   7.607   5.453  0.1032  1.9754 -1.3173
18626THY    CA446430   7.290   7.613   5.339  0.0045 -0.7359  0.0876
18626THY    HA446431   7.347   7.640   5.251  4.5119  1.6928 -0.5499
18626THY    CA546432   7.154   7.581   5.344  0.5373  0.2392 -0.5772
18626THY    CM146433   7.076   7.601   5.215  0.4045 -0.1932  1.2781
18626THY    HM146434   7.137   7.655   5.142  0.8376 -0.2289  0.7448
18626THY    HM246435   6.978   7.648   5.231  0.1710 -0.1783  0.7851
18626THY    HM346436   7.062   7.503   5.169  0.3211  0.6674  0.8706
18626THY    CA646437   7.087   7.557   5.462 -0.0183  0.2069 -0.2085
18626THY    HA646438   6.979   7.564   5.451  0.2634 -2.8852  0.7478
18627THY      O46439   0.455   0.687   4.853  0.5324  0.1553  0.2875
18627THY     HO46440   0.490   0.769   4.813 -0.3505 -0.9288  0.1548
18627THY    CA146441   0.364   0.710   4.954  0.0486  0.8591  0.9653
18627THY    CA246442   0.288   0.610   5.007  0.5082 -0.1904 -0.3153
18627THY    CP146443   0.291   0.469   4.945 -0.4866  0.1793 -0.0076
18627THY    HP146444   0.320   0.478   4.840 -1.1077  0.1673  2.5116
18627THY    CP246445   0.147   0.400   4.949 -0.3335 -0.1460  1.0167
18627THY    HP246446   0.167   0.296   4.922 -1.0260  3.1498 -0.0737
18627THY    HP346447   0.059   0.441   4.897 -1.2041  0.3500 -0.1894
18627THY    HP446448   0.123   0.396   5.056 -0.5895 -0.2442 -1.1319
18627THY    CP346449   0.377   0.377   5.034 -1.2635  0.3850  0.1369
18627THY    HP546450   0.384   0.279   4.986 -1.6456  0.6925 -0.0407
18627THY    HP646451   0.337   0.355   5.133 -0.0680  0.4989 -1.6984
18627THY    HP746452   0.478   0.420   5.043 -0.8937  1.5024 -0.9141
18627THY    CA346453   0.222   0.629   5.133 -1.1140  0.3747  0.4601
18627THY    HA346454   0.164   0.551   5.181 -1.6999 -2.7545 -1.1623
18627THY    CA446455   0.224   0.762   5.189  0.0470  0.3888  0.6543
18627THY    HA446456   0.179   0.784   5.286 -0.2591  0.5729 -0.6849
18627THY    CA546457   0.301   0.860   5.127 -0.9736  0.1546 -0.1851
18627THY    CM146458   0.324   0.997   5.186 -0.1445  0.0049  0.2547
18627THY    HM146459   0.232   1.057   5.188  0.9436  1.4084  1.9793
18627THY    HM246460   0.407   1.054   5.143 -0.0935 -0.8700 -0.4563
18627THY    HM346461   0.345   0.989   5.294  0.2329  0.0649  1.6994
18627THY    CA646462   0.364   0.837   5.007 -0.1473 -0.8393 -0.0662
18627THY    HA646463   0.436   0.907   4.965 -0.5571 -0.1842  0.7587
18628THY      O46464   1.746   6.429   2.215  0.2605  0.1321  0.3973
18628THY     HO46465   1.723   6.511   2.262  0.5769 -0.8156  1.0479
18628THY    CA146466   1.814   6.480   2.115 -0.8017 -0.2261  0.4575
18628THY    CA246467   1.801   6.430   1.979 -0.5312  0.1428  0.0288
18628THY    CP146468   1.704   6.312   1.949 -0.3028  0.1989 -0.1089
18628THY    HP146469   1.640   6.292   2.036 -0.8098 -0.1689 -0.1021
18628THY    CP246470   1.761   6.179   1.908  0.1436  0.3096  0.2484
18628THY    HP246471   1.819   6.192   1.816 -0.2637 -0.2564 -1.6583
18628THY    HP346472   1.684   6.106   1.882 -2.0932  0.3901  2.4176
18628THY    HP446473   1.827   6.145   1.989  0.0512  0.5136  0.5410
18628THY    CP346474   1.603   6.361   1.847 -0.8676 -0.3738  0.1241
18628THY    HP546475   1.508   6.306   1.856 -0.2782  0.5350 -0.7938
18628THY    HP646476   1.634   6.348   1.743 -1.9432 -0.9701  2.0063
18628THY    HP746477   1.580   6.467   1.859  1.1530  0.2780  0.5231
18628THY    CA346478   1.873   6.495   1.869  0.3626 -0.7800  0.4236
18628THY    HA346479   1.865   6.473   1.763 -0.4786 -0.6948  0.2989
18628THY    CA446480   1.945   6.612   1.908  0.2737  0.0228 -0.5919
18628THY    HA446481   2.000   6.659   1.828  1.2890  0.9488 -0.1733
18628THY    CA546482   1.964   6.650   2.039 -0.0668 -0.5914 -0.2836
18628THY    CM146483   2.043   6.767   2.069  0.0243 -0.0272  0.3904
18628THY    HM146484   2.019   6.852   2.003  2.8164 -0.5199  0.8711
18628THY    HM246485   2.150   6.750   2.053  0.1549  1.3889 -0.2753
18628THY    HM346486   2.031   6.804   2.171  4.8066  0.3333  1.5164
18628THY    CA646487   1.900   6.582   2.141  0.6407  0.6896  0.3681
18628THY    HA646488   1.911   6.622   2.241 -2.2320  0.6806  1.3809
18629THY      O46489   1.537   7.879   7.620 -0.3727  0.4677  0.3166
18629THY     HO46490   1.627   7.846   7.636  0.0927  2.1132  2.1974
18629THY    CA146491   1.501   7.958   7.726  0.0506 -0.7122  0.5823
18629THY    CA246492   1.386   8.042   7.723  0.2337 -0.2156  0.3907
18629THY    CP146493   1.294   8.021   7.598  0.1147  0.3044  0.2415
18629THY    HP146494   1.356   7.986   7.515 -2.2236 -0.6191 -2.0413
18629THY    CP246495   1.224   8.153   7.548 -0.0774  0.3054 -0.0928
18629THY    HP246496   1.152   8.133   7.469 -2.0730  2.3835 -1.6430
18629THY    HP346497   1.300   8.219   7.503 -2.8221 -1.6528  1.9852
18629THY    HP446498   1.174   8.201   7.633  1.6944  0.2228  2.0709
18629THY    CP346499   1.187   7.919   7.636  0.0449 -0.2554 -0.3401
18629THY    HP546500   1.124   7.883   7.553 -2.3999 -0.5300  3.8936
18629THY    HP646501   1.124   7.974   7.707 -1.3964 -2.8371  1.6236
18629THY    HP746502   1.244   7.841   7.688 -0.7747 -0.3130 -0.9898
18629THY    CA346503   1.355   8.133   7.829  1.0571  0.0369 -0.3559
18629THY    HA346504   1.265   8.194   7.827  0.9515 -0.0119 -0.5120
18629THY    CA446505   1.442   8.144   7.931 -0.2438 -0.9840  0.2072
18629THY    HA446506   1.428   8.224   8.004  1.7097 -0.0825 -0.2170
18629THY    CA546507   1.568   8.076   7.930  0.0898  0.5462 -0.8770
18629THY    CM146508   1.682   8.102   8.028  0.6834 -0.0396  0.4756
18629THY    HM146509   1.673   8.010   8.088 -2.1535 -1.7075 -0.4658
18629THY    HM246510   1.663   8.190   8.090  0.8652  0.5875  0.0787
18629THY    HM346511   1.775   8.120   7.973  1.6490  1.8165  1.4048
18629THY    CA646512   1.593   7.979   7.830  0.0509  0.5919  0.3414
18629THY    HA646513   1.694   7.937   7.833  0.4350  0.8698  1.2599
18630THY      O46514   6.924   6.815   6.889  0.4497  0.5422  0.0735
18630THY     HO46515   7.010   6.859   6.878 -0.7764 -1.0918  2.2547
18630THY    CA146516   6.862   6.868   6.998 -0.0286  0.1131  0.1036
18630THY    CA246517   6.720   6.879   7.009 -0.9621  0.0760  0.0171
18630THY    CP146518   6.634   6.818   6.896 -0.1915  0.1131 -0.1436
18630THY    HP146519   6.682   6.738   6.839 -1.3771 -0.6886 -0.3070
18630THY    CP246520   6.580   6.929   6.801 -0.8135 -0.2450  1.0110
18630THY    HP246521   6.660   6.940   6.727  0.5828  0.6841 -1.8747
18630THY    HP346522   6.573   7.020   6.861  1.2668 -0.4683  1.3707
18630THY    HP446523   6.487   6.908   6.748 -1.0861  0.7685 -0.4999
18630THY    CP346524   6.510   6.737   6.952 -0.1531 -0.6538 -0.3201
18630THY    HP546525   6.466   6.674   6.874  0.5821 -0.7012 -0.7948
18630THY    HP646526   6.437   6.811   6.985  0.3875 -0.1870  0.0172
18630THY    HP746527   6.544   6.676   7.037  0.6526 -0.9980 -0.3707
18630THY    CA346528   6.666   6.927   7.133  0.2286  0.0843 -0.5026
18630THY    HA346529   6.558   6.933   7.146  0.4061  1.0680  0.9403
18630THY    CA446530   6.751   6.969   7.238 -0.3006  0.5494 -0.6849
18630THY    HA446531   6.714   7.012   7.330  1.7910  0.5605  1.3390
18630THY    CA546532   6.889   6.954   7.223 -0.7431  0.2449 -0.5737
18630THY    CM146533   6.980   6.989   7.334 -0.3365 -0.4709  0.2316
18630THY    HM146534   6.965   7.090   7.374  0.4157  1.8955 -0.5512
18630THY    HM246535   7.087   6.971   7.321  0.1728  1.3531  1.6580
18630THY    HM346536   6.966   6.913   7.411  3.3637  0.4535  0.3475
18630THY    CA646537   6.942   6.902   7.110  0.5111  0.4595  0.0242
18630THY    HA646538   7.050   6.889   7.110  0.7813 -1.5665  1.6952
18631THY      O46539   0.269   2.958   2.925 -0.1398  0.5219 -0.2379
18631THY     HO46540   0.297   3.026   2.988  1.0667 -0.8386  0.5788
18631THY    CA146541   0.348   2.847   2.957 -0.3873 -0.4899  0.0959
18631THY    CA246542   0.326   2.718   2.892  0.0821 -0.1494 -1.4503
18631THY    CP146543   0.222   2.700   2.780  0.7347  0.2899 -0.7050
18631THY    HP146544   0.176   2.798   2.762  2.5260 -0.4630  0.0342
18631THY    CP246545   0.107   2.606   2.811 -0.1891  0.2278  1.0081
18631THY    HP246546   0.037   2.632   2.892 -0.5118  0.5093 -0.6006
18631THY    HP346547   0.138   2.502   2.827  0.5574 -1.7863  0.8853
18631THY    HP446548   0.029   2.611   2.735 -1.8279  1.6936 -0.6167
18631THY    CP346549   0.277   2.692   2.637  0.2702 -0.1340  0.2382
18631THY    HP546550   0.212   2.704   2.550 -1.8380  1.1889 -0.8893
18631THY    HP646551   0.321   2.592   2.623  0.0385 -1.2966  0.2822
18631THY    HP746552   0.363   2.758   2.625  0.6418  0.9182 -0.0281
18631THY    CA346553   0.412   2.615   2.921  0.6115 -0.6755  0.2657
18631THY    HA346554   0.407   2.515   2.879  0.3916 -1.5884  0.6450
18631THY    CA446555   0.521   2.638   3.008  0.1151  0.1473 -0.1739
18631THY    HA446556   0.599   2.564   3.006 -0.0229 -0.5933 -0.2984
18631THY    CA546557   0.532   2.763   3.071 -0.5135 -0.9579 -0.0820
18631THY    CM146558   0.648   2.777   3.168  0.3278  0.7929  0.3190
18631THY    HM146559   0.604   2.788   3.268 -0.1355  0.7905 -1.2083
18631THY    HM246560   0.703   2.869   3.149 -2.2116 -0.4600  1.6666
18631THY    HM346561   0.713   2.688   3.170  0.9611 -2.3385  0.6244
18631THY    CA646562   0.451   2.868   3.048  0.2359 -0.3541 -0.0468
18631THY    HA646563   0.465   2.955   3.111  2.7923 -1.6225  0.5543
18632THY      O46564   7.901   2.018   2.928 -0.4585 -0.1575 -0.2061
18632THY     HO46565   7.841   2.094   2.910 -0.8527  2.4600  0.2054
18632THY    CA146566   8.030   2.057   2.906  0.0639  0.2395 -0.6634
18632THY    CA246567   8.129   1.959   2.869  0.8596 -0.4716 -0.2293
18632THY    CP146568   8.089   1.803   2.863  0.3112 -0.2624 -0.6386
18632THY    HP146569   7.994   1.783   2.915 -0.6575 -1.1566  1.2964
18632THY    CP246570   8.191   1.732   2.939  0.4000  0.2001  0.4953
18632THY    HP246571   8.172   1.624   2.928 -4.5882 -2.4472  1.3574
18632THY    HP346572   8.181   1.759   3.045  0.5747  0.5622 -0.7789
18632THY    HP446573   8.293   1.751   2.903  0.6420  1.0786  0.9598
18632THY    CP346574   8.067   1.752   2.721  0.5560  0.4289 -0.2747
18632THY    HP546575   8.051   1.643   2.722  1.1696  0.6545 -0.3645
18632THY    HP646576   8.155   1.758   2.656  0.3849  0.2178 -0.0744
18632THY    HP746577   7.978   1.801   2.682 -0.5647  0.1053 -2.4341
18632THY    CA346578   8.257   2.003   2.832 -0.5803 -0.0081 -0.2287
18632THY    HA346579   8.329   1.932   2.794  0.3724  0.1820  0.6172
18632THY    CA446580   8.290   2.139   2.831  0.1039 -0.2060  0.0347
18632THY    HA446581   8.387   2.171   2.794 -0.1590 -1.3425 -0.4467
18632THY    CA546582   8.196   2.229   2.867  0.0302  0.0684 -0.2606
18632THY    CM146583   8.224   2.377   2.866 -0.6620  0.6936 -0.2184
18632THY    HM146584   8.329   2.407   2.864 -0.7612 -1.7958  0.1486
18632THY    HM246585   8.180   2.420   2.957 -1.6559  0.6295 -1.0538
18632THY    HM346586   8.171   2.424   2.783  0.2996 -0.5946 -1.3436
18632THY    CA646587   8.066   2.190   2.898  0.3826 -0.0199  0.2964
18632THY    HA646588   7.986   2.262   2.918  0.5379  0.8739  0.2329
18633THY      O46589   1.981   2.961   2.642 -1.2639 -0.3805  0.5336
18633THY     HO46590   1.996   2.980   2.736  1.8126 -0.0212 -2.5420
18633THY    CA146591   2.105   2.988   2.584 -0.5696  0.2000 -0.0560
18633THY    CA246592   2.135   2.979   2.453  0.5205  0.0904 -0.2165
18633THY    CP146593   2.031   2.933   2.352  0.1862 -0.2535  0.0515
18633THY    HP146594   1.941   2.891   2.400 -0.2912 -3.2760 -2.8085
18633THY    CP246595   2.076   2.818   2.268  0.1775  0.2330 -0.3289
18633THY    HP246596   2.094   2.724   2.321 -2.0862 -0.4911 -1.2291
18633THY    HP346597   2.171   2.843   2.219  0.3645  1.4318  1.5205
18633THY    HP446598   1.999   2.781   2.199 -0.9291  1.3270 -0.1224
18633THY    CP346599   1.990   3.053   2.264 -0.4654 -0.3792  0.4193
18633THY    HP546600   2.081   3.102   2.229 -0.7436 -0.3627  0.9557
18633THY    HP646601   1.935   3.125   2.325 -1.8236  0.0158 -0.8965
18633THY    HP746602   1.924   3.035   2.178  1.6321 -2.0549  0.3891
18633THY    CA346603   2.262   3.023   2.408 -0.5042 -0.5966 -0.3283
18633THY    HA346604   2.295   3.013   2.305  1.4599 -0.2148  1.3754
18633THY    CA446605   2.355   3.063   2.502 -0.2393 -0.3969  0.0024
18633THY    HA446606   2.456   3.083   2.469 -0.2275  0.4497  1.4989
18633THY    CA546607   2.329   3.075   2.639 -0.5467  0.4438  0.0837
18633THY    CM146608   2.434   3.109   2.730 -0.3843 -0.2302  0.1609
18633THY    HM146609   2.504   3.182   2.689  0.3804  0.6840 -0.0263
18633THY    HM246610   2.484   3.011   2.739  0.1116 -2.7816  0.1090
18633THY    HM346611   2.403   3.146   2.828  1.5584  0.2073  0.7795
18633THY    CA646612   2.199   3.039   2.679 -0.0627 -0.7969  0.6094
18633THY    HA646613   2.167   3.044   2.783 -1.9645 -1.3334  0.6304
18634THY      O46614   4.425   1.075   3.809 -0.0459 -0.1580 -0.2665
18634THY     HO46615   4.421   1.051   3.903 -0.3235  0.7231  2.7354
18634THY    CA146616   4.549   1.125   3.798 -0.0301  0.0695  0.3824
18634THY    CA246617   4.627   1.089   3.689  0.1776  0.4061 -0.3449
18634THY    CP146618   4.575   0.995   3.580 -0.6383  0.3222 -0.4998
18634THY    HP146619   4.466   0.993   3.586 -0.8421 -1.3148  1.5186
18634THY    CP246620   4.633   0.851   3.587 -0.3122 -0.0045  0.1548
18634THY    HP246621   4.742   0.864   3.588 -0.0759 -3.7838 -0.3972
18634THY    HP346622   4.604   0.780   3.508 -1.8763 -0.9135  1.7320
18634THY    HP446623   4.602   0.811   3.684  2.3814  1.9829  2.5046
18634THY    CP346624   4.599   1.047   3.436  0.3933  0.0860 -0.1569
18634THY    HP546625   4.561   1.148   3.414  0.2793 -3.1126 -0.7790
18634THY    HP646626   4.560   0.985   3.355 -3.1830  0.3079  1.5398
18634THY    HP746627   4.707   1.040   3.418  0.1745 -2.4149  1.3940
18634THY    CA346628   4.755   1.139   3.679  0.8623 -0.1322  1.0320
18634THY    HA346629   4.815   1.109   3.594 -0.3524 -0.5010 -0.4783
18634THY    CA446630   4.803   1.225   3.781  0.4117  0.3220  0.2438
18634THY    HA446631   4.902   1.268   3.768 -0.4013 -2.9699  1.4785
18634THY    CA546632   4.722   1.261   3.889  0.4664 -0.4171  0.4317
18634THY    CM146633   4.761   1.361   4.001 -0.1403  0.2091 -0.4095
18634THY    HM146634   4.868   1.373   4.020 -0.1612  0.4621 -0.6268
18634THY    HM246635   4.708   1.342   4.095 -1.7673 -0.8596 -1.5032
18634THY    HM346636   4.715   1.457   3.971 -3.4240  2.7882 -0.9848
18634THY    CA646637   4.597   1.204   3.902  0.5600 -0.2327 -0.3300
18634THY    HA646638   4.527   1.239   3.977  0.8021  0.9490 -2.2422
18635THY      O46639   1.138   7.890   5.073  0.2983  1.2725  0.0083
18635THY     HO46640   1.047   7.865   5.093  0.6793  2.8161 -0.2777
18635THY    CA146641   1.154   8.022   5.089  0.4312 -0.5310 -0.3271
18635THY    CA246642   1.279   8.074   5.079  0.0993 -0.0729 -0.0620
18635THY    CP146643   1.404   7.988   5.047 -0.5935  0.7733  0.5087
18635THY    HP146644   1.399   7.891   5.097 -0.0607  1.8635  1.0216
18635THY    CP246645   1.526   8.047   5.115 -0.6924 -0.1587 -0.0638
18635THY    HP246646   1.609   7.977   5.103  1.4476  3.4314  1.5639
18635THY    HP346647   1.510   8.070   5.221 -1.2813 -0.5576  1.4887
18635THY    HP446648   1.551   8.145   5.072 -1.8784  1.4793  1.0186
18635THY    CP346649   1.423   7.967   4.898 -0.5076 -0.3800  0.5070
18635THY    HP546650   1.500   7.891   4.887 -0.5736 -0.0171  0.3829
18635THY    HP646651   1.469   8.049   4.842 -0.6298 -1.3942 -0.1028
18635THY    HP746652   1.322   7.941   4.863 -0.3884  0.0910 -0.6553
18635THY    CA346653   1.285   8.216   5.101 -0.6590 -0.2444  0.2500
18635THY    HA346654   1.381   8.267   5.093  0.1829  2.2689 -0.8040
18635THY    CA446655   1.165   8.290   5.137 -0.1674 -0.2605  0.0532
18635THY    HA446656   1.183   8.396   5.153  2.1068  2.1270 -0.5919
18635THY    CA546657   1.041   8.233   5.149 -0.1374  0.0298  0.1941
18635THY    CM146658   0.913   8.308   5.184  0.1373 -0.4794  0.5443
18635THY    HM146659   0.917   8.341   5.288  0.8261 -0.4096  0.2650
18635THY    HM246660   0.821   8.249   5.177  1.1487  0.6632 -1.3086
18635THY    HM346661   0.903   8.391   5.114  1.1665 -0.7588  0.4484
18635THY    CA646662   1.045   8.091   5.129  0.2713 -0.5901 -0.2575
18635THY    HA646663   0.949   8.041   5.134  0.4863  1.2377 -0.5690
18636THY      O46664   2.168   4.365   7.889 -0.1552 -0.7657  0.5523
18636THY     HO46665   2.237   4.434   7.884  0.8668  1.0306 -0.2739
18636THY    CA146666   2.109   4.348   7.773 -0.6196  1.3681  0.6132
18636THY    CA246667   2.014   4.244   7.745  0.1846  0.1439  0.1273
18636THY    CP146668   1.959   4.148   7.857  0.1604  0.1020 -0.3779
18636THY    HP146669   2.019   4.160   7.948  1.4745 -0.3535 -2.7926
18636THY    CP246670   1.973   4.002   7.813  0.5589 -0.2007 -0.5486
18636THY    HP246671   1.965   3.941   7.903 -2.3473 -1.4348 -2.2028
18636THY    HP346672   2.064   3.988   7.754 -0.1159 -1.5254  0.3995
18636THY    HP446673   1.892   3.964   7.748 -0.1227  0.8757 -0.9855
18636THY    CP346674   1.809   4.176   7.889 -0.3724 -0.1160 -0.2389
18636THY    HP546675   1.791   4.278   7.926 -0.0518  2.1718 -0.9410
18636THY    HP646676   1.776   4.105   7.967  2.0983 -0.1760 -1.5775
18636THY    HP746677   1.748   4.155   7.800 -1.6774  1.2862 -2.9516
18636THY    CA346678   1.981   4.225   7.608  0.4208 -0.1177  0.0526
18636THY    HA346679   1.924   4.141   7.569  1.2008 -2.7450  0.6463
18636THY    CA446680   2.025   4.313   7.514  0.4116  0.5189 -0.0025
18636THY    HA446681   1.979   4.310   7.416 -0.8557  1.0297  1.3781
18636THY    CA546682   2.115   4.419   7.544 -0.0176  0.6156  0.0027
18636THY    CM146683   2.167   4.519   7.444  0.6344  0.1620  0.8849
18636THY    HM146684   2.259   4.565   7.481  0.1152  1.6738  0.7810
18636THY    HM246685   2.099   4.601   7.416  0.0293 -0.8734  0.0473
18636THY    HM346686   2.196   4.461   7.356  1.0980  1.5345 -1.0515
18636THY    CA646687   2.161   4.427   7.675 -0.3002 -0.1016  0.1830
18636THY    HA646688   2.229   4.510   7.695 -0.7898 -1.6138  0.9884
18637THY      O46689   8.161   0.540   5.095  0.5799  0.1525  0.1004
18637THY     HO46690   8.074   0.580   5.077  0.1686  2.8322  0.6122
18637THY    CA146691   8.240   0.649   5.125  0.3856 -0.2953  0.0458
18637THY    CA246692   8.364   0.642   5.182  0.1979  0.6961 -0.4659
18637THY    CP146693   8.427   0.512   5.223  0.0029 -0.2533  0.4866
18637THY    HP146694   8.354   0.444   5.269 -0.1202 -1.6564 -0.3635
18637THY    CP246695   8.544   0.522   5.323 -0.2641 -0.2175  0.4205
18637THY    HP246696   8.636   0.566   5.283 -0.5203  0.2483  1.3995
18637THY    HP346697   8.567   0.427   5.373 -0.2345 -0.4464  0.3078
18637THY    HP446698   8.504   0.581   5.407 -1.4488 -0.8473  0.5429
18637THY    CP346699   8.489   0.446   5.093  0.4974  0.0127 -1.0433
18637THY    HP546700   8.570   0.508   5.052 -1.2384 -0.9029  0.7280
18637THY    HP646701   8.404   0.432   5.026 -0.2824  0.6650  0.3071
18637THY    HP746702   8.534   0.349   5.117 -0.4187 -0.8504 -1.6964
18637THY    CA346703   8.440   0.765   5.194 -0.1655  0.6613 -0.3491
18637THY    HA346704   8.540   0.763   5.235  0.6106 -1.1715 -0.9533
18637THY    CA446705   8.381   0.888   5.152  0.1109  0.2761  0.7524
18637THY    HA446706   8.420   0.986   5.177 -0.4684  0.0689  1.0437
18637THY    CA546707   8.252   0.885   5.102 -0.9814  0.1274  0.1816
18637THY    CM146708   8.184   1.015   5.064 -0.2336 -0.2280 -0.2237
18637THY    HM146709   8.261   1.088   5.036 -1.8388 -0.0515  1.6207
18637THY    HM246710   8.132   1.059   5.150  0.3707  0.4778 -0.8685
18637THY    HM346711   8.113   1.016   4.981 -0.9607  0.2729  3.5335
18637THY    CA646712   8.181   0.768   5.092 -0.5283  0.1303 -0.2365
18637THY    HA646713   8.083   0.766   5.047 -0.6043  0.3068 -0.4620
18638THY      O46714   6.359   7.407   7.816  0.5563 -0.2542 -0.2607
18638THY     HO46715   6.427   7.475   7.803  1.3742 -1.8441 -1.3200
18638THY    CA146716   6.303   7.384   7.693  0.4711 -0.1785 -0.3684
18638THY    CA246717   6.228   7.270   7.680 -0.1787  0.7776 -0.1226
18638THY    CP146718   6.217   7.169   7.801  0.3342  0.1161 -0.1289
18638THY    HP146719   6.305   7.177   7.866 -0.7365  1.4422  1.6926
18638THY    CP246720   6.175   7.027   7.758  0.1368 -0.4549  0.5225
18638THY    HP246721   6.074   7.036   7.717  0.2537 -0.6555  0.9437
18638THY    HP346722   6.174   6.971   7.853 -0.0215 -0.1378  1.0594
18638THY    HP446723   6.248   6.972   7.698  2.5031  0.7238  2.1981
18638THY    CP346724   6.103   7.229   7.891 -0.6021 -0.3981  0.4575
18638THY    HP546725   6.112   7.336   7.918  0.4131  2.0362 -0.1595
18638THY    HP646726   6.110   7.176   7.987 -2.1990 -0.2685  0.4455
18638THY    HP746727   5.998   7.218   7.862 -0.5655  0.1125 -1.4450
18638THY    CA346728   6.181   7.237   7.556 -0.1696 -0.4619 -0.0348
18638THY    HA346729   6.119   7.148   7.544  0.0295 -1.5848 -0.0407
18638THY    CA446730   6.193   7.335   7.448 -0.8387  0.2040  0.7484
18638THY    HA446731   6.149   7.312   7.352  0.3088 -0.0644 -0.4826
18638THY    CA546732   6.257   7.458   7.470 -0.0909 -0.0899  0.5103
18638THY    CM146733   6.285   7.549   7.357 -0.2240 -0.1669 -0.2641
18638THY    HM146734   6.267   7.656   7.373 -1.2205 -2.0781 -0.1170
18638THY    HM246735   6.218   7.518   7.276 -1.1366  0.0459  1.0930
18638THY    HM346736   6.388   7.533   7.324 -0.4707 -1.0314 -0.1225
18638THY    CA646737   6.317   7.479   7.593  0.2288 -0.1222  0.6910
18638THY    HA646738   6.376   7.567   7.616  0.9633  3.2175 -0.5089
18639THY      O46739   2.552   0.907   1.734  0.0105 -0.5395 -0.9481
18639THY     HO46740   2.516   0.837   1.676  0.6475 -1.4569 -0.5436
18639THY    CA146741   2.442   0.980   1.769 -0.4946  0.0484 -0.1863
18639THY    CA246742   2.441   1.118   1.755  0.2066 -0.1196 -0.1704
18639THY    CP146743   2.566   1.192   1.710  0.0307  0.2732  0.6155
18639THY    HP146744   2.641   1.123   1.669 -0.2817  1.0599 -0.2142
18639THY    CP246745   2.641   1.267   1.823  0.4154 -0.8207 -0.6678
18639THY    HP246746   2.746   1.288   1.802  0.4371  0.3865  0.5418
18639THY    HP346747   2.633   1.208   1.916  1.9278 -0.0341  0.3169
18639THY    HP446748   2.582   1.356   1.848  0.2069  1.2291 -1.3152
18639THY    CP346749   2.538   1.290   1.593 -0.2831  0.1005 -0.7323
18639THY    HP546750   2.632   1.306   1.538 -1.6197 -1.7687  1.1510
18639THY    HP646751   2.489   1.387   1.604  1.0691 -3.4557  0.5362
18639THY    HP746752   2.462   1.238   1.533 -0.2819  1.1581 -2.0277
18639THY    CA346753   2.321   1.185   1.796 -0.1722  0.1904 -0.2927
18639THY    HA346754   2.323   1.294   1.792  5.2556 -0.0543 -0.0904
18639THY    CA446755   2.200   1.110   1.833 -0.2951  0.6964 -0.2192
18639THY    HA446756   2.109   1.163   1.860 -0.6210 -1.2856  0.3162
18639THY    CA546757   2.210   0.968   1.838 -0.2425 -0.2318 -0.0780
18639THY    CM146758   2.084   0.899   1.864  0.2895 -0.8160  0.2757
18639THY    HM146759   2.007   0.965   1.905 -0.8396 -0.6556 -1.0857
18639THY    HM246760   2.094   0.822   1.941 -0.2564 -0.4527  0.5600
18639THY    HM346761   2.042   0.861   1.770 -0.6883 -1.2887  2.3702
18639THY    CA646762   2.328   0.903   1.799  0.0772 -0.4208  0.3306
18639THY    HA646763   2.329   0.795   1.793  0.7334 -1.6274  0.3818
18640THY      O46764   1.216   8.468   4.728 -0.0928 -0.3374 -0.2343
18640THY     HO46765   1.122   8.454   4.705  0.1403  0.0372 -2.8730
18640THY    CA146766   1.235   8.559   4.826  0.3540  0.7089 -0.5022
18640THY    CA246767   1.366   8.600   4.871  0.0729 -0.3136 -0.6474
18640THY    CP146768   1.491   8.554   4.804  0.6461 -0.9489 -0.3081
18640THY    HP146769   1.460   8.538   4.700 -0.9159 -0.7992  1.3725
18640THY    CP246770   1.566   8.439   4.886  0.1778 -0.1477 -0.0747
18640THY    HP246771   1.669   8.423   4.853 -0.2666 -0.8983 -1.5869
18640THY    HP346772   1.523   8.338   4.884  1.5332  1.7454 -0.7567
18640THY    HP446773   1.564   8.460   4.994  0.2872  0.0468 -1.0167
18640THY    CP346774   1.587   8.676   4.798 -0.2909  0.2926  0.2010
18640THY    HP546775   1.554   8.751   4.725  0.1117 -2.0541 -1.7485
18640THY    HP646776   1.681   8.633   4.761 -0.0890 -0.0369  0.9205
18640THY    HP746777   1.612   8.724   4.893 -0.1748  0.1976  0.3302
18640THY    CA346778   1.378   8.677   4.987  0.3782 -0.1888  0.1503
18640THY    HA346779   1.468   8.699   5.044 -0.9409  2.1296 -0.0633
18640THY    CA446780   1.260   8.731   5.044  0.0665 -0.1581  0.1260
18640THY    HA446781   1.263   8.794   5.132  1.9922  0.0401 -0.1951
18640THY    CA546782   1.132   8.687   5.005 -0.1686 -0.5298  0.0738
18640THY    CM146783   1.010   8.728   5.078  0.2144  0.2274 -0.2201
18640THY    HM146784   0.917   8.714   5.022  0.4786 -0.4457  0.5939
18640THY    HM246785   1.013   8.834   5.104 -1.3395 -1.5273  0.2995
18640THY    HM346786   0.988   8.671   5.169 -2.9336 -0.4580 -0.2730
18640THY    CA646787   1.124   8.605   4.891 -0.1961  0.0238 -0.3132
18640THY    HA646788   1.027   8.567   4.862  0.3966 -0.2808 -1.6674
18641THY      O46789   7.031   5.133   2.059  0.6362 -0.0273  0.4657
18641THY     HO46790   7.111   5.085   2.085  0.8639 -0.5872  0.5346
18641THY    CA146791   7.007   5.106   1.929  0.3367 -0.2014  0.1504
18641THY    CA246792   6.936   5.194   1.842  0.0498  0.0904  0.2430
18641THY    CP146793   6.888   5.337   1.893 -0.3755  0.1705  0.3155
18641THY    HP146794   6.865   5.331   2.000  0.2374  0.3638  1.2030
18641THY    CP246795   6.759   5.392   1.828 -0.1761  0.3099 -0.1479
18641THY    HP246796   6.670   5.335   1.856 -1.0481  0.5964  1.2987
18641THY    HP346797   6.771   5.409   1.720 -0.6694  0.5056  1.6967
18641THY    HP446798   6.734   5.490   1.870  1.9696  1.4033  0.0058
18641THY    CP346799   7.006   5.444   1.876 -0.4857  0.1818 -0.2377
18641THY    HP546800   7.099   5.399   1.912  1.0497 -0.4285  2.2316
18641THY    HP646801   6.984   5.536   1.931  1.7470  0.5006  0.1625
18641THY    HP746802   7.009   5.472   1.770 -0.3948  0.5717  1.3092
18641THY    CA346803   6.904   5.150   1.716  0.0388 -0.8417 -0.3150
18641THY    HA346804   6.857   5.221   1.650 -1.6154  1.1760  0.5610
18641THY    CA446805   6.937   5.016   1.669  0.1085 -0.8792  0.1706
18641THY    HA446806   6.914   4.979   1.569 -1.5092  0.0029 -1.3425
18641THY    CA546807   7.004   4.934   1.752  0.6317 -0.5393 -1.0699
18641THY    CM146808   7.045   4.792   1.705 -0.7065  0.3060 -0.2590
18641THY    HM146809   6.968   4.771   1.629 -0.0293 -1.2539  2.3970
18641THY    HM246810   7.027   4.717   1.782 -0.8003  0.2392 -0.3051
18641THY    HM346811   7.146   4.781   1.664 -1.5303 -1.9127 -0.2240
18641THY    CA646812   7.042   4.978   1.880 -0.1395  0.0370 -0.0690
18641THY    HA646813   7.101   4.910   1.941 -0.0171  0.0973  0.0923
18642THY      O46814   2.678   7.327   4.569  0.6489  0.6314 -0.2907
18642THY     HO46815   2.699   7.422   4.581  0.3939 -3.0181  0.3755
18642THY    CA146816   2.735   7.293   4.450 -0.6298 -0.0292 -0.4365
18642THY    CA246817   2.737   7.165   4.393  0.3164 -0.2384 -0.8623
18642THY    CP146818   2.662   7.057   4.458  0.4448  0.9287 -0.2996
18642THY    HP146819   2.563   7.091   4.489  0.6915  0.6468  0.6928
18642THY    CP246820   2.742   7.010   4.579 -0.5302 -0.2997 -0.0058
18642THY    HP246821   2.729   7.088   4.655 -0.4733  2.2671 -2.3523
18642THY    HP346822   2.848   6.986   4.566 -0.4227  1.6129 -0.7150
18642THY    HP446823   2.686   6.925   4.620  1.1962 -1.4651 -1.7693
18642THY    CP346824   2.630   6.934   4.370 -0.6794 -0.1151  0.2054
18642THY    HP546825   2.722   6.884   4.337 -0.8039 -0.3453  0.1291
18642THY    HP646826   2.565   6.971   4.291 -0.6829  0.0594  0.5789
18642THY    HP746827   2.581   6.864   4.438  3.5253  1.2567 -1.7504
18642THY    CA346828   2.821   7.144   4.285 -0.1657  0.7492  0.3787
18642THY    HA346829   2.837   7.050   4.233  3.4628 -2.7702  2.6461
18642THY    CA446830   2.894   7.255   4.224  0.2343  0.2773  0.7727
18642THY    HA446831   2.951   7.253   4.131 -1.9979 -1.1848  1.7519
18642THY    CA546832   2.891   7.378   4.286  0.6518  0.0852 -0.1689
18642THY    CM146833   2.960   7.497   4.228  0.3792 -0.0426 -0.0941
18642THY    HM146834   2.994   7.568   4.305  0.3976 -1.0356  0.9931
18642THY    HM246835   2.884   7.556   4.176  0.8961 -2.1976 -1.2276
18642THY    HM346836   3.044   7.476   4.160 -0.6361 -1.7130  1.0297
18642THY    CA646837   2.805   7.402   4.392  0.2207  0.1299  0.8345
18642THY    HA646838   2.797   7.503   4.431 -1.7674 -0.2764  0.8640
18643THY      O46839   8.300   5.817   5.118  0.0428  0.3362 -0.7878
18643THY     HO46840   8.342   5.848   5.036 -0.1683 -0.3542 -2.2466
18643THY    CA146841   8.290   5.683   5.090 -0.0990  0.4986 -0.1123
18643THY    CA246842   8.189   5.599   5.145  0.9734 -0.5052 -0.3004
18643THY    CP146843   8.095   5.666   5.251 -0.0619  0.2348 -0.5716
18643THY    HP146844   8.129   5.762   5.290  0.5589 -1.8715  0.1073
18643THY    CP246845   8.079   5.581   5.378 -0.8264  0.3132 -0.0209
18643THY    HP246846   8.005   5.620   5.449 -0.7326 -0.1901  1.1160
18643THY    HP346847   8.166   5.560   5.440 -0.2064 -1.1956 -2.2600
18643THY    HP446848   8.039   5.482   5.352  2.8251  1.8208 -2.0683
18643THY    CP346849   7.953   5.678   5.197  0.2939 -0.0583 -1.0676
18643THY    HP546850   7.885   5.602   5.237  1.3288 -0.4514 -2.2305
18643THY    HP646851   7.959   5.676   5.088 -0.6822 -0.2001  1.0288
18643THY    HP746852   7.910   5.774   5.228  0.2088  1.3440 -1.5396
18643THY    CA346853   8.174   5.470   5.099 -0.4151 -0.0868 -0.1916
18643THY    HA346854   8.096   5.409   5.144 -1.2385 -1.1192  0.0628
18643THY    CA446855   8.271   5.418   5.004 -0.2382  0.0314  0.1924
18643THY    HA446856   8.260   5.316   4.969  0.9383  0.3587 -0.0508
18643THY    CA546857   8.373   5.507   4.959 -0.6475  0.6662  0.5556
18643THY    CM146858   8.477   5.459   4.859  0.3598 -0.0732 -0.7627
18643THY    HM146859   8.575   5.436   4.903  1.0825 -1.4708 -0.5028
18643THY    HM246860   8.495   5.540   4.787 -1.7960  1.4668  1.2058
18643THY    HM346861   8.433   5.379   4.798  2.9270 -0.6409 -1.8615
18643THY    CA646862   8.376   5.637   4.997  0.9257 -0.5221 -0.2942
18643THY    HA646863   8.453   5.696   4.950  2.3931  1.9481 -0.1135
18644THY      O46864   6.189   8.612   4.210 -0.0087  0.2629 -0.0200
18644THY     HO46865   6.236   8.627   4.294  0.3123  0.0048  0.4531
18644THY    CA146866   6.086   8.526   4.223 -0.9336  0.0447  0.3881
18644THY    CA246867   6.029   8.467   4.114  0.0886 -0.1373  0.1874
18644THY    CP146868   6.091   8.491   3.972  0.0332  0.3601 -0.0759
18644THY    HP146869   6.183   8.550   3.983 -0.2974  1.2182  0.2909
18644THY    CP246870   5.998   8.557   3.870 -0.6162  0.2872 -0.5306
18644THY    HP246871   5.955   8.649   3.911  0.8182  0.8715 -0.0833
18644THY    HP346872   5.920   8.497   3.822 -0.9968  0.2897 -0.0447
18644THY    HP446873   6.064   8.581   3.786  0.7914  1.6774  0.7339
18644THY    CP346874   6.137   8.357   3.915 -0.3557  0.7924  0.1616
18644THY    HP546875   6.212   8.306   3.977  0.6850  0.3908  1.1730
18644THY    HP646876   6.176   8.391   3.818 -0.0988  0.7593 -0.2160
18644THY    HP746877   6.049   8.295   3.895  0.9842 -0.5265 -1.4359
18644THY    CA346878   5.914   8.385   4.132 -0.8065  0.0413 -0.0040
18644THY    HA346879   5.856   8.340   4.052 -0.0490 -0.0201 -0.9003
18644THY    CA446880   5.873   8.363   4.267 -0.2558  0.2978 -0.7614
18644THY    HA446881   5.790   8.300   4.299 -0.2808  3.1766  0.5662
18644THY    CA546882   5.938   8.428   4.376 -0.7626  0.1514 -0.1201
18644THY    CM146883   5.892   8.403   4.511 -0.8448 -0.5406  0.8160
18644THY    HM146884   5.975   8.383   4.579 -0.4488 -1.7053 -2.1710
18644THY    HM246885   5.836   8.308   4.513 -0.0489  1.9802  0.3253
18644THY    HM346886   5.835   8.483   4.559 -0.8096  2.1206 -0.6484
18644THY    CA646887   6.045   8.508   4.350  0.2283 -0.2229 -0.0407
18644THY    HA646888   6.099   8.550   4.435  1.3152 -0.5358 -0.7546
18645THY      O46889   2.788   4.660   7.190 -0.0097  0.1306 -0.7717
18645THY     HO46890   2.786   4.752   7.158  2.6456 -0.8165 -0.9514
18645THY    CA146891   2.725   4.585   7.099  1.3806 -0.0205 -0.1645
18645THY    CA246892   2.762   4.448   7.078  0.5252 -0.1513 -0.2513
18645THY    CP146893   2.875   4.396   7.165 -0.0647 -0.0694  1.0129
18645THY    HP146894   2.873   4.430   7.269 -2.4614  0.5467 -0.7114
18645THY    CP246895   3.003   4.439   7.093  0.7313 -0.5105  0.3782
18645THY    HP246896   3.004   4.547   7.074 -0.3956 -0.2550  0.4469
18645THY    HP346897   2.999   4.386   6.997 -0.6406  0.2486 -0.9972
18645THY    HP446898   3.089   4.408   7.154 -0.4995  0.0445 -2.2747
18645THY    CP346899   2.872   4.242   7.175 -0.3587 -0.5876  0.1239
18645THY    HP546900   2.906   4.203   7.271 -1.1421 -0.7336 -0.9804
18645THY    HP646901   2.947   4.209   7.102  0.1740 -0.0396  0.1088
18645THY    HP746902   2.772   4.201   7.158 -1.2038 -0.0199  1.8553
18645THY    CA346903   2.709   4.381   6.969  0.1497 -0.4800  0.5624
18645THY    HA346904   2.750   4.283   6.945 -0.1823 -0.3260  0.3816
18645THY    CA446905   2.607   4.444   6.891  0.2184 -0.5880 -0.5757
18645THY    HA446906   2.567   4.401   6.800 -0.3971 -1.3455  1.4821
18645THY    CA546907   2.569   4.574   6.918  0.7995  0.2805 -0.4949
18645THY    CM146908   2.471   4.631   6.829 -0.2073 -0.3543 -0.8325
18645THY    HM146909   2.402   4.554   6.792 -1.5069  2.0351 -0.9069
18645THY    HM246910   2.517   4.686   6.746 -1.0151  0.7129  1.5489
18645THY    HM346911   2.410   4.695   6.893 -1.0666 -0.5664 -1.4219
18645THY    CA646912   2.626   4.645   7.022 -0.0611 -0.6800  0.3200
18645THY    HA646913   2.603   4.751   7.030  1.8601 -1.0273  0.8211
18646THY      O46914   7.536   7.842   2.034 -0.5415 -0.4111  0.7076
18646THY     HO46915   7.590   7.891   2.099  2.8071 -0.6058 -2.3169
18646THY    CA146916   7.622   7.752   1.981  0.1414  0.2213 -0.2506
18646THY    CA246917   7.574   7.626   1.932 -1.3469 -0.4621  0.9634
18646THY    CP146918   7.424   7.600   1.938 -0.0188 -0.1330 -0.1721
18646THY    HP146919   7.360   7.686   1.960 -2.0898 -2.3974 -1.0128
18646THY    CP246920   7.381   7.488   2.042  0.3845 -0.3893  0.0500
18646THY    HP246921   7.430   7.395   2.012  0.0767 -3.1699  0.7062
18646THY    HP346922   7.275   7.459   2.042  0.7503  0.1736 -1.3702
18646THY    HP446923   7.411   7.514   2.144 -0.3688 -0.0537 -0.3554
18646THY    CP346924   7.367   7.563   1.799  0.8608 -0.0103 -0.3476
18646THY    HP546925   7.392   7.630   1.716 -1.6922 -1.6240 -1.2412
18646THY    HP646926   7.258   7.562   1.804  0.8584  0.0483  0.0756
18646THY    HP746927   7.409   7.469   1.760 -1.5464 -1.1630 -1.0312
18646THY    CA346928   7.669   7.538   1.877  0.5622  1.1164 -0.7944
18646THY    HA346929   7.648   7.437   1.844 -2.1013  0.5944 -0.1281
18646THY    CA446930   7.807   7.564   1.896  0.2898  0.5145 -0.6176
18646THY    HA446931   7.877   7.488   1.864  1.7187 -0.6961  1.1113
18646THY    CA546932   7.850   7.687   1.943 -0.5701 -0.3702 -0.2530
18646THY    CM146933   7.992   7.729   1.953  0.1013  0.4439  0.0340
18646THY    HM146934   8.003   7.777   2.051 -0.4055  0.0316  1.0064
18646THY    HM246935   8.012   7.816   1.890  0.5839 -0.2322 -0.5466
18646THY    HM346936   8.064   7.649   1.933 -0.2341 -0.8799  0.0331
18646THY    CA646937   7.755   7.775   1.988 -0.1289  0.2596 -0.1803
18646THY    HA646938   7.788   7.861   2.045  0.5054 -0.6783  0.2180
18647THY      O46939   4.677   3.047   1.571 -0.1897 -0.4076  0.3524
18647THY     HO46940   4.685   3.115   1.503  1.3725  0.2022  0.8239
18647THY    CA146941   4.798   3.019   1.625 -0.0472 -0.1261 -0.0293
18647THY    CA246942   4.833   2.889   1.666  0.0828  1.1091 -0.1102
18647THY    CP146943   4.728   2.780   1.669  0.4696  0.9197  0.5243
18647THY    HP146944   4.648   2.799   1.597 -0.4317  2.3046  2.2141
18647THY    CP246945   4.646   2.777   1.803  0.2477 -0.6712 -0.1624
18647THY    HP246946   4.589   2.684   1.815 -0.4870  1.6015  0.5217
18647THY    HP346947   4.569   2.853   1.821  0.9311  0.7931  0.1941
18647THY    HP446948   4.715   2.768   1.887 -1.1867  0.4177 -1.5462
18647THY    CP346949   4.778   2.635   1.638  0.2489 -0.2154 -0.2160
18647THY    HP546950   4.858   2.627   1.564  1.8466  1.5213 -0.9723
18647THY    HP646951   4.689   2.575   1.614 -0.9950  1.0489  1.0206
18647THY    HP746952   4.818   2.598   1.733 -0.2114 -0.1596 -0.5768
18647THY    CA346953   4.963   2.872   1.718 -0.2211  0.1746 -0.6213
18647THY    HA346954   4.994   2.771   1.744 -2.3866  0.2226 -1.3129
18647THY    CA446955   5.056   2.977   1.714  0.5369  0.0694 -0.1590
18647THY    HA446956   5.161   2.958   1.736  0.1578  1.5038 -0.7885
18647THY    CA546957   5.015   3.103   1.674 -0.4439 -0.2364  0.0673
18647THY    CM146958   5.123   3.207   1.669 -0.0147  0.3151  0.9351
18647THY    HM146959   5.192   3.183   1.750  0.2345 -0.3008 -0.5429
18647THY    HM246960   5.087   3.310   1.683 -0.0388  0.1653  0.9475
18647THY    HM346961   5.180   3.195   1.576 -0.6646  0.2314 -2.4604
18647THY    CA646962   4.886   3.130   1.633 -0.0801 -1.1095  0.3895
18647THY    HA646963   4.862   3.228   1.593 -1.0880 -0.3176  0.4776
18648THY      O46964   8.868   8.859   3.053  0.0872  0.3713  0.0815
18648THY     HO46965   8.791   8.800   3.040  1.6477  0.9220 -2.2005
18648THY    CA146966   8.854   8.949   2.955  0.0913 -0.3120 -0.3066
18648THY    CA246967   8.968   8.998   2.892  0.3499 -0.9959  0.6107
18648THY    CP146968   9.103   8.963   2.944 -0.0117  0.0007  0.0502
18648THY    HP146969   9.173   9.006   2.871  0.3109 -0.4052 -1.1071
18648THY    CP246970   9.140   8.807   2.937 -0.1916  0.0366 -0.4145
18648THY    HP246971   9.246   8.785   2.925 -0.4710  0.3237 -2.0792
18648THY    HP346972   9.083   8.768   2.852 -1.2436  0.3586  0.3615
18648THY    HP446973   9.107   8.757   3.029  0.2915 -0.0998 -0.9937
18648THY    CP346974   9.140   9.025   3.079  0.6512 -0.1281  0.4054
18648THY    HP546975   9.060   8.998   3.148  0.2710 -0.3928  0.8518
18648THY    HP646976   9.146   9.135   3.072 -3.1123 -1.0272  0.6643
18648THY    HP746977   9.239   8.995   3.116  1.4581 -1.6661  1.0978
18648THY    CA346978   8.959   9.083   2.779  0.2126 -1.1374  0.7042
18648THY    HA346979   9.052   9.116   2.734  0.8920  0.3131  0.8431
18648THY    CA446980   8.826   9.114   2.742  0.3614  0.2262 -0.0753
18648THY    HA446981   8.819   9.175   2.652  2.8500  0.1840  0.2438
18648THY    CA546982   8.714   9.070   2.800  0.2859  0.3271 -0.3452
18648THY    CM146983   8.584   9.102   2.733  0.7356 -0.1041  0.2688
18648THY    HM146984   8.580   9.049   2.637  0.0190 -0.2123  0.4976
18648THY    HM246985   8.561   9.209   2.724  0.0715  2.0980  0.3568
18648THY    HM346986   8.505   9.077   2.805  0.7684  0.2183  1.0536
18648THY    CA646987   8.731   8.981   2.909 -0.2097 -0.1891  0.1833
18648THY    HA646988   8.642   8.943   2.958 -0.8505 -1.6889 -0.3291
18649THY      O46989   5.706   1.829   1.848 -0.2159  0.1043 -0.1980
18649THY     HO46990   5.640   1.790   1.789 -0.4085 -0.0268  0.3171
18649THY    CA146991   5.656   1.800   1.968  0.2192 -0.3518  0.0806
18649THY    CA246992   5.702   1.857   2.088 -0.5416  0.6089  0.2709
18649THY    CP146993   5.832   1.944   2.082 -0.7476  0.3273  0.5182
18649THY    HP146994   5.836   2.006   1.992 -1.4312  0.7869  1.2655
18649THY    CP246995   5.952   1.855   2.092  0.5635 -0.7253  0.3814
18649THY    HP246996   6.043   1.916   2.087 -0.1399  1.2992  1.6948
18649THY    HP346997   5.949   1.779   2.013 -1.0309 -0.5765  0.2631
18649THY    HP446998   5.947   1.800   2.187 -0.0163 -0.6277  0.5926
18649THY    CP346999   5.837   2.054   2.185 -0.3585  0.1578 -0.5573
18649THY    HP547000   5.748   2.118   2.189  0.5051 -1.2623  0.8054
18649THY    HP647001   5.919   2.125   2.172 -2.3288  3.6505  2.7250
18649THY    HP747002   5.861   2.010   2.283 -1.5446 -0.1205 -1.8801
18649THY    CA347003   5.648   1.812   2.210  0.3088 -0.3782 -0.3706
18649THY    HA347004   5.690   1.855   2.301  0.3968 -1.6914  2.6071
18649THY    CA447005   5.538   1.722   2.203  0.2246  0.0492  0.2434
18649THY    HA447006   5.489   1.683   2.292  1.7863  0.7032 -0.2750
18649THY    CA547007   5.483   1.682   2.082 -0.4149  0.2855 -0.4659
18649THY    CM147008   5.395   1.563   2.084  0.3251  0.2654 -0.2881
18649THY    HM147009   5.338   1.562   1.990  2.4467 -1.1306  0.8728
18649THY    HM247010   5.318   1.575   2.161  2.2593  2.0992  1.1363
18649THY    HM347011   5.450   1.469   2.097 -0.0434  0.4344 -0.4796
18649THY    CA647012   5.548   1.714   1.965 -0.3535  0.4054  0.7097
18649THY    HA647013   5.505   1.680   1.872 -0.0796 -0.3963  2.4193
18650THY      O47014   8.209   5.170   7.852  0.0189 -0.2979  0.0930
18650THY     HO47015   8.210   5.257   7.810 -0.2687 -0.5123 -0.0076
18650THY    CA147016   8.095   5.099   7.816 -0.5154  0.1094  0.2069
18650THY    CA247017   8.101   4.969   7.760 -0.5911  0.0825 -0.7968
18650THY    CP147018   8.238   4.907   7.745  0.0580  0.4779  0.3664
18650THY    HP147019   8.319   4.980   7.754 -0.0427 -0.0413  0.5491
18650THY    CP247020   8.261   4.850   7.600  0.1482  0.4568 -0.3101
18650THY    HP247021   8.202   4.759   7.585  0.9387  0.7705 -0.8952
18650THY    HP347022   8.369   4.836   7.582  0.4202  0.2945  1.7010
18650THY    HP447023   8.229   4.933   7.536  0.5446  0.8656  0.1685
18650THY    CP347024   8.277   4.798   7.841  0.4197  0.4480 -0.4477
18650THY    HP547025   8.276   4.843   7.941  0.6207  0.5109 -0.5780
18650THY    HP647026   8.382   4.771   7.824  0.5790  1.4529 -0.4970
18650THY    HP747027   8.214   4.709   7.838 -0.1630 -1.1649 -0.0354
18650THY    CA347028   7.983   4.901   7.733  0.2061  0.4400 -0.3140
18650THY    HA347029   7.982   4.803   7.686 -0.0730 -1.4526  0.5456
18650THY    CA447030   7.862   4.971   7.750  0.2330 -0.3480  0.3892
18650THY    HA447031   7.768   4.923   7.726  0.2725 -1.7332  0.9540
18650THY    CA547032   7.858   5.099   7.801  0.4557 -0.4205  0.4729
18650THY    CM147033   7.729   5.168   7.831  0.2949  0.0836  0.3820
18650THY    HM147034   7.683   5.197   7.736  1.1483 -0.7488 -0.8912
18650THY    HM247035   7.743   5.258   7.893 -2.2165  0.7800  0.3469
18650THY    HM347036   7.660   5.106   7.888 -1.7226  0.0420  2.4545
18650THY    CA647037   7.981   5.165   7.838  1.1471  0.0363  0.3125
18650THY    HA647038   7.975   5.260   7.891  0.3268 -0.0661  0.3270
18651THY      O47039   8.174   5.325   1.679  0.5839  0.1556 -0.2614
18651THY     HO47040   8.213   5.251   1.630 -1.8046 -0.7827 -0.9911
18651THY    CA147041   8.063   5.282   1.750  0.4069  0.5649 -0.6815
18651THY    CA247042   7.973   5.372   1.818  0.2772  0.2076  1.1689
18651THY    CP147043   7.991   5.521   1.816 -0.5257  0.0397 -1.0517
18651THY    HP147044   8.082   5.549   1.761  0.0933  0.9090 -1.3258
18651THY    CP247045   8.035   5.574   1.954 -0.2819 -0.3735 -0.0135
18651THY    HP247046   8.053   5.682   1.951  0.7440  1.0626 -0.1197
18651THY    HP347047   8.124   5.526   1.995 -1.9349  1.2440 -1.8748
18651THY    HP447048   7.957   5.546   2.026  1.1167  1.2803  0.1806
18651THY    CP347049   7.874   5.600   1.757 -0.6406 -0.2276  0.5025
18651THY    HP547050   7.902   5.691   1.703 -1.1321  1.1942  1.5209
18651THY    HP647051   7.796   5.616   1.832 -0.3822  0.2667 -0.4662
18651THY    HP747052   7.832   5.542   1.673  0.7872 -2.3693  2.4005
18651THY    CA347053   7.875   5.319   1.910 -0.4406  0.1274 -0.5116
18651THY    HA347054   7.808   5.386   1.963 -0.5451 -0.3127 -0.2606
18651THY    CA447055   7.857   5.178   1.909  0.1092 -0.1528 -0.1189
18651THY    HA447056   7.774   5.140   1.967  1.5039  1.7556 -0.4249
18651THY    CA547057   7.940   5.095   1.835 -0.1008 -0.2721  0.2491
18651THY    CM147058   7.932   4.942   1.844 -0.1701  0.3156 -0.1550
18651THY    HM147059   8.008   4.892   1.784 -1.0946  1.1804 -2.7788
18651THY    HM247060   7.834   4.903   1.814 -0.6675 -1.3072  2.1200
18651THY    HM347061   7.958   4.913   1.947  0.8776 -0.0703 -0.6324
18651THY    CA647062   8.034   5.148   1.754 -0.1243  0.1559 -0.3099
18651THY    HA647063   8.091   5.085   1.686  1.0550 -0.2461  1.1454
18652THY      O47064   2.440   6.020   5.561 -0.4221 -0.5236 -0.3259
18652THY     HO47065   2.530   5.989   5.544 -0.5250  0.2539 -1.0808
18652THY    CA147066   2.365   5.918   5.513 -1.2095  0.5680  0.2031
18652THY    CA247067   2.235   5.933   5.469  0.1030  0.3869 -0.1764
18652THY    CP147068   2.160   6.065   5.479  0.4057  0.5218  0.5289
18652THY    HP147069   2.227   6.148   5.504 -0.2733  0.9623  0.9496
18652THY    CP247070   2.046   6.058   5.585 -0.0132 -0.2930 -0.4842
18652THY    HP247071   1.974   5.979   5.562  2.2405  0.5002 -2.9114
18652THY    HP347072   2.009   6.161   5.594 -1.7683  1.2931 -1.1842
18652THY    HP447073   2.093   6.025   5.678  3.1481 -1.1994  1.0605
18652THY    CP347074   2.102   6.110   5.348 -0.0244 -0.1824  0.5904
18652THY    HP547075   2.181   6.127   5.273 -0.2687 -0.4237  0.6616
18652THY    HP647076   2.042   6.202   5.345  1.4268 -2.4619  1.5576
18652THY    HP747077   2.041   6.028   5.310 -1.9691 -2.4953  2.9351
18652THY    CA347078   2.170   5.820   5.419  0.0938 -0.7205 -0.5971
18652THY    HA347079   2.069   5.835   5.384 -0.3881  1.0119  0.5012
18652THY    CA447080   2.236   5.698   5.404 -0.5709 -0.7909 -0.2482
18652THY    HA447081   2.191   5.606   5.368  0.9515 -0.4218 -1.1700
18652THY    CA547082   2.363   5.681   5.455 -0.4076  0.2393  0.5041
18652THY    CM147083   2.428   5.544   5.438  0.7575 -0.2111  1.0337
18652THY    HM147084   2.458   5.517   5.336  0.4259  0.1473 -0.8621
18652THY    HM247085   2.353   5.471   5.473 -0.6468  0.1264  2.5796
18652THY    HM347086   2.516   5.525   5.499  0.8088 -0.8936 -1.2877
18652THY    CA647087   2.428   5.787   5.514 -0.4200 -0.6304  0.4050
18652THY    HA647088   2.531   5.782   5.549 -0.7924  1.0187  2.6145
18653THY      O47089   7.252   6.386   3.843  0.1036  0.0452  0.2679
18653THY     HO47090   7.344   6.408   3.866  1.5725 -2.6359 -2.3172
18653THY    CA147091   7.221   6.432   3.718 -0.8949  0.1197 -0.1894
18653THY    CA247092   7.089   6.432   3.659 -0.5041 -0.2879 -0.7694
18653THY    CP147093   6.973   6.380   3.733 -0.5611 -0.3486  0.2227
18653THY    HP147094   7.007   6.313   3.813 -2.9773  1.1740  0.6843
18653THY    CP247095   6.865   6.302   3.654  0.5552 -0.4225  0.2591
18653THY    HP247096   6.777   6.275   3.713  1.1807  0.1944 -0.5055
18653THY    HP347097   6.908   6.207   3.619 -0.9133  0.4552 -0.7852
18653THY    HP447098   6.830   6.353   3.564 -2.2602 -0.0267 -0.8096
18653THY    CP347099   6.882   6.498   3.794 -0.0747 -0.3275 -0.2174
18653THY    HP547100   6.941   6.556   3.867 -0.7425  1.3305 -1.5453
18653THY    HP647101   6.805   6.453   3.857  0.7163  2.0871  1.6023
18653THY    HP747102   6.846   6.568   3.717  1.9727 -1.1196  0.0510
18653THY    CA347103   7.076   6.491   3.530 -0.0433 -0.3547  1.3842
18653THY    HA347104   6.976   6.495   3.488  0.0713 -0.7801  0.1220
18653THY    CA447105   7.186   6.543   3.462  0.2118 -0.0219 -0.5645
18653THY    HA447106   7.176   6.591   3.365  0.8849  1.7863  3.5949
18653THY    CA547107   7.304   6.541   3.526 -0.0349  0.3241  0.3403
18653THY    CM147108   7.432   6.589   3.453 -1.2768 -0.3845  0.0289
18653THY    HM147109   7.429   6.697   3.468 -1.7960  1.7505 -0.2408
18653THY    HM247110   7.430   6.569   3.345 -0.2268 -1.0194  2.8384
18653THY    HM347111   7.518   6.540   3.501 -1.7042 -0.8058 -1.1779
18653THY    CA647112   7.322   6.490   3.651 -0.2220  0.0151 -0.2244
18653THY    HA647113   7.418   6.495   3.702 -2.2285  4.2435 -0.5534
18654THY      O47114   5.091   2.071   6.104  1.0290  0.4573 -0.2488
18654THY     HO47115   5.171   2.016   6.111  2.7423 -0.1957  1.9984
18654THY    CA147116   5.005   2.017   6.193  0.1013 -0.3578 -0.0919
18654THY    CA247117   4.869   2.055   6.204 -0.2099 -0.0149 -0.3918
18654THY    CP147118   4.810   2.148   6.103 -0.6397 -0.0754 -0.3378
18654THY    HP147119   4.888   2.171   6.029  0.7739  0.8005 -2.1310
18654THY    CP247120   4.782   2.279   6.170 -0.2602 -0.4499 -0.1999
18654THY    HP247121   4.875   2.310   6.219 -0.5954  1.3911 -1.9238
18654THY    HP347122   4.704   2.278   6.247  0.4919  0.3204 -0.7392
18654THY    HP447123   4.750   2.351   6.094  0.3644 -1.0743 -0.5634
18654THY    CP347124   4.690   2.093   6.022  0.7457 -0.1174 -0.3677
18654THY    HP547125   4.598   2.102   6.080  0.8819  0.1768 -0.8650
18654THY    HP647126   4.702   1.986   6.001  3.1228  2.3447 -0.6893
18654THY    HP747127   4.683   2.159   5.934 -2.5740 -0.8671 -1.5455
18654THY    CA347128   4.781   1.975   6.275  0.2428 -0.0374 -0.1737
18654THY    HA347129   4.674   1.995   6.272  0.4952 -1.5796  1.1782
18654THY    CA447130   4.832   1.872   6.352  0.2396  0.0370  0.0247
18654THY    HA447131   4.758   1.817   6.410 -0.4191  1.1456  1.9712
18654THY    CA547132   4.968   1.842   6.345 -0.5757  0.3455  0.4393
18654THY    CM147133   5.030   1.733   6.413 -0.9916 -0.6013 -0.0004
18654THY    HM147134   5.112   1.767   6.477 -0.0132 -0.5480 -2.2351
18654THY    HM247135   5.070   1.667   6.334  0.7872  1.3675 -1.4217
18654THY    HM347136   4.961   1.675   6.475  0.2515  0.0680 -0.8239
18654THY    CA647137   5.057   1.913   6.267 -0.3321  0.6297  0.5382
18654THY    HA647138   5.164   1.895   6.260 -0.3812  0.7558  0.1907
18655THY      O47139   0.474   1.695   4.193 -0.1983 -0.2862 -0.3403
18655THY     HO47140   0.550   1.681   4.252 -0.0349 -0.5895 -0.7379
18655THY    CA147141   0.491   1.813   4.131  0.2660  0.4397  0.2801
18655THY    CA247142   0.404   1.865   4.028 -0.3800 -0.2864 -0.3030
18655THY    CP147143   0.274   1.791   4.001 -0.1454  0.0571 -0.5798
18655THY    HP147144   0.261   1.718   4.081  1.0928 -0.9107 -1.9157
18655THY    CP247145   0.289   1.715   3.872  0.0862 -0.8857 -0.3269
18655THY    HP247146   0.384   1.660   3.880  1.0955  0.5247  1.4998
18655THY    HP347147   0.295   1.790   3.792 -0.5493  0.3989  1.1605
18655THY    HP447148   0.205   1.648   3.851 -1.3117 -0.8591  1.3508
18655THY    CP347149   0.151   1.889   4.002 -0.6504 -0.1108 -0.2105
18655THY    HP547150   0.056   1.835   4.009 -1.5144  3.0690  1.4935
18655THY    HP647151   0.144   1.940   3.905  0.4180 -0.0221  0.1360
18655THY    HP747152   0.154   1.966   4.080 -1.0254 -0.7644  0.4760
18655THY    CA347153   0.446   1.980   3.961 -0.8803 -0.4403  0.4048
18655THY    HA347154   0.396   2.021   3.873  0.1331 -0.5808  1.3607
18655THY    CA447155   0.564   2.051   4.002  0.0240  0.5004 -0.0578
18655THY    HA447156   0.585   2.145   3.952 -1.7460 -1.2720 -0.5314
18655THY    CA547157   0.639   2.006   4.113  0.0212 -0.9937  0.6797
18655THY    CM147158   0.748   2.095   4.157  0.3364 -0.1004 -0.2682
18655THY    HM147159   0.795   2.154   4.078 -0.8428  0.6330  1.7682
18655THY    HM247160   0.826   2.038   4.209  1.2864  0.0208  1.1066
18655THY    HM347161   0.714   2.172   4.227  2.3228 -0.3868  0.9053
18655THY    CA647162   0.602   1.882   4.178 -0.5300  0.0144 -0.0237
18655THY    HA647163   0.650   1.854   4.271 -1.6180  0.6505  0.1649
18656THY      O47164   4.067   1.668   5.867  0.0073 -0.5351 -1.0337
18656THY     HO47165   4.008   1.595   5.842  2.2037 -0.2273 -3.0724
18656THY    CA147166   4.064   1.659   6.006 -0.0437 -0.7911 -0.3195
18656THY    CA247167   4.178   1.694   6.081  0.7860  0.6891 -0.0353
18656THY    CP147168   4.313   1.720   6.016 -0.0408 -0.8030 -0.6063
18656THY    HP147169   4.291   1.741   5.911  1.5796 -0.5165  3.5941
18656THY    CP247170   4.393   1.589   6.019 -0.1987  0.6364 -0.0895
18656THY    HP247171   4.407   1.555   6.123 -0.7707  0.9327  0.5473
18656THY    HP347172   4.486   1.606   5.966  0.1697  1.8305  1.9718
18656THY    HP447173   4.340   1.510   5.964 -0.8592 -3.0966  2.7103
18656THY    CP347174   4.385   1.855   6.063  1.1487  0.5555  0.4337
18656THY    HP547175   4.312   1.935   6.051  1.1227  1.3599  0.5332
18656THY    HP647176   4.464   1.879   5.991  2.6598  1.6913 -0.8743
18656THY    HP747177   4.422   1.841   6.165 -0.4057  1.0356 -0.4311
18656THY    CA347178   4.162   1.688   6.216  0.2550 -0.5495  0.1103
18656THY    HA347179   4.249   1.707   6.279 -0.1572  0.7834 -2.0559
18656THY    CA447180   4.040   1.651   6.271  0.1021 -0.1591  0.2282
18656THY    HA447181   4.036   1.631   6.378  1.1187 -0.5225 -2.2303
18656THY    CA547182   3.929   1.631   6.193 -0.0720  0.9525  0.9608
18656THY    CM147183   3.795   1.597   6.252  0.4424 -0.0993 -0.1199
18656THY    HM147184   3.781   1.657   6.343 -1.2015  0.7210 -1.6534
18656THY    HM247185   3.795   1.492   6.283 -2.9083  3.7032  0.7612
18656THY    HM347186   3.718   1.627   6.181 -0.3273  1.2859  1.3501
18656THY    CA647187   3.935   1.647   6.055 -0.3646 -0.4727 -0.0979
18656THY    HA647188   3.849   1.641   5.989  0.6637 -2.2304  2.5532
18657THY      O47189   6.803   6.370   6.502 -0.1106  0.1009 -0.7697
18657THY     HO47190   6.884   6.328   6.467 -0.2182 -2.1239  0.7202
18657THY    CA147191   6.704   6.274   6.522  0.0741  0.2128  0.2260
18657THY    CA247192   6.571   6.309   6.540 -0.3116  0.1593 -0.2526
18657THY    CP147193   6.543   6.461   6.530  0.6378 -0.0615  0.1395
18657THY    HP147194   6.611   6.508   6.458 -0.7709 -2.3246 -1.1219
18657THY    CP247195   6.554   6.523   6.665 -0.7268 -0.0064 -0.4387
18657THY    HP247196   6.662   6.523   6.680 -0.4344 -1.8042  0.8664
18657THY    HP347197   6.512   6.467   6.750 -2.1370  0.5542  1.3734
18657THY    HP447198   6.517   6.625   6.655  0.5125 -0.6703 -0.0417
18657THY    CP347199   6.402   6.488   6.470  0.3077 -1.1721  0.4198
18657THY    HP547200   6.388   6.595   6.451  0.7055 -0.4209  0.6168
18657THY    HP647201   6.331   6.473   6.552  0.4272 -1.3878 -1.4660
18657THY    HP747202   6.377   6.416   6.392 -0.6535 -1.7079  1.3076
18657THY    CA347203   6.469   6.212   6.532  0.8795  0.2450 -0.3375
18657THY    HA347204   6.363   6.236   6.534  1.6178  1.1142  3.5094
18657THY    CA447205   6.507   6.079   6.522  0.6548  0.1885  0.4516
18657THY    HA447206   6.425   6.008   6.515  0.5349  2.2513  0.3192
18657THY    CA547207   6.638   6.037   6.505  0.2311  1.0508  0.2382
18657THY    CM147208   6.669   5.896   6.466  0.9753 -0.1176 -0.4646
18657THY    HM147209   6.588   5.824   6.455 -0.2939  2.0607  0.5190
18657THY    HM247210   6.718   5.834   6.542  1.8297 -1.2954 -1.2702
18657THY    HM347211   6.734   5.893   6.378  1.6863  0.3088  1.0244
18657THY    CA647212   6.739   6.139   6.497 -0.5355  0.0556 -0.6535
18657THY    HA647213   6.835   6.112   6.454 -0.2277  0.6349 -0.4809
18658THY      O47214   5.474   1.639   3.198  0.0021  0.3977  1.0537
18658THY     HO47215   5.441   1.571   3.136 -0.0112  0.3055  1.1450
18658THY    CA147216   5.588   1.587   3.240  0.1529  0.2419  0.3780
18658THY    CA247217   5.638   1.628   3.366  0.3117 -0.4459  0.1914
18658THY    CP147218   5.552   1.725   3.453 -0.1629  0.4099  0.2530
18658THY    HP147219   5.501   1.797   3.388  2.7137 -0.8787  1.2844
18658THY    CP247220   5.628   1.827   3.543  0.1172  0.0261 -0.1556
18658THY    HP247221   5.695   1.795   3.623 -0.7248  0.4649 -0.8685
18658THY    HP347222   5.553   1.880   3.603 -0.5526  0.2717 -1.3399
18658THY    HP447223   5.673   1.906   3.482 -0.3630  0.2089  0.2698
18658THY    CP347224   5.459   1.642   3.542 -0.1456  0.1625  0.4129
18658THY    HP547225   5.359   1.636   3.498 -0.0198 -0.1996  0.9190
18658THY    HP647226   5.457   1.693   3.639  3.1703 -0.4336  1.9383
18658THY    HP747227   5.482   1.534   3.546 -2.6705  2.7944 -0.1521
18658THY    CA347228   5.757   1.573   3.413 -0.6601  0.4722  0.2431
18658THY    HA347229   5.791   1.600   3.512 -2.3186  0.9846  0.5775
18658THY    CA447230   5.831   1.495   3.336  0.0301  0.4116  0.1575
18658THY    HA447231   5.930   1.458   3.359 -0.9390 -0.3162 -3.2012
18658THY    CA547232   5.789   1.464   3.204 -0.3638  0.1656  0.3999
18658THY    CM147233   5.879   1.387   3.111  0.0421  0.1246 -0.2713
18658THY    HM147234   5.986   1.391   3.135  0.3643 -1.1047 -1.0856
18658THY    HM247235   5.867   1.430   3.011 -1.6099 -0.2012 -1.4071
18658THY    HM347236   5.851   1.283   3.095  2.5745 -0.0635 -0.9861
18658THY    CA647237   5.669   1.509   3.155  0.1247  0.3908  0.4114
18658THY    HA647238   5.644   1.486   3.052 -0.6009  1.0094 -1.9400
18659THY      O47239   6.783   7.878   5.819 -0.0363  0.7996  0.3877
18659THY     HO47240   6.857   7.921   5.864 -0.2485  0.5920  0.9953
18659THY    CA147241   6.664   7.928   5.882 -0.0691  0.0219  0.3761
18659THY    CA247242   6.538   7.938   5.820 -0.4931 -0.0953  0.1031
18659THY    CP147243   6.524   7.897   5.671  0.8204 -0.6797  0.2282
18659THY    HP147244   6.599   7.821   5.648 -0.0913  0.4949 -1.0916
18659THY    CP247245   6.533   8.027   5.584 -0.2183  0.1342  0.3697
18659THY    HP247246   6.515   8.000   5.479  0.5063  0.1041 -0.0442
18659THY    HP347247   6.637   8.061   5.594 -0.0318 -1.3849  0.3047
18659THY    HP447248   6.459   8.097   5.624 -1.4491 -1.2107 -0.1190
18659THY    CP347249   6.395   7.815   5.639 -0.7532  0.4788 -1.2061
18659THY    HP547250   6.396   7.793   5.532 -0.4872  0.5800 -1.7209
18659THY    HP647251   6.301   7.864   5.665 -1.5838 -0.6739 -2.1208
18659THY    HP747252   6.404   7.723   5.698 -1.4069 -0.2636 -1.7576
18659THY    CA347253   6.426   7.993   5.886  0.2554  0.1100  0.5571
18659THY    HA347254   6.332   8.018   5.838  0.5434  0.2419  2.0192
18659THY    CA447255   6.448   8.047   6.011 -0.3246 -0.0350 -0.8521
18659THY    HA447256   6.370   8.096   6.068  0.3761  0.9373 -0.8445
18659THY    CA547257   6.577   8.031   6.076  0.4100 -0.3261  0.2190
18659THY    CM147258   6.595   8.090   6.215  0.4662 -0.2586 -0.3647
18659THY    HM147259   6.521   8.051   6.286  1.6407 -0.0632 -2.3504
18659THY    HM247260   6.587   8.199   6.212  0.1137 -1.3905 -0.4088
18659THY    HM347261   6.685   8.053   6.266  0.2355  1.8488  1.7436
18659THY    CA647262   6.684   7.972   6.013  0.4607 -0.6322 -0.4842
18659THY    HA647263   6.778   7.969   6.067 -0.7116  1.4258 -2.4416
18660THY      O47264   3.749   7.035   3.479  0.4251 -0.9579  0.3167
18660THY     HO47265   3.693   7.016   3.402 -0.9893  0.1172 -0.0848
18660THY    CA147266   3.757   6.918   3.537 -0.2749 -0.4154 -0.0315
18660THY    CA247267   3.818   6.908   3.668  0.1717  0.0343 -0.2467
18660THY    CP147268   3.883   7.034   3.725  0.3853  0.5599  0.0727
18660THY    HP147269   3.906   7.108   3.647 -2.0949  0.1993  0.5277
18660THY    CP247270   4.012   7.009   3.802 -0.8936  0.4128  0.0106
18660THY    HP247271   4.050   7.109   3.822  2.2015 -1.7065 -0.6082
18660THY    HP347272   4.088   6.959   3.741 -0.7378  0.1138  0.6021
18660THY    HP447273   3.994   6.947   3.891  0.5364  0.2194 -0.7145
18660THY    CP347274   3.778   7.097   3.810  0.5704  0.6132  1.0041
18660THY    HP547275   3.798   7.190   3.864  1.5009  1.9308  0.0827
18660THY    HP647276   3.733   7.024   3.878 -1.8078 -3.7003 -1.9927
18660THY    HP747277   3.690   7.124   3.751  0.9875 -0.8461 -0.6453
18660THY    CA347278   3.832   6.774   3.722 -0.7090  0.0769 -0.4363
18660THY    HA347279   3.882   6.768   3.818 -0.7482  0.3706  2.5553
18660THY    CA447280   3.766   6.665   3.659  0.1568  0.3897 -1.1732
18660THY    HA447281   3.766   6.564   3.699  0.0885  1.9218 -0.5893
18660THY    CA547282   3.705   6.689   3.539 -0.8843 -0.0454 -0.5003
18660THY    CM147283   3.649   6.569   3.475  0.3120  0.4028 -0.5019
18660THY    HM147284   3.550   6.553   3.519 -0.2838 -1.0998 -1.1862
18660THY    HM247285   3.709   6.478   3.490  0.5815 -1.9724 -0.7848
18660THY    HM347286   3.635   6.587   3.367 -0.9786  0.6374  0.0024
18660THY    CA647287   3.700   6.812   3.479 -0.0895  0.2157 -0.2143
18660THY    HA647288   3.656   6.813   3.379 -0.3471  0.2945 -1.6613
18661THY      O47289   2.601   0.538   1.774 -0.7149 -0.1527 -0.1730
18661THY     HO47290   2.652   0.618   1.793 -0.2137  0.3308 -0.5986
18661THY    CA147291   2.667   0.438   1.845 -0.0406  0.7746  0.8222
18661THY    CA247292   2.693   0.313   1.782 -0.3588  0.2186 -0.2937
18661THY    CP147293   2.645   0.289   1.634  0.6955 -0.5726  0.3428
18661THY    HP147294   2.555   0.348   1.618  0.1557 -0.3348 -0.3989
18661THY    CP247295   2.610   0.137   1.615  0.2164  0.8598  0.5066
18661THY    HP247296   2.696   0.073   1.639 -0.0719  2.9302  0.8173
18661THY    HP347297   2.576   0.111   1.514  0.8851  0.2527  1.9110
18661THY    HP447298   2.528   0.102   1.679 -1.4683 -0.6178  1.5702
18661THY    CP347299   2.756   0.337   1.538  0.4575  0.7175  0.3221
18661THY    HP547300   2.719   0.328   1.435  0.2833  0.8283 -0.2715
18661THY    HP647301   2.849   0.279   1.549  0.9054 -1.3276  0.5629
18661THY    HP747302   2.784   0.441   1.558  1.2155  0.6391  0.1414
18661THY    CA347303   2.772   0.218   1.852 -0.1628  0.3374  0.2463
18661THY    HA347304   2.807   0.130   1.801  1.8506 -0.3900  1.4051
18661THY    CA447305   2.812   0.245   1.986  0.1234  0.3762 -0.5275
18661THY    HA447306   2.856   0.162   2.041  0.1526 -0.4955 -1.0928
18661THY    CA547307   2.775   0.365   2.048 -0.6966 -0.5769  0.2786
18661THY    CM147308   2.821   0.387   2.186  0.8107  0.3028 -0.3120
18661THY    HM147309   2.911   0.328   2.205  0.4848  0.6778 -0.6969
18661THY    HM247310   2.737   0.358   2.250 -0.0968 -0.8758 -0.3705
18661THY    HM347311   2.843   0.492   2.207  0.0717 -1.8363  0.3263
18661THY    CA647312   2.714   0.461   1.977 -0.4258  0.0632  0.0871
18661THY    HA647313   2.702   0.556   2.029  0.6751 -0.6057  0.6155
18662THY      O47314   6.549   2.928   5.241  0.2216  0.1609 -0.0217
18662THY     HO47315   6.602   2.852   5.213  0.5682 -2.8043  1.1861
18662THY    CA147316   6.470   2.954   5.137  0.4164 -0.3915  0.6458
18662THY    CA247317   6.474   3.079   5.075 -0.0712  0.7478 -0.4155
18662THY    CP147318   6.561   3.186   5.141  0.1067 -0.3613 -0.1039
18662THY    HP147319   6.632   3.143   5.213  0.3906  1.9506  3.7652
18662THY    CP247320   6.471   3.287   5.216  0.3659  0.0707 -0.7421
18662THY    HP247321   6.413   3.246   5.299  0.4037  1.9520  2.5787
18662THY    HP347322   6.401   3.342   5.151 -1.9374  2.0053 -1.2561
18662THY    HP447323   6.539   3.358   5.265 -0.0425 -1.7937  1.0536
18662THY    CP347324   6.640   3.266   5.035 -0.3033  0.1617  0.1678
18662THY    HP547325   6.734   3.292   5.084 -0.3159  1.2519 -1.6519
18662THY    HP647326   6.593   3.358   4.999 -1.1707 -0.3865 -0.4696
18662THY    HP747327   6.661   3.212   4.942 -1.2715  0.0930 -0.1102
18662THY    CA347328   6.395   3.107   4.963 -0.2406 -0.3227  0.4112
18662THY    HA347329   6.385   3.210   4.929 -0.4186  0.2560  0.5906
18662THY    CA447330   6.314   3.004   4.918 -0.3956 -0.2708  0.5820
18662THY    HA447331   6.242   3.012   4.837 -2.1575  0.9291 -1.8806
18662THY    CA547332   6.309   2.879   4.985  0.5930  0.3391 -0.2170
18662THY    CM147333   6.234   2.763   4.912  0.4674 -0.4787 -0.2025
18662THY    HM147334   6.238   2.771   4.803 -0.8013 -0.4574  1.4211
18662THY    HM247335   6.128   2.755   4.941  0.0611 -1.8269  0.0352
18662THY    HM347336   6.283   2.669   4.938 -0.4256  1.2286 -0.2473
18662THY    CA647337   6.379   2.856   5.097  0.0718  0.1665  0.7217
18662THY    HA647338   6.371   2.755   5.138 -0.1348 -0.5440  0.4449
18663THY      O47339   1.121   0.769   3.956  0.6014 -0.5624  0.3185
18663THY     HO47340   1.121   0.702   3.886  2.4779 -0.2882 -0.0041
18663THY    CA147341   1.006   0.749   4.026  0.0209  0.7687  0.0931
18663THY    CA247342   0.986   0.811   4.151 -0.5235  0.2777  0.8497
18663THY    CP147343   1.101   0.908   4.200 -0.2083 -0.0638 -0.3650
18663THY    HP147344   1.161   0.961   4.125 -0.9419  0.7291  1.7008
18663THY    CP247345   1.203   0.827   4.290 -0.4808 -0.0582 -0.8659
18663THY    HP247346   1.298   0.875   4.318 -1.6597  0.3041  1.3546
18663THY    HP347347   1.242   0.743   4.229  0.1343  2.0277 -2.1673
18663THY    HP447348   1.150   0.767   4.365 -1.4899 -1.1778 -1.4161
18663THY    CP347349   1.050   1.016   4.290  0.1071 -0.0882 -0.5523
18663THY    HP547350   1.022   0.982   4.390  0.6354 -0.0732 -0.9656
18663THY    HP647351   0.976   1.079   4.240  0.8617  0.8271  1.1270
18663THY    HP747352   1.129   1.089   4.312  0.2513 -0.6007 -0.5439
18663THY    CA347353   0.865   0.785   4.221  0.0584 -0.4761 -0.1468
18663THY    HA347354   0.852   0.834   4.317  1.6879  0.7256 -1.9077
18663THY    CA447355   0.776   0.688   4.166  0.1134  0.1955  0.1556
18663THY    HA447356   0.689   0.658   4.224  0.6365  0.5621 -0.7032
18663THY    CA547357   0.793   0.642   4.034 -0.3686  0.3676 -0.5445
18663THY    CM147358   0.694   0.543   3.978  0.2295  0.2147 -0.2653
18663THY    HM147359   0.704   0.532   3.869 -0.5922 -0.1444  2.0113
18663THY    HM247360   0.593   0.575   4.007 -0.6432 -1.3315 -1.4880
18663THY    HM347361   0.701   0.444   4.023 -1.0560  0.0001 -0.4802
18663THY    CA647362   0.908   0.672   3.961  0.1612 -0.5542 -0.2170
18663THY    HA647363   0.936   0.617   3.872 -1.1906 -0.4078 -1.2002
18664THY      O47364   1.762   8.600   3.351 -0.2020  0.3421 -0.1564
18664THY     HO47365   1.834   8.570   3.409 -0.1865  1.7949  2.4245
18664THY    CA147366   1.659   8.562   3.431 -0.0831  0.2455  0.1812
18664THY    CA247367   1.548   8.517   3.368  0.1885 -0.1073  0.3712
18664THY    CP147368   1.544   8.495   3.214 -0.5555  0.4434 -0.0377
18664THY    HP147369   1.622   8.554   3.165 -0.3038  2.1102  1.0892
18664THY    CP247370   1.414   8.555   3.147  0.6257 -0.1490  0.7020
18664THY    HP247371   1.318   8.536   3.197  0.2175 -1.3867 -0.6954
18664THY    HP347372   1.406   8.518   3.044 -1.0818  0.0495  0.4487
18664THY    HP447373   1.414   8.665   3.138 -2.0380 -1.8030  0.6441
18664THY    CP347374   1.584   8.357   3.170  0.4167 -0.7631  0.5544
18664THY    HP547375   1.503   8.283   3.178  0.3856 -0.3933  0.6265
18664THY    HP647376   1.660   8.303   3.228 -1.4923 -2.1365 -4.1857
18664THY    HP747377   1.613   8.364   3.065 -1.3495 -1.2526  0.9101
18664THY    CA347378   1.447   8.471   3.451 -0.3101 -0.6274  1.2220
18664THY    HA347379   1.353   8.439   3.408  0.4534 -0.1922 -1.9046
18664THY    CA447380   1.457   8.489   3.593 -0.3873  0.2239 -0.0745
18664THY    HA447381   1.368   8.458   3.647 -1.6632 -2.3450 -1.2056
18664THY    CA547382   1.567   8.551   3.653  0.9843 -0.2360  0.4034
18664THY    CM147383   1.565   8.559   3.806  0.5728 -0.5643 -0.0641
18664THY    HM147384   1.520   8.467   3.845 -1.8660 -2.2333  0.3122
18664THY    HM247385   1.509   8.645   3.843  1.6740 -0.0097  0.4407
18664THY    HM347386   1.668   8.561   3.843  0.0065  1.4274 -2.2864
18664THY    CA647387   1.680   8.579   3.571  0.2465  0.5217  0.1769
18664THY    HA647388   1.765   8.634   3.611 -0.1347 -0.6872  1.7125
18665THY      O47389   1.645   7.145   3.152 -0.5771 -0.7415 -0.2911
18665THY     HO47390   1.712   7.215   3.164 -1.2422 -3.4225  0.9455
18665THY    CA147391   1.526   7.199   3.193  0.6198 -0.5087  0.0723
18665THY    CA247392   1.404   7.125   3.191  0.0785  0.8936  0.6383
18665THY    CP147393   1.400   6.986   3.131 -0.3767 -0.2057  0.0543
18665THY    HP147394   1.498   6.939   3.125 -0.0203  3.0831  0.1645
18665THY    CP247395   1.337   6.996   2.990 -0.2843  0.2628  0.0399
18665THY    HP247396   1.344   6.897   2.943 -1.9063 -0.8269  0.3981
18665THY    HP347397   1.400   7.056   2.923 -1.0527 -0.0247  0.5491
18665THY    HP447398   1.236   7.040   2.993 -0.6672  0.2847 -0.8177
18665THY    CP347399   1.301   6.889   3.210 -0.0087 -0.4938  0.5297
18665THY    HP547400   1.309   6.790   3.165 -1.2443  0.6683 -0.1306
18665THY    HP647401   1.201   6.927   3.186  0.9054 -0.7664  2.9610
18665THY    HP747402   1.317   6.887   3.319  2.6281 -0.8143  0.1822
18665THY    CA347403   1.284   7.186   3.230 -0.3486 -0.2570  0.1725
18665THY    HA347404   1.186   7.140   3.230 -1.4474 -0.2518  2.3427
18665THY    CA447405   1.295   7.314   3.275  0.1191  0.7517  0.2346
18665THY    HA447406   1.198   7.361   3.292 -0.6699 -1.4969 -0.4466
18665THY    CA547407   1.418   7.383   3.289  0.0455  0.6236  0.5422
18665THY    CM147408   1.424   7.528   3.331  0.2769 -0.1451  0.1444
18665THY    HM147409   1.483   7.587   3.260  1.1948  0.1275 -0.4286
18665THY    HM247410   1.466   7.540   3.432 -3.3903  1.7541 -1.5432
18665THY    HM347411   1.328   7.580   3.339 -1.0503 -1.3140 -2.0136
18665THY    CA647412   1.538   7.325   3.248  0.0807 -0.5008 -0.7239
18665THY    HA647413   1.635   7.374   3.253 -0.4563  1.5787  0.2636
18666THY      O47414   2.318   5.052   2.317  0.1540 -0.1766 -0.7534
18666THY     HO47415   2.238   5.044   2.263 -1.6527  2.0664  0.6863
18666THY    CA147416   2.345   5.184   2.317 -0.1630 -0.1027 -0.1556
18666THY    CA247417   2.457   5.229   2.386  0.0783 -0.0455 -1.0091
18666THY    CP147418   2.555   5.123   2.444  0.1527  0.8866  0.2032
18666THY    HP147419   2.528   5.028   2.397 -2.1657 -0.8795  1.6323
18666THY    CP247420   2.545   5.121   2.596 -0.4472 -1.0536 -0.1917
18666THY    HP247421   2.584   5.026   2.633  0.1887  0.6639  0.6848
18666THY    HP347422   2.447   5.126   2.643 -0.6986 -1.3101 -2.1647
18666THY    HP447423   2.601   5.207   2.636 -0.7870 -1.4308  0.2097
18666THY    CP347424   2.703   5.155   2.412  0.4598  0.3807  0.5681
18666THY    HP547425   2.721   5.190   2.310  0.1087 -0.5071 -1.6479
18666THY    HP647426   2.766   5.066   2.419  1.6967  1.0492  1.4730
18666THY    HP747427   2.746   5.224   2.485 -0.8009  0.5407  1.2253
18666THY    CA347428   2.471   5.361   2.406  0.1219  0.1079  0.6754
18666THY    HA347429   2.553   5.405   2.463 -0.3426 -0.0657  1.7947
18666THY    CA447430   2.378   5.449   2.343  0.2055 -0.8728  0.6985
18666THY    HA447431   2.391   5.556   2.360  1.2414 -3.4794  1.0538
18666THY    CA547432   2.268   5.407   2.275  0.3669 -0.6068  0.7970
18666THY    CM147433   2.184   5.499   2.202  0.3073 -0.7848 -0.0388
18666THY    HM147434   2.228   5.599   2.209 -0.1949 -0.6969  0.1796
18666THY    HM247435   2.099   5.518   2.267  1.1338  0.1372  0.5902
18666THY    HM347436   2.156   5.466   2.101  0.6819 -1.1312  0.6832
18666THY    CA647437   2.254   5.268   2.260 -0.5091  0.3541 -0.7244
18666THY    HA647438   2.170   5.223   2.208 -0.1634  0.0523 -1.0285
18667THY      O47439   2.560   9.104   6.106  0.0685 -0.5197 -0.0092
18667THY     HO47440   2.464   9.118   6.098  0.0916  0.8995  1.2140
18667THY    CA147441   2.580   8.986   6.151 -0.1476 -0.4084 -0.2585
18667THY    CA247442   2.692   8.954   6.220  0.1390 -0.0673  0.4575
18667THY    CP147443   2.798   9.067   6.249 -1.1957 -0.4572 -0.2454
18667THY    HP147444   2.804   9.140   6.168 -0.7358  0.8906  1.2714
18667THY    CP247445   2.946   9.022   6.254  0.0599 -0.8690 -0.2124
18667THY    HP247446   2.977   8.960   6.169  2.3987 -1.4757  1.6363
18667THY    HP347447   2.979   8.968   6.344  2.0907 -0.7136  1.1760
18667THY    HP447448   3.009   9.111   6.259 -0.1206 -1.1517 -0.0687
18667THY    CP347449   2.763   9.144   6.376 -0.3134 -0.0334  0.4572
18667THY    HP547450   2.665   9.192   6.365  0.4699 -0.5748  2.0100
18667THY    HP647451   2.842   9.220   6.380  0.1888 -0.3054 -0.0395
18667THY    HP747452   2.773   9.088   6.469  0.5692 -0.6057 -0.3740
18667THY    CA347453   2.717   8.824   6.265 -0.0287 -0.0304 -0.2031
18667THY    HA347454   2.806   8.812   6.326  0.9909 -1.4217 -0.0143
18667THY    CA447455   2.626   8.727   6.240  0.0112  0.2515  0.3072
18667THY    HA447456   2.640   8.631   6.288  1.0927 -3.1122 -1.3680
18667THY    CA547457   2.516   8.753   6.151  0.0797 -0.3120  0.4278
18667THY    CM147458   2.424   8.642   6.117 -0.2900 -0.1404  0.0254
18667THY    HM147459   2.439   8.623   6.010 -0.4462 -0.3138  0.8037
18667THY    HM247460   2.319   8.671   6.127  0.0855  0.9610  1.0863
18667THY    HM347461   2.455   8.561   6.183 -0.3046 -1.6952 -1.3118
18667THY    CA647462   2.490   8.886   6.119 -0.5391  0.7489 -0.2258
18667THY    HA647463   2.401   8.910   6.062  0.6811 -2.1924 -2.1861
18668THY      O47464   1.719   7.700   2.655  0.5419 -0.3750  0.1560
18668THY     HO47465   1.747   7.788   2.684 -0.1397  1.6617 -0.2458
18668THY    CA147466   1.594   7.722   2.600 -0.0196 -0.2976  0.5004
18668THY    CA247467   1.512   7.618   2.558 -0.5221 -0.8217 -0.5270
18668THY    CP147468   1.561   7.472   2.572 -1.0798  0.2435  0.1164
18668THY    HP147469   1.670   7.471   2.566 -1.0796 -0.4716 -2.5488
18668THY    CP247470   1.513   7.373   2.460  0.5981  0.2176  0.0674
18668THY    HP247471   1.519   7.421   2.362  0.4810  0.4860  0.6333
18668THY    HP347472   1.409   7.343   2.479  0.1458 -1.6701  0.3110
18668THY    HP447473   1.576   7.285   2.442 -0.1740 -1.1437 -0.2342
18668THY    CP347474   1.517   7.424   2.713  0.1084  0.0319 -0.6884
18668THY    HP547475   1.535   7.318   2.730  0.2425 -0.7395 -0.7959
18668THY    HP647476   1.407   7.427   2.713  0.0547  3.0263 -0.0648
18668THY    HP747477   1.566   7.481   2.792 -2.1434  1.5234 -0.7017
18668THY    CA347478   1.388   7.651   2.497 -0.9827 -0.7134  0.2167
18668THY    HA347479   1.320   7.575   2.460  0.5639 -0.3948 -1.3874
18668THY    CA447480   1.337   7.777   2.514  0.1598  0.0027  0.3498
18668THY    HA447481   1.238   7.798   2.476  0.9187 -2.5938 -0.2927
18668THY    CA547482   1.414   7.878   2.562  0.1280 -0.7381  0.4301
18668THY    CM147483   1.361   8.013   2.565  0.1987 -0.0395 -0.4009
18668THY    HM147484   1.371   8.062   2.467  0.4577  0.5297  0.7080
18668THY    HM247485   1.419   8.083   2.626  0.0691 -0.2739 -0.0851
18668THY    HM347486   1.260   8.017   2.607  0.0722 -0.0124 -2.5961
18668THY    CA647487   1.549   7.857   2.592 -0.9833  0.2284  0.6142
18668THY    HA647488   1.612   7.943   2.612  0.7736  1.6292 -0.9153
18669THY      O47489   4.383   0.569   6.450  0.2250 -0.7435 -0.3683
18669THY     HO47490   4.436   0.496   6.488  1.2454  0.7764  1.0953
18669THY    CA147491   4.265   0.571   6.510  0.1580 -0.1150 -0.3257
18669THY    CA247492   4.180   0.682   6.498 -0.3464  0.0711  1.1880
18669THY    CP147493   4.216   0.794   6.401 -0.3378 -0.4033 -0.9395
18669THY    HP147494   4.305   0.766   6.342 -0.1212 -1.3321  1.4798
18669THY    CP247495   4.259   0.923   6.469 -0.2536 -0.6675 -0.0620
18669THY    HP247496   4.366   0.922   6.490 -0.3908  0.4278  1.8309
18669THY    HP347497   4.194   0.949   6.554 -1.3674 -1.6823  0.6030
18669THY    HP447498   4.252   1.007   6.399 -0.4598 -1.4892 -0.7568
18669THY    CP347499   4.100   0.823   6.313  0.3384  1.1934  0.3343
18669THY    HP547500   4.018   0.869   6.371 -0.2630  0.6085  0.0115
18669THY    HP647501   4.068   0.739   6.250 -0.9303  0.5204  1.2820
18669THY    HP747502   4.126   0.883   6.225 -5.1821 -1.3295 -0.3707
18669THY    CA347503   4.062   0.691   6.572  0.9398  0.2682  0.1801
18669THY    HA347504   4.004   0.783   6.574  0.3786  0.2126 -0.1652
18669THY    CA447505   4.037   0.596   6.676  0.0101  0.1017 -0.1935
18669THY    HA447506   3.952   0.593   6.743  1.0432  1.4237 -1.6414
18669THY    CA547507   4.130   0.486   6.685  0.5913 -0.8433 -0.5079
18669THY    CM147508   4.096   0.388   6.788  0.1058 -0.1342 -0.4230
18669THY    HM147509   4.021   0.428   6.857  1.3698  0.2578  1.4231
18669THY    HM247510   4.174   0.331   6.841 -2.6403  2.4077 -2.1212
18669THY    HM347511   4.049   0.307   6.731 -0.4683  0.6699 -0.6664
18669THY    CA647512   4.245   0.476   6.611 -0.3016  0.3619 -0.4537
18669THY    HA647513   4.314   0.394   6.626 -0.0033  2.4485  0.1166
18670THY      O47514   6.122   6.704   3.228  0.7667  0.5454 -0.4053
18670THY     HO47515   6.096   6.699   3.321  0.0750  0.3762 -0.0801
18670THY    CA147516   6.013   6.752   3.169  0.4582 -0.5539  0.0681
18670THY    CA247517   5.977   6.705   3.038 -0.5867 -0.9646 -1.0758
18670THY    CP147518   6.086   6.640   2.948  0.0199 -0.1175  0.6425
18670THY    HP147519   6.179   6.692   2.973  1.7403 -0.4941 -2.0990
18670THY    CP247520   6.059   6.664   2.802 -0.4334  0.0650  0.6342
18670THY    HP247521   6.132   6.610   2.741 -0.7455  0.0995  0.1612
18670THY    HP347522   6.055   6.771   2.779  1.8435  0.1147  0.7720
18670THY    HP447523   5.965   6.618   2.769  0.9761  0.0799 -2.5188
18670THY    CP347524   6.102   6.495   2.986 -0.7342 -0.0359  1.0808
18670THY    HP547525   6.002   6.450   2.996 -1.7743  2.6480  3.6943
18670THY    HP647526   6.172   6.482   3.070 -0.7162  0.4871  3.9549
18670THY    HP747527   6.151   6.439   2.905  2.1370  1.6994  0.8789
18670THY    CA347528   5.843   6.729   3.000  0.0179 -0.2616  0.9181
18670THY    HA347529   5.791   6.700   2.910 -2.2493  1.2918 -0.1088
18670THY    CA447530   5.755   6.805   3.084  0.1528 -0.3459  0.1107
18670THY    HA447531   5.652   6.826   3.057 -0.8696  1.6612 -1.8757
18670THY    CA547532   5.798   6.865   3.201  0.4285  0.2958  0.4637
18670THY    CM147533   5.696   6.941   3.291 -0.2187  0.0262 -0.6247
18670THY    HM147534   5.603   6.887   3.313 -0.3316  1.2062  0.0042
18670THY    HM247535   5.668   7.031   3.236  1.9893 -0.6375 -0.2806
18670THY    HM347536   5.735   6.982   3.385 -1.7293  0.7874 -0.8729
18670THY    CA647537   5.925   6.830   3.243  0.1533 -0.3003 -0.0757
18670THY    HA647538   5.953   6.861   3.343  2.5958 -0.6836 -0.8030
18671THY      O47539   7.538   8.372   3.014  0.3180  0.1293 -0.0985
18671THY     HO47540   7.446   8.397   2.995  0.7168 -0.7268  0.7488
18671THY    CA147541   7.556   8.361   3.149  0.2503  0.1159 -0.7953
18671THY    CA247542   7.680   8.325   3.206  0.1037 -0.0192  0.1320
18671THY    CP147543   7.789   8.268   3.118 -0.0697 -0.5395  0.4936
18671THY    HP147544   7.788   8.292   3.011  1.0866 -1.0949 -1.6926
18671THY    CP247545   7.800   8.106   3.138  0.0986  0.5425 -0.1452
18671THY    HP247546   7.882   8.074   3.072 -0.5603  0.2976 -1.3532
18671THY    HP347547   7.706   8.059   3.108  0.9754 -1.0677 -0.9367
18671THY    HP447548   7.823   8.065   3.237  0.4234  0.4895 -0.0955
18671THY    CP347549   7.930   8.316   3.169 -0.3471  0.2556  0.0196
18671THY    HP547550   7.924   8.424   3.187  0.2681  0.4302  0.0270
18671THY    HP647551   8.010   8.290   3.098 -0.4375  0.5162 -0.9747
18671THY    HP747552   7.964   8.265   3.259  1.4039 -0.8121 -0.7857
18671THY    CA347553   7.703   8.339   3.343  0.5081 -0.6642 -0.1062
18671THY    HA347554   7.794   8.319   3.398 -0.5715  1.6950  0.9698
18671THY    CA447555   7.592   8.378   3.417 -0.3037 -1.2477  0.4163
18671THY    HA447556   7.608   8.370   3.524  0.7441 -1.4220 -0.0504
18671THY    CA547557   7.480   8.431   3.363  0.3694  1.5271 -0.9259
18671THY    CM147558   7.375   8.487   3.451 -0.2398 -0.1508 -0.2908
18671THY    HM147559   7.289   8.513   3.389  0.9158 -0.5588  3.0621
18671THY    HM247560   7.395   8.579   3.506  1.8725  0.6652 -1.1691
18671THY    HM347561   7.343   8.412   3.524 -0.9789 -2.9215 -2.8587
18671THY    CA647562   7.458   8.418   3.231  0.4008 -0.4475 -0.9745
18671THY    HA647563   7.365   8.455   3.190 -1.0974  2.7384 -0.8714
18672THY      O47564   2.166   6.044   6.605  0.1888 -0.6394  0.0630
18672THY     HO47565   2.150   5.975   6.538 -2.3884  0.2883 -0.3700
18672THY    CA147566   2.162   6.156   6.541  0.4776 -0.3553 -0.3408
18672THY    CA247567   2.258   6.255   6.561  0.0807  0.4144 -0.1788
18672THY    CP147568   2.380   6.225   6.645  0.0768 -0.3775 -0.2491
18672THY    HP147569   2.396   6.119   6.666 -0.2505  0.8776 -0.0707
18672THY    CP247570   2.369   6.300   6.783 -0.6492  0.0373  0.0462
18672THY    HP247571   2.451   6.286   6.854 -0.7744 -0.1382 -1.7212
18672THY    HP347572   2.276   6.268   6.831 -0.2204  0.4702 -0.5868
18672THY    HP447573   2.370   6.408   6.765 -1.1515  3.8101  0.8243
18672THY    CP347574   2.504   6.274   6.564 -0.5844 -0.1711 -0.1364
18672THY    HP547575   2.589   6.233   6.619 -1.6945  2.4911  0.9347
18672THY    HP647576   2.522   6.382   6.571  0.2926  0.8914 -0.3406
18672THY    HP747577   2.503   6.232   6.463  0.3290 -0.3924  0.3451
18672THY    CA347578   2.233   6.383   6.501  0.1427 -0.5571  0.3476
18672THY    HA347579   2.306   6.463   6.502  1.3983 -0.3176 -0.7671
18672THY    CA447580   2.119   6.388   6.415 -0.0030  0.2679 -0.6551
18672THY    HA447581   2.084   6.482   6.373 -1.0253  1.3903 -0.5078
18672THY    CA547582   2.017   6.288   6.399 -0.6416 -0.4779  0.3008
18672THY    CM147583   1.895   6.297   6.311  0.0540 -0.0476  0.5538
18672THY    HM147584   1.809   6.285   6.378 -0.3906 -1.1323 -4.2541
18672THY    HM247585   1.885   6.212   6.243 -1.0337  0.5577  0.1895
18672THY    HM347586   1.881   6.394   6.262 -2.1496  0.7069  0.6712
18672THY    CA647587   2.050   6.164   6.458  0.4937 -0.2006  0.4270
18672THY    HA647588   1.978   6.083   6.451  1.8930 -1.0633 -0.7931
18673THY      O47589   1.628   1.463   5.038 -0.5123 -0.5110 -0.4382
18673THY     HO47590   1.662   1.435   5.125 -0.7560 -0.6462 -1.1761
18673THY    CA147591   1.741   1.484   4.965  0.0727 -0.3393  0.1203
18673THY    CA247592   1.746   1.493   4.828  0.9941  0.8678  0.0161
18673THY    CP147593   1.611   1.488   4.746 -0.2360  0.3509  0.0794
18673THY    HP147594   1.533   1.501   4.822 -1.2359 -1.0941  4.6753
18673THY    CP247595   1.593   1.356   4.667 -0.0724 -0.8745 -0.3009
18673THY    HP247596   1.649   1.370   4.574  0.0090 -1.2907 -2.8898
18673THY    HP347597   1.486   1.334   4.661  0.2507  1.2604 -3.1209
18673THY    HP447598   1.637   1.267   4.713 -2.5240  1.6720 -0.3672
18673THY    CP347599   1.595   1.614   4.652 -0.2581 -0.0193  0.3782
18673THY    HP547600   1.658   1.599   4.564  0.1000  0.3485 -0.3574
18673THY    HP647601   1.630   1.704   4.705 -1.0265  0.3999  0.4397
18673THY    HP747602   1.489   1.628   4.630 -0.0693 -0.3820  1.3006
18673THY    CA347603   1.870   1.502   4.760  0.9074  0.5045  0.3280
18673THY    HA347604   1.875   1.504   4.652 -1.0957  0.3814  0.1472
18673THY    CA447605   1.989   1.495   4.833 -0.6973  0.5777  0.8804
18673THY    HA447606   2.084   1.496   4.782  0.2102  1.9377 -2.6761
18673THY    CA547607   1.975   1.482   4.973  0.1466 -0.2264 -0.2511
18673THY    CM147608   2.097   1.454   5.050 -0.1065 -0.2857  0.5289
18673THY    HM147609   2.168   1.388   4.999 -1.1219 -1.8139  0.5839
18673THY    HM247610   2.088   1.405   5.149 -0.0346 -1.5271 -2.1932
18673THY    HM347611   2.144   1.551   5.067 -2.0867 -1.5316  1.7662
18673THY    CA647612   1.856   1.481   5.041  0.1635  0.1334  0.1417
18673THY    HA647613   1.840   1.475   5.148 -1.2806 -0.0644  0.2020
18674THY      O47614   9.406   0.240   6.065 -0.3881 -0.3851  0.4295
18674THY     HO47615   9.501   0.218   6.073 -0.9728  0.1375 -2.2469
18674THY    CA147616   9.397   0.368   6.085 -0.2500 -0.4165 -0.1988
18674THY    CA247617   9.376   0.450   5.984  0.1417 -0.2842 -0.0678
18674THY    CP147618   9.363   0.401   5.838  0.8495 -0.2204 -0.2268
18674THY    HP147619   9.339   0.294   5.837 -0.0717  1.7436 -0.0705
18674THY    CP247620   9.497   0.417   5.771  0.0528 -0.2570  0.0856
18674THY    HP247621   9.546   0.319   5.762  1.5185  0.9983  0.6642
18674THY    HP347622   9.570   0.471   5.832  0.3500 -0.8999  0.4174
18674THY    HP447623   9.479   0.470   5.677 -0.1417 -0.9326 -1.1327
18674THY    CP347624   9.250   0.463   5.759 -0.3187  0.2498  0.3359
18674THY    HP547625   9.234   0.405   5.667 -0.8396  0.9150 -0.6008
18674THY    HP647626   9.254   0.570   5.734  1.3425 -1.5876 -0.0914
18674THY    HP747627   9.154   0.454   5.812  0.0135  0.9752  0.9308
18674THY    CA347628   9.357   0.588   6.010  0.5287 -0.1205  0.6592
18674THY    HA347629   9.332   0.650   5.925  1.5086 -2.2858 -1.7482
18674THY    CA447630   9.356   0.637   6.142 -0.7751 -0.3190 -0.2044
18674THY    HA447631   9.344   0.743   6.161  1.7869  0.2150  0.0579
18674THY    CA547632   9.384   0.550   6.249 -0.3076  0.3530 -0.3771
18674THY    CM147633   9.405   0.599   6.386  0.2861 -0.3325 -0.0800
18674THY    HM147634   9.399   0.512   6.453 -0.4691 -1.2748 -0.7844
18674THY    HM247635   9.332   0.674   6.418  0.2698  2.2549 -1.1051
18674THY    HM347636   9.504   0.644   6.396  1.0636 -2.3106 -1.2178
18674THY    CA647637   9.400   0.417   6.223 -0.3583 -0.4764 -0.9080
18674THY    HA647638   9.421   0.347   6.303 -1.4768  0.0640 -0.6512
18675THY      O47639   5.748   5.178   6.103 -0.2289 -0.5285 -0.3031
18675THY     HO47640   5.695   5.254   6.074 -1.8775  1.9747 -0.4020
18675THY    CA147641   5.774   5.184   6.239 -0.0273 -0.1584 -0.5945
18675THY    CA247642   5.735   5.298   6.314 -1.2635  0.2487  0.5924
18675THY    CP147643   5.656   5.411   6.251  0.2545 -0.3309  0.7877
18675THY    HP147644   5.673   5.403   6.143 -3.3257 -1.0791  1.2898
18675THY    CP247645   5.692   5.558   6.292  0.2764  0.4917 -1.1175
18675THY    HP247646   5.694   5.571   6.401  1.3321  0.5429 -1.6512
18675THY    HP347647   5.634   5.631   6.235  0.2613  0.6471 -1.0079
18675THY    HP447648   5.791   5.580   6.252 -0.4488 -1.1998 -0.8069
18675THY    CP347649   5.504   5.376   6.269  0.3798 -0.4646  0.0796
18675THY    HP547650   5.491   5.271   6.241 -1.0642  2.2968 -0.5757
18675THY    HP647651   5.435   5.444   6.219  0.3574 -1.6590 -0.7895
18675THY    HP747652   5.485   5.366   6.376  1.0625 -0.3458 -0.0166
18675THY    CA347653   5.756   5.290   6.456  0.3242  0.3152  0.1237
18675THY    HA347654   5.728   5.375   6.517  0.5139 -2.1282  2.0514
18675THY    CA447655   5.818   5.178   6.512 -0.4976 -0.2522  0.7298
18675THY    HA447656   5.836   5.178   6.619  1.2566 -0.5288  0.9430
18675THY    CA547657   5.857   5.070   6.434 -0.4360 -0.3477  0.0635
18675THY    CM147658   5.927   4.946   6.496  0.3925 -0.3163 -1.1289
18675THY    HM147659   5.912   4.852   6.440  0.3297  3.3189 -3.4875
18675THY    HM247660   5.888   4.923   6.596  1.7600  0.2599 -0.9851
18675THY    HM347661   6.034   4.963   6.509  0.2297 -0.2247 -0.1534
18675THY    CA647662   5.836   5.075   6.296  0.3339 -0.2020 -0.5091
18675THY    HA647663   5.856   4.990   6.232 -0.5055 -1.2740  0.0632
18676THY      O47664   4.099   5.588   4.166  0.2136 -0.6318 -0.1306
18676THY     HO47665   4.129   5.677   4.190 -1.9740  0.9944  0.2479
18676THY    CA147666   4.118   5.568   4.032  0.0578 -0.2610 -0.6890
18676THY    CA247667   4.090   5.442   3.978 -0.4296  0.1832 -0.2943
18676THY    CP147668   4.031   5.327   4.056  0.1771  0.0982  0.0562
18676THY    HP147669   4.006   5.364   4.156  0.1509  0.5208 -1.0609
18676THY    CP247670   4.141   5.216   4.071 -0.0995 -0.8776  0.0343
18676THY    HP247671   4.231   5.247   4.125 -1.0710 -0.5636  2.6268
18676THY    HP347672   4.165   5.182   3.970  0.3570 -0.5200 -0.7091
18676THY    HP447673   4.091   5.136   4.126 -0.1917  0.7692  1.1580
18676THY    CP347674   3.895   5.271   3.994  0.7203 -0.1893 -0.4834
18676THY    HP547675   3.835   5.363   3.986  0.6179 -0.2920 -0.5596
18676THY    HP647676   3.843   5.209   4.068 -1.8122  0.8233  2.5542
18676THY    HP747677   3.882   5.220   3.898 -3.0570 -1.2193  2.0301
18676THY    CA347678   4.099   5.427   3.840 -0.7877 -0.0426  0.0181
18676THY    HA347679   4.070   5.340   3.781  1.2506 -0.8184 -0.1681
18676THY    CA447680   4.142   5.530   3.757  0.3588  0.0264 -0.0271
18676THY    HA447681   4.161   5.510   3.653 -1.7922 -0.1156 -1.6309
18676THY    CA547682   4.184   5.647   3.816 -0.5783 -0.0902 -0.2738
18676THY    CM147683   4.228   5.766   3.728  0.1933 -0.0186 -0.0573
18676THY    HM147684   4.239   5.730   3.625 -0.8433  0.1405 -0.8915
18676THY    HM247685   4.325   5.814   3.745  0.7808 -4.2171  0.6224
18676THY    HM347686   4.150   5.842   3.718  0.5017  1.6749  0.5241
18676THY    CA647687   4.171   5.669   3.952 -0.2613 -0.3668  0.0040
18676THY    HA647688   4.183   5.767   3.997  0.9511 -2.3859  0.8420
18677THY      O47689   8.312   0.753   3.350  0.2981 -0.3983  0.5320
18677THY     HO47690   8.257   0.756   3.430  2.1915  0.9902  0.2993
18677THY    CA147691   8.253   0.652   3.271 -0.2075 -0.2183  0.3087
18677THY    CA247692   8.319   0.591   3.162 -0.8791  0.3149 -0.2450
18677THY    CP147693   8.461   0.643   3.133 -0.3803  0.0085  0.3396
18677THY    HP147694   8.513   0.674   3.225 -0.9702  0.1607  0.9024
18677THY    CP247695   8.466   0.771   3.043  0.0035  0.0273  0.4883
18677THY    HP247696   8.552   0.773   2.976  0.1464  0.2199  0.9891
18677THY    HP347697   8.490   0.846   3.120 -2.5235  0.7583  0.6602
18677THY    HP447698   8.367   0.793   3.000 -0.9593  1.9153  0.0889
18677THY    CP347699   8.558   0.524   3.069  1.0373  0.6781  0.4821
18677THY    HP547700   8.570   0.433   3.128 -2.0913  2.3092  1.0070
18677THY    HP647701   8.659   0.557   3.042  2.8109  0.0639 -4.5281
18677THY    HP747702   8.516   0.497   2.972 -0.4687  1.2998  0.5344
18677THY    CA347703   8.255   0.501   3.081  0.1555  0.4361  0.8146
18677THY    HA347704   8.293   0.463   2.987 -2.9828 -1.1613  1.2913
18677THY    CA447705   8.127   0.459   3.121  0.0806  0.5793  0.2119
18677THY    HA447706   8.073   0.386   3.062 -0.0960  0.9321  0.0512
18677THY    CA547707   8.068   0.507   3.237  0.3844  0.3365 -0.5335
18677THY    CM147708   7.928   0.456   3.279 -0.2937 -0.4919 -0.7373
18677THY    HM147709   7.841   0.497   3.226  0.0338 -0.4123  0.0818
18677THY    HM247710   7.904   0.493   3.380 -1.3856 -0.6767 -0.8968
18677THY    HM347711   7.914   0.347   3.272 -2.0173  1.6191 -0.7290
18677THY    CA647712   8.127   0.605   3.311 -0.8107 -0.1318 -0.4923
18677THY    HA647713   8.074   0.657   3.391  0.9094  0.0606  1.0719
18678THY      O47714   3.754   2.894   4.953 -0.1401 -0.1000  0.5818
18678THY     HO47715   3.831   2.840   4.928 -0.1446 -1.8366  1.3138
18678THY    CA147716   3.654   2.827   4.901 -0.7970  0.0368  0.0945
18678THY    CA247717   3.525   2.879   4.879  0.0168  0.4017 -0.1920
18678THY    CP147718   3.493   3.016   4.929  0.1623  0.0835  0.4554
18678THY    HP147719   3.581   3.072   4.963  0.8557 -1.1027  0.1144
18678THY    CP247720   3.398   3.007   5.051  0.5954 -0.0314  0.0894
18678THY    HP247721   3.306   2.949   5.040 -0.3574  1.6139  1.2031
18678THY    HP347722   3.359   3.097   5.100 -2.7806  0.9312 -1.7195
18678THY    HP447723   3.447   2.948   5.130  0.1205  0.0614 -0.1841
18678THY    CP347724   3.416   3.094   4.819  0.1250 -0.1391 -0.0485
18678THY    HP547725   3.478   3.096   4.729 -0.3549 -0.5223 -1.4440
18678THY    HP647726   3.401   3.199   4.847 -1.9917 -2.3051  0.3159
18678THY    HP747727   3.321   3.044   4.799  0.0465  3.3755 -1.6038
18678THY    CA347728   3.432   2.799   4.803 -0.3083  0.5607 -1.1817
18678THY    HA347729   3.336   2.838   4.773  1.2280 -2.1666  0.8417
18678THY    CA447730   3.466   2.672   4.762  0.2842 -0.0728 -0.2043
18678THY    HA447731   3.389   2.613   4.714  1.1767  1.1326 -2.5052
18678THY    CA547732   3.594   2.619   4.789 -0.0146  0.0682  0.1492
18678THY    CM147733   3.627   2.485   4.733  0.5465 -0.0203 -0.6611
18678THY    HM147734   3.550   2.409   4.745 -0.6697 -0.9871  0.3613
18678THY    HM247735   3.726   2.448   4.760  0.7572 -2.5773 -2.2020
18678THY    HM347736   3.627   2.504   4.625  1.2522  0.0169 -0.4160
18678THY    CA647737   3.693   2.702   4.851  0.7369 -0.5236 -0.7597
18678THY    HA647738   3.790   2.661   4.878  0.5923  0.5054 -0.4357
18679THY      O47739   5.972   1.613   7.306  0.2554  0.0939  0.2022
18679THY     HO47740   5.930   1.548   7.366  0.9178 -0.2632 -0.5779
18679THY    CA147741   6.067   1.663   7.381 -0.3614  0.2643 -0.0513
18679THY    CA247742   6.151   1.762   7.325 -0.3842 -0.1497 -0.3660
18679THY    CP147743   6.150   1.807   7.180 -0.2796  0.6265  1.1400
18679THY    HP147744   6.077   1.745   7.127  1.6451 -0.0128 -0.7306
18679THY    CP247745   6.287   1.793   7.112  0.2292 -0.7483  0.2737
18679THY    HP247746   6.329   1.692   7.125  0.1092 -0.3330  0.2749
18679THY    HP347747   6.366   1.854   7.156  2.0918 -2.0025 -1.1066
18679THY    HP447748   6.274   1.821   7.007 -1.3811 -0.3116  1.2924
18679THY    CP347749   6.098   1.947   7.150 -0.7026 -0.8775  0.0855
18679THY    HP547750   6.103   1.964   7.042  1.2455 -0.9703 -0.8554
18679THY    HP647751   6.162   2.025   7.193 -0.1587  0.1982 -0.9208
18679THY    HP747752   5.997   1.961   7.192 -0.5290  0.1446 -1.4302
18679THY    CA347753   6.235   1.835   7.413  0.6952  0.1333  0.4895
18679THY    HA347754   6.300   1.910   7.369 -2.2502 -1.1194  2.4971
18679THY    CA447755   6.228   1.816   7.562 -0.5733 -0.2559  0.2529
18679THY    HA447756   6.282   1.873   7.637  1.7303 -0.8586 -0.9691
18679THY    CA547757   6.149   1.713   7.610 -0.1536  1.1053  0.7503
18679THY    CM147758   6.127   1.715   7.755 -0.0109 -0.5485  0.3044
18679THY    HM147759   6.022   1.695   7.776 -0.1848 -0.2056  1.5482
18679THY    HM247760   6.156   1.810   7.800 -0.5855 -1.7348  1.0550
18679THY    HM347761   6.184   1.635   7.804  0.6968  0.1379  1.2121
18679THY    CA647762   6.069   1.641   7.520  0.9230 -0.6122  0.2664
18679THY    HA647763   5.997   1.575   7.567  2.1058  0.2377 -0.4544
18680THY      O47764   4.195   0.618   5.316 -0.4554 -0.9037 -0.1772
18680THY     HO47765   4.115   0.588   5.269 -0.1804 -1.4519 -0.0708
18680THY    CA147766   4.294   0.639   5.219  1.0795  0.3752  0.7051
18680THY    CA247767   4.420   0.608   5.251 -0.5178 -0.7178  0.1241
18680THY    CP147768   4.452   0.564   5.399 -0.3129  0.5063 -0.0607
18680THY    HP147769   4.370   0.499   5.431  0.1504  0.9302 -0.4473
18680THY    CP247770   4.471   0.688   5.491 -0.9389 -0.5030 -0.1533
18680THY    HP247771   4.395   0.766   5.477 -0.0492  0.3302  0.9003
18680THY    HP347772   4.564   0.745   5.477  0.0605  2.7957 -0.7985
18680THY    HP447773   4.482   0.665   5.597  2.0727 -0.1393  2.3072
18680THY    CP347774   4.572   0.476   5.404  0.0170  0.3782  0.0990
18680THY    HP547775   4.657   0.545   5.414 -0.0263  1.1483  0.0570
18680THY    HP647776   4.582   0.401   5.325  1.9455 -0.0514  0.7618
18680THY    HP747777   4.564   0.415   5.495 -0.0810 -1.6104 -3.0877
18680THY    CA347778   4.518   0.620   5.138 -0.1715 -0.4829 -0.6598
18680THY    HA347779   4.613   0.569   5.146  0.8289 -0.9850  1.0380
18680THY    CA447780   4.474   0.675   5.019  0.3616 -0.6683  0.9272
18680THY    HA447781   4.540   0.674   4.933  1.1219 -0.1151  1.8079
18680THY    CA547782   4.347   0.730   5.004 -0.4818  0.4068  0.4855
18680THY    CM147783   4.307   0.793   4.875 -0.7081 -0.1760  0.9936
18680THY    HM147784   4.201   0.776   4.853 -0.4737 -0.6040  0.0428
18680THY    HM247785   4.364   0.737   4.800 -1.5477 -0.2614  0.2342
18680THY    HM347786   4.342   0.897   4.877  0.7035 -1.7142  0.5920
18680THY    CA647787   4.251   0.701   5.096  0.1833 -0.5461  0.0703
18680THY    HA647788   4.148   0.725   5.072 -0.1888  1.5089  0.7159
18681THY      O47789   6.669   4.773   7.341  0.0550 -0.2535  0.1517
18681THY     HO47790   6.645   4.679   7.343 -1.5929  0.3734  0.5507
18681THY    CA147791   6.545   4.828   7.339 -0.2103 -0.4777 -0.2659
18681THY    CA247792   6.507   4.911   7.444  0.2759 -0.2241 -0.7005
18681THY    CP147793   6.597   4.918   7.564 -0.7938 -0.5042 -0.2990
18681THY    HP147794   6.647   4.821   7.575  1.0864  0.9262  0.7597
18681THY    CP247795   6.523   4.947   7.700  0.3474  0.1942  0.4029
18681THY    HP247796   6.433   4.885   7.705  0.1179  0.1435  0.7329
18681THY    HP347797   6.494   5.052   7.706 -2.5755 -0.7152 -0.2701
18681THY    HP447798   6.581   4.919   7.789  0.4829  0.6206  1.9254
18681THY    CP347799   6.705   5.023   7.541 -0.1657  0.2331  0.6257
18681THY    HP547800   6.783   5.018   7.618  1.6590 -1.4053  2.3071
18681THY    HP647801   6.657   5.121   7.535  0.5359 -0.5859  0.9298
18681THY    HP747802   6.753   4.999   7.446  0.5191 -0.1930  3.4269
18681THY    CA347803   6.378   4.976   7.431  0.2513 -0.8136  0.2979
18681THY    HA347804   6.338   5.042   7.507  0.3154  1.8532 -2.5105
18681THY    CA447805   6.289   4.947   7.330 -0.0123 -0.4597  0.2321
18681THY    HA447806   6.194   4.999   7.328 -0.8164 -2.1728 -1.2017
18681THY    CA547807   6.326   4.862   7.230 -0.4259  0.4665  0.8629
18681THY    CM147808   6.221   4.840   7.119 -0.1897 -0.3276 -0.1744
18681THY    HM147809   6.136   4.778   7.150  1.0432 -0.5518 -2.0529
18681THY    HM247810   6.273   4.787   7.039  1.0945  1.1200 -1.1690
18681THY    HM347811   6.185   4.937   7.084 -1.4119  0.0890 -0.4561
18681THY    CA647812   6.455   4.802   7.233 -0.5210  0.4862  0.0523
18681THY    HA647813   6.472   4.737   7.147 -3.0743  0.2444 -0.4086
18682THY      O47814   7.271   4.823   4.724 -0.0277 -0.5768 -0.1906
18682THY     HO47815   7.303   4.912   4.702 -1.2442  0.0348  0.4255
18682THY    CA147816   7.257   4.832   4.861 -0.0252  0.5247 -0.4088
18682THY    CA247817   7.238   4.722   4.946 -0.6784 -1.1009  0.1453
18682THY    CP147818   7.249   4.585   4.893 -0.0283  0.4124 -0.1794
18682THY    HP147819   7.219   4.579   4.788 -0.1226  0.3175  1.4126
18682THY    CP247820   7.139   4.493   4.959 -0.2471 -0.4333  0.2563
18682THY    HP247821   7.131   4.392   4.917 -0.3556 -0.7579  0.3980
18682THY    HP347822   7.044   4.546   4.945 -0.3873 -1.0600 -0.1459
18682THY    HP447823   7.155   4.487   5.067 -0.8110 -0.3114  0.8698
18682THY    CP347824   7.392   4.520   4.905  0.1740 -0.3218 -0.2838
18682THY    HP547825   7.388   4.417   4.867 -0.4569  0.5477 -0.5903
18682THY    HP647826   7.410   4.513   5.012  0.1714 -0.0297  2.8164
18682THY    HP747827   7.476   4.573   4.857  0.2082 -1.9921 -1.7351
18682THY    CA347828   7.225   4.750   5.089  0.6502 -0.0451 -0.0577
18682THY    HA347829   7.223   4.664   5.155  0.6216 -0.4735 -0.3884
18682THY    CA447830   7.215   4.879   5.134 -0.3580 -0.6413 -0.1202
18682THY    HA447831   7.199   4.902   5.238  0.8947 -0.6043  0.6502
18682THY    CA547832   7.239   4.982   5.045  0.5691 -0.0863 -0.4813
18682THY    CM147833   7.241   5.126   5.087  0.0226 -0.8291  0.2539
18682THY    HM147834   7.156   5.186   5.051 -1.2146  0.6588 -0.5409
18682THY    HM247835   7.339   5.166   5.057  0.7354 -0.8598 -1.4244
18682THY    HM347836   7.238   5.132   5.197  0.1551 -0.7952 -0.2971
18682THY    CA647837   7.252   4.960   4.908  0.3433  0.4461 -0.0242
18682THY    HA647838   7.257   5.048   4.844  2.1263 -0.6000 -0.8492
18683THY      O47839   8.135   1.236   3.161  0.1002 -0.7298  0.2104
18683THY     HO47840   8.206   1.186   3.204 -0.2689 -0.4093 -0.0453
18683THY    CA147841   8.183   1.263   3.042  0.8761 -0.2676 -0.3520
18683THY    CA247842   8.104   1.309   2.933 -0.3656 -0.2808 -0.9828
18683THY    CP147843   7.953   1.312   2.938  0.8314  0.7649 -0.1545
18683THY    HP147844   7.914   1.289   3.037  1.7459  1.0190 -0.6509
18683THY    CP247845   7.902   1.196   2.854  0.0508  0.8028  0.5438
18683THY    HP247846   7.797   1.208   2.825 -0.9170  3.5577 -0.5375
18683THY    HP347847   7.909   1.097   2.900 -3.0640  4.0122  1.6089
18683THY    HP447848   7.968   1.186   2.767  3.2850  3.1261 -0.0311
18683THY    CP347849   7.909   1.454   2.893  0.0504  0.0538  0.7364
18683THY    HP547850   7.802   1.467   2.914 -0.0696 -0.3357  0.4298
18683THY    HP647851   7.918   1.468   2.785  0.4208 -0.2342 -1.3683
18683THY    HP747852   7.959   1.535   2.946 -1.7540  1.3956  1.0211
18683THY    CA347853   8.171   1.342   2.810 -0.6632  0.3443 -0.6137
18683THY    HA347854   8.127   1.379   2.718 -0.0526  0.1677 -0.3217
18683THY    CA447855   8.311   1.343   2.809 -0.9289 -0.6171  0.1805
18683THY    HA447856   8.368   1.383   2.725  1.7287  1.3580  0.8061
18683THY    CA547857   8.387   1.280   2.917 -0.5049  0.1484  0.4222
18683THY    CM147858   8.537   1.266   2.899  0.4209 -0.7920 -0.2086
18683THY    HM147859   8.584   1.186   2.957 -0.1777 -1.5654 -1.1418
18683THY    HM247860   8.598   1.354   2.924  0.0772 -0.1993 -0.1310
18683THY    HM347861   8.557   1.252   2.792  2.6862 -0.2201 -1.9620
18683THY    CA647862   8.317   1.239   3.031 -0.0001  0.5936 -0.0725
18683THY    HA647863   8.377   1.207   3.116  1.0342  0.0108  0.2596
18684THY      O47864   5.704   4.911   5.970 -0.1500 -0.3405 -0.0181
18684THY     HO47865   5.778   4.949   6.021 -0.9328  0.0079  1.0941
18684THY    CA147866   5.732   4.929   5.840  0.1342  0.8652  0.0722
18684THY    CA247867   5.628   4.930   5.743  0.0234  0.5596  0.5479
18684THY    CP147868   5.481   4.892   5.773  0.3893 -0.2876 -0.1215
18684THY    HP147869   5.476   4.862   5.878  0.9308  0.5578  2.5583
18684THY    CP247870   5.447   4.772   5.689  0.6258 -0.1568  0.2289
18684THY    HP247871   5.461   4.792   5.582  1.1823 -0.5332 -1.8957
18684THY    HP347872   5.348   4.726   5.700  0.6467  0.5294  0.3334
18684THY    HP447873   5.528   4.701   5.710  0.7164 -0.1459  0.3340
18684THY    CP347874   5.381   5.010   5.752 -0.9871  0.6206  0.0609
18684THY    HP547875   5.400   5.067   5.660 -0.6939  1.7458  1.8433
18684THY    HP647876   5.392   5.089   5.826  1.5402  1.0097 -0.5690
18684THY    HP747877   5.275   4.981   5.742 -1.2006  2.3956  0.1175
18684THY    CA347878   5.665   4.979   5.617  0.5118 -0.0036 -0.0702
18684THY    HA347879   5.589   4.991   5.541  0.2834  0.3211  0.5936
18684THY    CA447880   5.793   5.012   5.587  0.5629 -0.1907  0.3687
18684THY    HA447881   5.812   5.039   5.484  0.2408 -0.4193 -0.2675
18684THY    CA547882   5.893   5.014   5.684  0.1522 -0.0703 -0.2580
18684THY    CM147883   6.032   5.063   5.654  0.4312 -0.3003  0.4618
18684THY    HM147884   6.113   4.991   5.673 -0.3688  2.6937  0.2302
18684THY    HM247885   6.050   5.154   5.711 -1.1051  1.0753 -0.0535
18684THY    HM347886   6.039   5.083   5.546 -0.9663 -0.7523 -1.1960
18684THY    CA647887   5.858   4.988   5.817 -0.1779 -0.1085 -0.5517
18684THY    HA647888   5.935   5.005   5.891 -1.3731  0.4796  3.3634
18685THY      O47889   0.629   1.502   3.383 -0.4802 -0.2763 -0.0892
18685THY     HO47890   0.574   1.518   3.461 -1.3112 -0.5664 -1.4279
18685THY    CA147891   0.762   1.511   3.420  0.0508 -0.2398  0.5206
18685THY    CA247892   0.860   1.542   3.318  0.2096 -0.3123  0.4561
18685THY    CP147893   0.828   1.555   3.168  0.0408 -0.3772 -0.4580
18685THY    HP147894   0.726   1.592   3.179  1.0540  1.6525  1.9980
18685THY    CP247895   0.836   1.424   3.095  0.6850 -0.2972  0.6961
18685THY    HP247896   0.823   1.443   2.988 -0.9667 -0.4236 -0.8862
18685THY    HP347897   0.767   1.345   3.126  1.6807 -0.6923 -0.3499
18685THY    HP447898   0.927   1.365   3.110 -0.1524 -0.9591 -0.8188
18685THY    CP347899   0.905   1.667   3.092  0.0849  0.8174 -0.3703
18685THY    HP547900   0.837   1.746   3.059  0.9213 -1.1075 -0.3986
18685THY    HP647901   0.949   1.640   2.995  1.4467  0.8611  1.4891
18685THY    HP747902   0.995   1.709   3.138  2.3258 -1.6799 -2.1100
18685THY    CA347903   0.992   1.564   3.360  0.5912 -0.1300 -0.4897
18685THY    HA347904   1.073   1.592   3.293  0.0789 -0.2319  0.8237
18685THY    CA447905   1.017   1.561   3.496  0.1443 -0.8289  0.1388
18685THY    HA447906   1.117   1.595   3.517  0.3936 -0.1271 -0.9782
18685THY    CA547907   0.913   1.540   3.590  0.3806  0.0654 -0.4093
18685THY    CM147908   0.943   1.526   3.734  0.0852  0.4433 -0.3006
18685THY    HM147909   0.848   1.542   3.786 -1.3328 -2.2830  0.7222
18685THY    HM247910   1.028   1.594   3.751 -1.2176  1.1586  1.2218
18685THY    HM347911   0.975   1.422   3.748  0.6311  1.2151 -0.0391
18685THY    CA647912   0.792   1.498   3.554  0.0420  0.3551  0.1810
18685THY    HA647913   0.726   1.453   3.627  0.8914  1.3229  0.4671
18686THY      O47914   4.734   7.071   3.291  0.2423  0.2443  0.2502
18686THY     HO47915   4.716   7.139   3.358 -1.8738  0.5523 -0.5088
18686THY    CA147916   4.698   6.952   3.347  0.5211 -0.2179 -0.4540
18686THY    CA247917   4.774   6.836   3.326  0.6327 -0.3767  0.5314
18686THY    CP147918   4.897   6.848   3.233 -0.1411  0.7950  0.1594
18686THY    HP147919   4.928   6.953   3.230  0.2594  1.6577  0.0717
18686THY    CP247920   4.860   6.802   3.089 -0.0676  0.7015  0.4426
18686THY    HP247921   4.751   6.803   3.084 -0.0586  0.2880 -0.2960
18686THY    HP347922   4.896   6.700   3.070  1.0411  0.1443  0.9193
18686THY    HP447923   4.903   6.861   3.007  1.0610  0.1744 -1.0503
18686THY    CP347924   5.019   6.769   3.277 -0.5931  0.1663 -0.2502
18686THY    HP547925   5.100   6.792   3.206 -0.1072  0.9792  0.6248
18686THY    HP647926   5.005   6.661   3.272  2.4350  0.5615 -0.7553
18686THY    HP747927   5.056   6.784   3.378  1.5992 -0.7153  0.7183
18686THY    CA347928   4.719   6.720   3.375 -0.4383 -0.1457  0.3352
18686THY    HA347929   4.766   6.624   3.354 -0.3518 -0.7004  0.4928
18686THY    CA447930   4.606   6.719   3.457  0.3515  0.1693 -0.0031
18686THY    HA447931   4.583   6.628   3.511  3.4459  0.8617 -0.4724
18686THY    CA547932   4.543   6.843   3.490 -0.5401 -0.1508  0.2055
18686THY    CM147933   4.445   6.841   3.603  0.0569 -0.2687 -0.4123
18686THY    HM147934   4.493   6.854   3.701  0.0301 -0.2652 -0.3342
18686THY    HM247935   4.377   6.755   3.601 -1.0150 -0.7735  0.4190
18686THY    HM347936   4.386   6.932   3.585 -0.2143 -2.5304 -0.9761
18686THY    CA647937   4.586   6.961   3.436 -0.5819  0.0370 -0.5252
18686THY    HA647938   4.538   7.055   3.463  0.2949  0.8586 -0.3099
18687THY      O47939   1.145   2.364   7.356 -0.8358 -0.1789 -0.3744
18687THY     HO47940   1.144   2.313   7.439 -2.2216  0.1438  0.1413
18687THY    CA147941   1.170   2.280   7.250  0.2730 -0.2429  1.0840
18687THY    CA247942   1.099   2.285   7.126  0.0792 -0.5716 -0.2335
18687THY    CP147943   1.025   2.411   7.087 -0.4977 -0.3535  0.0794
18687THY    HP147944   1.019   2.467   7.181  0.6073  0.0372 -0.4185
18687THY    CP247945   0.885   2.384   7.034 -0.2627  0.3579  0.4531
18687THY    HP247946   0.833   2.310   7.096  1.0591  0.6181 -0.2740
18687THY    HP347947   0.877   2.339   6.934 -1.8453  0.5387  0.2696
18687THY    HP447948   0.819   2.472   7.037  0.5592  1.8373  1.0464
18687THY    CP347949   1.098   2.491   6.984 -0.4166  0.5075  0.8569
18687THY    HP547950   1.128   2.435   6.895  1.1672  1.3697  0.2940
18687THY    HP647951   1.182   2.542   7.032  0.0550 -1.8482  2.4534
18687THY    HP747952   1.029   2.569   6.948 -1.9175 -0.3704 -0.7944
18687THY    CA347953   1.108   2.176   7.038 -0.5246  0.7310 -0.5985
18687THY    HA347954   1.058   2.176   6.942  0.8701 -0.0295 -0.1037
18687THY    CA447955   1.177   2.055   7.075 -0.3951  0.6563  0.4152
18687THY    HA447956   1.170   1.968   7.010 -2.2075  0.7871  0.4203
18687THY    CA547957   1.242   2.050   7.200  0.1612  0.2338 -0.0537
18687THY    CM147958   1.308   1.914   7.257 -0.2751  0.0654 -1.0332
18687THY    HM147959   1.229   1.867   7.316 -4.0520 -2.3849  1.6516
18687THY    HM247960   1.396   1.931   7.319 -0.0054 -0.2344 -1.3079
18687THY    HM347961   1.322   1.853   7.166 -4.6821 -0.4126 -1.6899
18687THY    CA647962   1.240   2.165   7.284 -0.0007 -0.3196 -0.4190
18687THY    HA647963   1.289   2.154   7.381  2.5462 -1.5340 -0.6527
18688THY      O47964   4.796   6.012   3.862  0.9319 -0.5101 -0.0151
18688THY     HO47965   4.800   6.094   3.914  1.4321 -2.8366  1.5416
18688THY    CA147966   4.805   6.060   3.740 -0.2813 -0.1818  0.2124
18688THY    CA247967   4.895   6.002   3.648  0.1367  0.4219  0.4798
18688THY    CP147968   4.985   5.886   3.673 -0.1982 -0.8843  0.3941
18688THY    HP147969   4.967   5.865   3.779  1.3300 -0.5114  0.8439
18688THY    CP247970   5.133   5.925   3.676  0.8579  0.6347  0.5942
18688THY    HP247971   5.196   5.836   3.685  0.7889  0.2591  0.5070
18688THY    HP347972   5.172   5.992   3.754  2.3389 -0.6733  1.3282
18688THY    HP447973   5.150   5.975   3.580 -1.8211 -0.1500  0.1471
18688THY    CP347974   4.953   5.760   3.589  0.8904 -0.5928 -0.1447
18688THY    HP547975   5.003   5.771   3.493  0.7578 -0.6283  0.1617
18688THY    HP647976   4.845   5.743   3.579  0.9676 -0.3687 -0.8220
18688THY    HP747977   5.010   5.675   3.629  0.5984  1.8136  0.6895
18688THY    CA347978   4.885   6.051   3.515  0.4354  0.1240  0.4417
18688THY    HA347979   4.949   6.005   3.440 -1.6940 -0.6964 -1.3570
18688THY    CA447980   4.802   6.153   3.483  0.4539 -0.0938  0.0208
18688THY    HA447981   4.800   6.201   3.385  0.8348  0.8654  2.1149
18688THY    CA547982   4.725   6.214   3.576 -0.0986 -0.2958  0.0401
18688THY    CM147983   4.643   6.332   3.532 -0.7838 -0.0314  0.2526
18688THY    HM147984   4.546   6.310   3.486 -0.6073 -0.2128 -0.1454
18688THY    HM247985   4.696   6.402   3.466 -1.1368 -1.1457 -0.5010
18688THY    HM347986   4.621   6.388   3.624  0.6623 -0.5033  1.6841
18688THY    CA647987   4.724   6.168   3.708  0.1242 -0.8541  1.0538
18688THY    HA647988   4.671   6.227   3.782 -0.4988 -0.2234 -0.2589
18689THY      O47989   6.570   7.687   2.551  0.0914  0.4251  0.9785
18689THY     HO47990   6.535   7.767   2.510 -0.9351 -1.4929 -0.3624
18689THY    CA147991   6.696   7.721   2.568  0.2123  0.1700 -0.3767
18689THY    CA247992   6.779   7.655   2.662  0.1107  0.5373 -0.7067
18689THY    CP147993   6.739   7.534   2.742 -0.1755 -0.3882  0.5160
18689THY    HP147994   6.651   7.488   2.695  0.7813  0.0093 -1.9232
18689THY    CP247995   6.711   7.576   2.888 -0.4473 -0.5215 -0.5563
18689THY    HP247996   6.661   7.491   2.937  0.5725  0.5503 -0.5577
18689THY    HP347997   6.639   7.659   2.894  0.9631 -1.0500  0.7490
18689THY    HP447998   6.796   7.608   2.949 -1.6054  1.5575 -1.2432
18689THY    CP347999   6.841   7.418   2.748 -0.2612  0.5788 -0.7226
18689THY    HP548000   6.931   7.444   2.804  1.8589 -2.8865  0.1288
18689THY    HP648001   6.876   7.392   2.647  0.4833  0.4541  0.6580
18689THY    HP748002   6.801   7.327   2.793  1.5170 -0.3194 -2.0087
18689THY    CA348003   6.910   7.710   2.674  0.0012  0.9600  0.5633
18689THY    HA348004   6.981   7.678   2.750  0.5196  1.2174  2.2378
18689THY    CA448005   6.956   7.817   2.592 -0.4728  0.2988  0.2144
18689THY    HA448006   7.060   7.842   2.608  0.3392 -2.2917 -1.1472
18689THY    CA548007   6.874   7.872   2.496 -0.1210  0.6932 -0.3801
18689THY    CM148008   6.937   7.970   2.405  0.3632 -0.1671  1.4128
18689THY    HM148009   7.044   7.943   2.405 -0.1089 -0.3040 -0.6492
18689THY    HM248010   6.930   8.068   2.452  1.1679  0.1185  1.3486
18689THY    HM348011   6.907   7.967   2.300  2.3377 -0.7764  0.3292
18689THY    CA648012   6.745   7.823   2.484  0.9041  0.5718 -0.2022
18689THY    HA648013   6.688   7.869   2.404  2.5843 -0.2672  0.5427
18690THY      O48014   5.379   7.249   2.045  0.0028 -0.3101 -0.0006
18690THY     HO48015   5.397   7.243   1.950 -0.3404 -0.4671  1.2750
18690THY    CA148016   5.359   7.379   2.077 -1.3048  0.6052  0.5546
18690THY    CA248017   5.386   7.428   2.208 -0.2990  0.3495  0.6380
18690THY    CP148018   5.420   7.338   2.323 -0.4766  0.0999 -0.7225
18690THY    HP148019   5.426   7.233   2.291 -1.9954 -0.5243 -0.6467
18690THY    CP248020   5.304   7.339   2.430 -0.2614  0.1220 -0.2727
18690THY    HP248021   5.322   7.264   2.509 -2.1309  0.5169 -0.3413
18690THY    HP348022   5.212   7.330   2.373 -0.0184 -0.1395 -1.2396
18690THY    HP448023   5.299   7.440   2.473  0.9706  0.1579 -0.2020
18690THY    CP348024   5.561   7.359   2.385 -0.3660  0.2385 -0.9208
18690THY    HP548025   5.636   7.353   2.306  0.0970  0.6215 -0.2075
18690THY    HP648026   5.572   7.284   2.464  1.1044  1.0243  0.0747
18690THY    HP748027   5.574   7.456   2.434  0.2451 -0.3765 -0.6856
18690THY    CA348028   5.369   7.570   2.235  0.3960 -0.0718 -0.1937
18690THY    HA348029   5.368   7.605   2.338 -2.2601 -0.3798  0.8333
18690THY    CA448030   5.340   7.667   2.126  0.4809  0.0742  0.4422
18690THY    HA448031   5.319   7.773   2.135  0.3909  0.7014  0.3791
18690THY    CA548032   5.316   7.608   2.001  0.1728 -0.5358 -0.5515
18690THY    CM148033   5.280   7.697   1.884 -1.0611  0.0342  0.3926
18690THY    HM148034   5.224   7.789   1.901 -0.2099 -0.1166  0.9461
18690THY    HM248035   5.224   7.641   1.808 -0.6249  0.3366 -0.4764
18690THY    HM348036   5.373   7.734   1.839  0.8432  2.7534 -0.7544
18690THY    CA648037   5.325   7.468   1.977  0.3863 -0.1535 -0.5966
18690THY    HA648038   5.293   7.438   1.879 -2.7496 -0.1437  2.1261
18691THY      O48039   0.309   0.538   2.598 -0.3642  0.0443  0.5307
18691THY     HO48040   0.328   0.456   2.647 -2.6433  0.2300  0.0465
18691THY    CA148041   0.320   0.517   2.469  0.1863 -0.3144 -0.2669
18691THY    CA248042   0.300   0.619   2.375  0.0157 -0.5975 -0.0069
18691THY    CP148043   0.260   0.758   2.431 -0.2543  0.3316 -0.1242
18691THY    HP148044   0.212   0.760   2.530  1.5768  1.2431  0.2443
18691THY    CP248045   0.150   0.813   2.339 -0.3709 -0.2354  0.2846
18691THY    HP248046   0.113   0.909   2.376  0.1146  0.5828  0.1654
18691THY    HP348047   0.067   0.741   2.347  0.6640 -1.6744 -1.1337
18691THY    HP448048   0.175   0.825   2.233 -0.7061 -0.5036 -1.2021
18691THY    CP348049   0.377   0.863   2.426  0.8862  0.1809  0.4321
18691THY    HP548050   0.346   0.964   2.456  0.0223  1.6256 -0.2323
18691THY    HP648051   0.397   0.872   2.319  0.4132  0.1324  0.9790
18691THY    HP748052   0.471   0.828   2.471 -0.0997  1.8909 -0.1566
18691THY    CA348053   0.325   0.586   2.235 -0.7748 -0.2549  0.0504
18691THY    HA348054   0.321   0.666   2.162  4.0245 -0.6515  0.1912
18691THY    CA448055   0.366   0.460   2.191  0.4580  0.2424  0.3831
18691THY    HA448056   0.371   0.447   2.083 -3.6449 -0.0850 -0.0435
18691THY    CA548057   0.390   0.366   2.290  0.0352  0.2093 -0.4434
18691THY    CM148058   0.438   0.234   2.248  0.1750  0.5422 -0.0838
18691THY    HM148059   0.360   0.174   2.200  0.6211  0.2308 -0.4231
18691THY    HM248060   0.472   0.180   2.338  1.4561  0.2011  0.1115
18691THY    HM348061   0.512   0.234   2.167  0.7634  1.0525 -0.9951
18691THY    CA648062   0.362   0.393   2.427  0.1769  0.5892 -0.5958
18691THY    HA648063   0.376   0.310   2.496  1.7638  0.8482 -0.1392
18692THY      O48064   5.545   4.340   3.843 -0.1256 -0.1154  0.2574
18692THY     HO48065   5.585   4.413   3.894  1.6136 -0.2035 -0.5716
18692THY    CA148066   5.418   4.376   3.818 -1.2717 -0.0633  0.3096
18692THY    CA248067   5.318   4.282   3.785 -0.2875 -0.0451  0.0221
18692THY    CP148068   5.347   4.129   3.783 -0.7561 -0.4220  0.0422
18692THY    HP148069   5.454   4.104   3.777 -1.0782  1.1391 -1.8879
18692THY    CP248070   5.287   4.058   3.663 -0.4720  0.6647  0.4550
18692THY    HP248071   5.186   4.096   3.643 -1.3980  0.9843 -1.7252
18692THY    HP348072   5.281   3.949   3.672 -0.3942  0.9719  0.4746
18692THY    HP448073   5.354   4.063   3.576  1.0271  1.6760 -0.8643
18692THY    CP348074   5.292   4.068   3.913  0.1531 -0.3178  0.5056
18692THY    HP548075   5.182   4.073   3.910  0.0343  0.1482 -1.2181
18692THY    HP648076   5.336   4.122   3.998  0.5388  0.0621 -0.4003
18692THY    HP748077   5.322   3.964   3.930  0.0989 -3.0102 -0.0209
18692THY    CA348078   5.189   4.335   3.761  0.3500 -0.6266 -0.3575
18692THY    HA348079   5.102   4.274   3.736 -0.3756  2.3646 -0.6951
18692THY    CA448080   5.173   4.475   3.762 -0.8013 -0.3642 -0.6361
18692THY    HA448081   5.079   4.527   3.745  0.9966  0.0935  3.0841
18692THY    CA548082   5.273   4.569   3.789  0.2647 -0.5317  0.4383
18692THY    CM148083   5.254   4.721   3.788 -0.1221 -0.0431 -0.8639
18692THY    HM148084   5.303   4.764   3.876  1.2021 -1.0150 -0.3287
18692THY    HM248085   5.150   4.752   3.800  0.4294 -0.2479  1.2073
18692THY    HM348086   5.296   4.771   3.700 -0.6132 -1.5862 -3.0055
18692THY    CA648087   5.398   4.515   3.822 -0.0986  0.5794  0.0970
18692THY    HA648088   5.480   4.586   3.832 -2.1874 -0.0207  2.7847
18693THY      O48089   4.465   8.683   3.022  0.4250  1.3271 -0.1456
18693THY     HO48090   4.501   8.762   2.980 -2.4247  2.2374  1.8129
18693THY    CA148091   4.351   8.654   2.951 -0.5090  0.3201  0.2816
18693THY    CA248092   4.254   8.552   2.987 -1.1633 -0.2149 -0.3095
18693THY    CP148093   4.274   8.472   3.109  0.2119 -0.1134 -0.0927
18693THY    HP148094   4.340   8.530   3.176 -1.4878  2.6729 -1.1756
18693THY    CP248095   4.353   8.337   3.090  0.7050  0.2811 -0.4659
18693THY    HP248096   4.297   8.271   3.023 -1.2590  0.9687  0.4433
18693THY    HP348097   4.374   8.291   3.187  0.2825  1.5276  1.8092
18693THY    HP448098   4.443   8.361   3.031  0.6198  0.6198  0.7464
18693THY    CP348099   4.150   8.447   3.194 -0.3022 -0.2316 -0.2642
18693THY    HP548100   4.098   8.541   3.217  0.8480 -1.4508  0.7050
18693THY    HP648101   4.178   8.401   3.290 -1.8298  0.8058  0.8843
18693THY    HP748102   4.080   8.379   3.144  2.5360 -2.1276 -2.0095
18693THY    CA348103   4.142   8.541   2.910 -0.4148 -0.0564 -0.8412
18693THY    HA348104   4.063   8.473   2.940 -1.8954  0.7124  1.0984
18693THY    CA448105   4.115   8.617   2.797  0.4250  0.4383 -0.7757
18693THY    HA448106   4.029   8.598   2.733  0.6703 -0.0507 -0.2823
18693THY    CA548107   4.209   8.709   2.764  0.0420  0.8294  0.5661
18693THY    CM148108   4.192   8.793   2.638 -0.5026  0.1379 -0.1101
18693THY    HM148109   4.258   8.762   2.557 -1.3844  0.2151 -2.3178
18693THY    HM248110   4.218   8.899   2.653  3.1343 -1.7995 -0.5898
18693THY    HM348111   4.090   8.805   2.600 -0.2741 -0.3302  0.4147
18693THY    CA648112   4.326   8.728   2.837  0.2851  0.7326  0.9121
18693THY    HA648113   4.383   8.816   2.807  0.3064 -0.1004  0.6227
18694THY      O48114   5.666   7.917   6.770  0.2020 -0.3167 -0.1821
18694THY     HO48115   5.698   7.878   6.853  3.0811 -0.4185  1.6099
18694THY    CA148116   5.672   8.044   6.798 -1.4848  0.0493 -0.3653
18694THY    CA248117   5.705   8.135   6.699 -0.8360  0.2725  0.2157
18694THY    CP148118   5.710   8.090   6.545  0.0564  0.3611  0.3860
18694THY    HP148119   5.731   7.983   6.533 -1.4735  1.0655 -0.0163
18694THY    CP248120   5.831   8.155   6.468  0.1480  0.3153  0.3546
18694THY    HP248121   5.925   8.121   6.514  1.9719 -1.3310  2.7718
18694THY    HP348122   5.826   8.265   6.476 -0.5586 -2.2757  0.5702
18694THY    HP448123   5.827   8.129   6.362 -2.3119  0.8710 -1.8864
18694THY    CP348124   5.572   8.121   6.480 -0.4262 -0.4340 -0.1036
18694THY    HP548125   5.580   8.227   6.453  1.0984 -0.2825 -0.1615
18694THY    HP648126   5.493   8.104   6.554  1.1933  1.9287  1.8687
18694THY    HP748127   5.552   8.052   6.398  0.1072  1.3977 -2.5856
18694THY    CA348128   5.737   8.269   6.732 -0.1467  0.8617  0.1276
18694THY    HA348129   5.746   8.343   6.654  0.3247  0.7845 -0.0059
18694THY    CA448130   5.725   8.308   6.867 -0.2850 -0.3478  0.9113
18694THY    HA448131   5.747   8.412   6.891 -0.2913  1.9538  0.4346
18694THY    CA548132   5.704   8.213   6.966 -0.8366  0.6748 -0.1260
18694THY    CM148133   5.694   8.253   7.103 -0.1250 -0.1085  0.1761
18694THY    HM148134   5.735   8.173   7.165  0.2598 -0.8893 -0.2497
18694THY    HM248135   5.589   8.261   7.133  0.0145  0.2265  0.8584
18694THY    HM348136   5.746   8.346   7.132  2.6706  0.6031 -1.4769
18694THY    CA648137   5.681   8.083   6.932 -0.1307  0.3147  0.4851
18694THY    HA648138   5.666   8.000   7.002 -1.1786 -2.2851 -1.6616
18695THY      O48139   1.502   5.618   4.134 -0.1160  0.0584  0.6320
18695THY     HO48140   1.466   5.551   4.074  0.8504  0.6273 -0.4378
18695THY    CA148141   1.420   5.633   4.240 -0.2529  0.1224  0.0437
18695THY    CA248142   1.451   5.701   4.358 -0.5732  0.3256  0.4556
18695THY    CP148143   1.596   5.750   4.394  0.3748 -0.3064  0.0637
18695THY    HP148144   1.673   5.702   4.331  2.3332  2.4134 -0.6484
18695THY    CP248145   1.636   5.719   4.541  0.3021  0.4522  0.1162
18695THY    HP248146   1.745   5.732   4.548  0.7086 -4.4105  1.1567
18695THY    HP348147   1.620   5.615   4.571  2.0204  0.9775 -0.0424
18695THY    HP448148   1.606   5.797   4.613 -1.4244  0.3531 -0.4274
18695THY    CP348149   1.631   5.904   4.351 -0.2100 -0.0938 -0.0754
18695THY    HP548150   1.739   5.924   4.359 -0.4715  0.2694  1.2635
18695THY    HP648151   1.571   5.973   4.412  0.9286 -1.6127  2.3821
18695THY    HP748152   1.610   5.918   4.245  2.9006 -0.8292 -0.1424
18695THY    CA348153   1.350   5.714   4.457  0.6144  0.3226 -0.2724
18695THY    HA348154   1.381   5.769   4.545 -1.0303  1.1568 -0.6303
18695THY    CA448155   1.223   5.665   4.440 -0.2443 -1.6790 -1.5620
18695THY    HA448156   1.150   5.678   4.520  2.1223  0.4940 -0.5358
18695THY    CA548157   1.189   5.599   4.319 -0.4528 -0.1451 -0.5072
18695THY    CM148158   1.054   5.554   4.301  0.3360 -0.2175  0.0120
18695THY    HM148159   0.978   5.629   4.323 -0.6184 -1.9402 -0.3913
18695THY    HM248160   1.049   5.466   4.365 -0.9119 -0.0539  0.1873
18695THY    HM348161   1.038   5.516   4.199  0.3431 -0.8646  1.6551
18695THY    CA648162   1.291   5.588   4.224 -0.5119 -0.1004 -0.3638
18695THY    HA648163   1.259   5.542   4.131 -3.3336 -0.1022  1.3734
18696THY      O48164   8.466   3.962   5.532  0.2015  0.3152  0.1409
18696THY     HO48165   8.437   4.024   5.600 -0.1618  0.3305 -0.0475
18696THY    CA148166   8.362   3.937   5.452  0.3183 -0.9016 -0.7196
18696THY    CA248167   8.319   3.813   5.397 -0.4460  0.2897 -0.5505
18696THY    CP148168   8.396   3.682   5.438 -0.6147 -0.1975 -0.4282
18696THY    HP148169   8.504   3.697   5.450 -0.3306 -0.0318 -2.2998
18696THY    CP248170   8.394   3.573   5.333 -0.1660 -0.2579 -0.1219
18696THY    HP248171   8.481   3.510   5.355 -0.4249  1.2735  0.0016
18696THY    HP348172   8.403   3.611   5.231 -0.9741 -0.9539 -1.7245
18696THY    HP448173   8.315   3.498   5.340 -0.4757 -2.1872 -0.0211
18696THY    CP348174   8.352   3.621   5.570 -0.5857 -0.7753 -0.5239
18696THY    HP548175   8.415   3.541   5.610 -0.8565  1.3162  0.2206
18696THY    HP648176   8.251   3.579   5.559 -0.2148 -0.8590 -1.4135
18696THY    HP748177   8.349   3.690   5.655 -1.6900  0.0557 -1.5497
18696THY    CA348178   8.204   3.812   5.314 -0.3373  0.1504 -0.5351
18696THY    HA348179   8.169   3.717   5.275  0.3958  1.0242 -1.1834
18696THY    CA448180   8.141   3.937   5.279 -0.0523  0.1380 -0.3423
18696THY    HA448181   8.060   3.943   5.207  0.9170 -0.8465  2.4802
18696THY    CA548182   8.197   4.059   5.323  0.1418  0.0297 -0.0979
18696THY    CM148183   8.132   4.192   5.293 -0.3115 -0.3666 -0.1747
18696THY    HM148184   8.027   4.192   5.326 -0.8422 -2.0033 -0.0886
18696THY    HM248185   8.134   4.209   5.185  1.7642 -0.4933 -0.9715
18696THY    HM348186   8.188   4.274   5.339 -1.0059  0.0312  0.0871
18696THY    CA648187   8.308   4.050   5.408 -0.9949  0.2589 -0.3497
18696THY    HA648188   8.352   4.145   5.439 -0.5186 -0.8124 -0.2014
18697THY      O48189   4.885   0.971   7.296  0.3910 -0.9255  1.1440
18697THY     HO48190   4.923   0.887   7.268 -0.3505 -1.1178  0.8627
18697THY    CA148191   4.970   1.019   7.390  0.1246 -0.2982 -0.3843
18697THY    CA248192   4.948   1.148   7.438  0.7079 -0.6413  0.1232
18697THY    CP148193   4.844   1.248   7.369  0.0207  0.2011  0.2631
18697THY    HP148194   4.775   1.190   7.307 -1.2503  1.7153  0.0950
18697THY    CP248195   4.923   1.350   7.282  0.4945 -0.3087  0.1004
18697THY    HP248196   5.007   1.312   7.223  1.4081  0.9573  0.0866
18697THY    HP348197   4.952   1.438   7.340 -1.0271 -0.2622  0.5921
18697THY    HP448198   4.857   1.383   7.201  0.5232 -0.0541  0.7907
18697THY    CP348199   4.761   1.328   7.472 -0.2834 -0.5856 -0.8931
18697THY    HP548200   4.736   1.420   7.418 -0.4942 -3.2885 -2.4535
18697THY    HP648201   4.813   1.355   7.566  1.5029 -2.0202  0.9968
18697THY    HP748202   4.664   1.283   7.496 -1.6370  1.1836  2.5882
18697THY    CA348203   5.046   1.199   7.527 -0.3554 -0.3899  0.0424
18697THY    HA348204   5.028   1.297   7.572 -0.6134  2.7074 -1.3050
18697THY    CA448205   5.148   1.115   7.577  0.5567 -0.1674 -0.7295
18697THY    HA448206   5.215   1.154   7.652  0.0784 -0.6029  1.0336
18697THY    CA548207   5.160   0.986   7.523 -0.0609  0.3526  0.1300
18697THY    CM148208   5.278   0.909   7.571 -0.6779 -0.1827 -0.1646
18697THY    HM148209   5.255   0.870   7.671 -0.3699 -0.0794 -0.0870
18697THY    HM248210   5.375   0.959   7.578 -0.0441 -2.8258 -0.8537
18697THY    HM348211   5.288   0.814   7.517 -1.8233 -0.6646 -0.0241
18697THY    CA648212   5.069   0.938   7.432 -0.1071  0.0388  0.0851
18697THY    HA648213   5.081   0.838   7.392 -0.8789  2.4195 -1.0323
18698THY      O48214   2.514   3.963   4.860 -0.5260 -0.4378 -0.4291
18698THY     HO48215   2.502   3.995   4.951 -1.3883 -0.5491 -0.4108
18698THY    CA148216   2.501   4.070   4.775 -0.3755  0.2295 -0.0008
18698THY    CA248217   2.533   4.045   4.640 -0.5529  0.4167 -0.1259
18698THY    CP148218   2.557   3.902   4.588 -0.1819  0.0885  0.2528
18698THY    HP148219   2.518   3.835   4.666  3.0224  2.1305  0.5311
18698THY    CP248220   2.703   3.892   4.556 -0.3550 -0.7140 -0.0988
18698THY    HP248221   2.727   3.787   4.533  1.2298  2.3993 -0.5457
18698THY    HP348222   2.767   3.915   4.642  1.1716 -0.7371 -3.6280
18698THY    HP448223   2.730   3.962   4.477  0.6889  1.2627  1.8620
18698THY    CP348224   2.472   3.873   4.455 -0.1776 -0.5842  0.0864
18698THY    HP548225   2.466   3.765   4.433 -1.3441  0.3092 -0.0484
18698THY    HP648226   2.497   3.934   4.368  2.5298  1.3494  1.9663
18698THY    HP748227   2.368   3.894   4.480 -0.3266 -0.6049 -0.6037
18698THY    CA348228   2.529   4.151   4.552 -0.3025  0.5557  0.3439
18698THY    HA348229   2.536   4.141   4.444 -0.5088  0.7057 -1.7862
18698THY    CA448230   2.494   4.281   4.600  0.3644  0.2120  0.1627
18698THY    HA448231   2.481   4.372   4.542 -0.0303 -0.7916 -0.5209
18698THY    CA548232   2.484   4.303   4.740 -0.2493 -0.3656  0.4176
18698THY    CM148233   2.444   4.444   4.789  0.5339  0.1773 -0.3353
18698THY    HM148234   2.500   4.522   4.736 -0.4292 -0.3475  0.0109
18698THY    HM248235   2.466   4.454   4.896 -0.1790  0.4020 -1.0930
18698THY    HM348236   2.341   4.473   4.768  1.0939 -1.5224  0.5695
18698THY    CA648237   2.485   4.193   4.830  0.5196 -0.4837 -1.1037
18698THY    HA648238   2.462   4.208   4.935 -0.4907 -0.0281 -4.8158
18699THY      O48239   0.469   5.982   5.819 -0.2745  0.0779 -0.5958
18699THY     HO48240   0.449   5.964   5.912 -0.2113  0.6810  1.9692
18699THY    CA148241   0.388   6.079   5.776  0.7080 -0.4458 -0.1274
18699THY    CA248242   0.371   6.104   5.642  0.1495  0.3041 -0.5377
18699THY    CP148243   0.440   6.017   5.534  0.1441 -0.5943 -0.0392
18699THY    HP148244   0.536   5.986   5.578  0.1403 -0.0801  0.6733
18699THY    CP248245   0.465   6.089   5.403  0.1993 -0.2346  0.0346
18699THY    HP248246   0.527   6.178   5.422  0.2628  2.9935 -0.5775
18699THY    HP348247   0.372   6.116   5.352 -0.9573  2.3235  1.2082
18699THY    HP448248   0.525   6.034   5.330 -1.7287 -0.8735 -1.3181
18699THY    CP348249   0.357   5.897   5.497 -0.0697  0.6335  0.8612
18699THY    HP548250   0.264   5.935   5.453  1.1649 -0.3475  2.8841
18699THY    HP648251   0.331   5.850   5.593 -0.9143  0.2941  0.6098
18699THY    HP748252   0.396   5.822   5.427 -2.5868 -1.3332  1.2733
18699THY    CA348253   0.281   6.205   5.604 -0.1677 -0.1013 -0.6278
18699THY    HA348254   0.269   6.222   5.497  1.9044 -0.6281 -2.0263
18699THY    CA448255   0.217   6.285   5.709  0.2676  0.1032  0.6845
18699THY    HA448256   0.135   6.352   5.682 -1.4997 -1.9325 -2.0407
18699THY    CA548257   0.234   6.245   5.841  1.1368 -0.0966 -0.5128
18699THY    CM148258   0.149   6.304   5.949 -0.1778  0.1659 -0.5589
18699THY    HM148259   0.069   6.372   5.918  2.1248  2.2019  3.5005
18699THY    HM248260   0.209   6.363   6.020  0.1008 -0.4654 -0.0638
18699THY    HM348261   0.097   6.221   5.998  0.1681 -0.4549 -1.1535
18699THY    CA648262   0.318   6.141   5.878  0.2485  0.4381 -0.5604
18699THY    HA648263   0.333   6.120   5.984  2.7129 -0.0204 -1.3761
18700THY      O48264   0.491   5.885   2.641 -0.6280 -0.3032  0.5412
18700THY     HO48265   0.478   5.926   2.554 -0.3944  0.2469  1.8505
18700THY    CA148266   0.605   5.937   2.689  0.3961 -0.1435 -0.4297
18700THY    CA248267   0.681   5.881   2.796  0.0472  0.1659 -0.2147
18700THY    CP148268   0.653   5.746   2.858  0.0091  0.3239 -0.4375
18700THY    HP148269   0.574   5.694   2.804  0.4000 -0.7646  0.0790
18700THY    CP248270   0.609   5.765   3.008 -0.1222  0.8687 -0.3777
18700THY    HP248271   0.660   5.856   3.042 -2.1329  1.1497  0.7038
18700THY    HP348272   0.639   5.679   3.069  2.8717 -0.0593 -0.0806
18700THY    HP448273   0.504   5.796   3.018  0.3344  0.1783  1.5288
18700THY    CP348274   0.777   5.662   2.846  0.1837  0.4684 -0.0285
18700THY    HP548275   0.751   5.562   2.884 -0.8781  1.8031  0.7234
18700THY    HP648276   0.862   5.704   2.900  0.3335  0.0276  0.2441
18700THY    HP748277   0.808   5.636   2.743 -0.0939  0.1489  0.8808
18700THY    CA348278   0.785   5.957   2.848 -0.2246  0.0368  0.1875
18700THY    HA348279   0.838   5.912   2.931  1.5618 -1.1442 -0.0008
18700THY    CA448280   0.810   6.086   2.796  0.7212 -0.2152  0.0665
18700THY    HA448281   0.888   6.150   2.836 -0.2625 -0.0510  1.2217
18700THY    CA548282   0.745   6.141   2.681  0.0824  0.1461 -0.0046
18700THY    CM148283   0.779   6.268   2.618 -0.2912 -0.2827  0.7187
18700THY    HM148284   0.755   6.348   2.688 -3.6443  1.8563 -1.9056
18700THY    HM248285   0.725   6.287   2.524 -1.6961  0.6114  1.2771
18700THY    HM348286   0.885   6.269   2.589  0.6943  3.0150  1.6792
18700THY    CA648287   0.634   6.064   2.637  0.6580  0.1842  0.1431
18700THY    HA648288   0.571   6.094   2.554 -0.9978  1.9099  1.6674
18701THY      O48289   2.027   3.564   3.994 -0.4341 -0.0731  0.2812
18701THY     HO48290   2.031   3.477   3.951  1.0962  0.0100  0.2764
18701THY    CA148291   2.153   3.598   4.031  0.1801  0.8913  0.1449
18701THY    CA248292   2.183   3.682   4.141  0.0958 -0.0937 -0.4959
18701THY    CP148293   2.076   3.728   4.238 -0.2897  0.2030  0.1765
18701THY    HP148294   1.979   3.679   4.226 -1.0293  2.4251  0.9824
18701THY    CP248295   2.060   3.881   4.239 -0.2668 -0.3882  0.9231
18701THY    HP248296   1.966   3.904   4.290 -0.7467  0.3916 -2.3619
18701THY    HP348297   2.039   3.913   4.136  0.6033 -0.5055  1.1418
18701THY    HP448298   2.151   3.940   4.256  0.3851  0.9012 -0.3737
18701THY    CP348299   2.115   3.686   4.387  0.2843  0.2148  0.2019
18701THY    HP548300   2.202   3.736   4.432 -1.1725  1.6535  1.5710
18701THY    HP648301   2.131   3.579   4.398 -0.8983 -0.3626 -0.0429
18701THY    HP748302   2.032   3.719   4.449 -1.1859 -1.0536 -0.9738
18701THY    CA348303   2.316   3.728   4.151  0.2121  0.5891 -0.0777
18701THY    HA348304   2.339   3.794   4.235  1.2528  1.4060 -1.4171
18701THY    CA448305   2.413   3.686   4.063 -0.1785 -0.7002  0.1175
18701THY    HA448306   2.512   3.729   4.076 -0.7866  0.0451  1.3683
18701THY    CA548307   2.381   3.595   3.968 -0.1075  0.6049 -0.0518
18701THY    CM148308   2.487   3.547   3.870 -0.0768  0.7845 -0.1256
18701THY    HM148309   2.588   3.573   3.905  0.6672 -0.2227 -1.5012
18701THY    HM248310   2.473   3.579   3.767 -0.0310  0.2422 -1.7737
18701THY    HM348311   2.488   3.437   3.874 -1.2802  1.9456 -0.1205
18701THY    CA648312   2.251   3.554   3.948 -0.3509  0.1425 -0.2274
18701THY    HA648313   2.223   3.482   3.871 -1.7262  0.2882  0.1205
18702THY      O48314   5.598   5.780   5.928  0.7008 -0.2278 -0.0512
18702THY     HO48315   5.683   5.816   5.898  0.2413 -0.7425  0.6503
18702THY    CA148316   5.617   5.653   5.895 -0.2740 -0.5641  0.4538
18702THY    CA248317   5.516   5.557   5.891  0.1517  0.6101  0.6182
18702THY    CP148318   5.370   5.607   5.885 -0.2562  0.4256 -0.1880
18702THY    HP148319   5.363   5.702   5.939  1.5536 -0.8176  0.7154
18702THY    CP248320   5.269   5.515   5.966 -0.1188 -0.2303  0.5581
18702THY    HP248321   5.249   5.417   5.921  2.0698  0.1081 -0.1042
18702THY    HP348322   5.172   5.565   5.981 -0.5428  3.3601 -1.1035
18702THY    HP448323   5.303   5.491   6.067 -1.0801  0.3005  1.3271
18702THY    CP348324   5.317   5.625   5.740 -0.0034 -0.4265  0.2530
18702THY    HP548325   5.363   5.704   5.681 -1.3178 -3.8318 -1.2983
18702THY    HP648326   5.209   5.639   5.729  0.0989 -1.5369  0.1914
18702THY    HP748327   5.331   5.534   5.680 -1.2446  1.8134 -1.5376
18702THY    CA348328   5.553   5.420   5.876 -0.7798 -0.2547  0.1825
18702THY    HA348329   5.476   5.344   5.862 -1.0020  2.2659 -0.1325
18702THY    CA448330   5.694   5.381   5.856  0.8316  0.2217 -0.4097
18702THY    HA448331   5.728   5.278   5.853  1.7925 -0.2823 -0.0950
18702THY    CA548332   5.791   5.487   5.852 -0.4418 -0.5491 -0.1775
18702THY    CM148333   5.936   5.464   5.822 -0.9921  0.4105 -0.0095
18702THY    HM148334   6.005   5.534   5.871  0.2446  0.8177 -1.4574
18702THY    HM248335   5.957   5.482   5.716 -2.2100  0.4557  1.9983
18702THY    HM348336   5.968   5.361   5.839  0.4638 -0.3536  0.2976
18702THY    CA648337   5.749   5.621   5.863 -0.3863 -0.4458  0.2717
18702THY    HA648338   5.819   5.703   5.856 -1.3857  1.9047  1.4487
18703THY      O48339   9.032   6.055   2.868  0.3744  0.2077 -0.6855
18703THY     HO48340   9.102   6.117   2.895 -2.3890 -0.0853  2.9032
18703THY    CA148341   8.985   6.110   2.757 -0.1163 -0.7569  0.6510
18703THY    CA248342   8.872   6.058   2.695  0.3986 -0.4713 -0.2565
18703THY    CP148343   8.810   5.930   2.756  0.2238  0.1010 -0.5053
18703THY    HP148344   8.826   5.929   2.865  1.5207 -0.0267  1.4551
18703THY    CP248345   8.870   5.806   2.692 -0.1310  0.5006  0.2824
18703THY    HP248346   8.979   5.805   2.680 -0.2756 -3.3759 -3.9771
18703THY    HP348347   8.831   5.786   2.591  1.1682  0.3657 -1.7482
18703THY    HP448348   8.848   5.714   2.748 -1.2082 -2.4155 -1.3783
18703THY    CP348349   8.658   5.917   2.740  0.0043  0.3139 -0.7873
18703THY    HP548350   8.637   5.917   2.632  0.9292  0.1205 -0.2731
18703THY    HP648351   8.598   5.990   2.796  1.7217  1.4138 -0.1580
18703THY    HP748352   8.626   5.816   2.770  2.4277 -0.1292 -1.7638
18703THY    CA348353   8.837   6.105   2.567  0.0944 -0.1560 -0.4662
18703THY    HA348354   8.756   6.051   2.517 -0.0243 -0.5712  0.0871
18703THY    CA448355   8.905   6.210   2.510 -0.7085 -0.0808 -0.4104
18703THY    HA448356   8.882   6.258   2.415 -0.1214 -0.2759 -0.5026
18703THY    CA548357   9.013   6.266   2.579 -0.5606  0.9216 -0.1905
18703THY    CM148358   9.102   6.368   2.518 -0.3040 -0.5007 -0.4299
18703THY    HM148359   9.048   6.461   2.501  1.7143  0.5618  1.0026
18703THY    HM248360   9.147   6.329   2.426  1.7259  1.0031 -1.8446
18703THY    HM348361   9.189   6.391   2.580  0.2208  0.2132 -3.7653
18703THY    CA648362   9.046   6.217   2.701  0.0931 -0.3253 -0.3690
18703THY    HA648363   9.135   6.257   2.748 -1.6928  1.7770  1.4702
18704THY      O48364   7.577   8.316   6.688  0.2153 -0.7271  0.5191
18704THY     HO48365   7.498   8.372   6.701 -0.0089 -0.7160  0.2023
18704THY    CA148366   7.664   8.366   6.784  0.7221 -0.3249 -0.3105
18704THY    CA248367   7.772   8.292   6.832 -0.3172 -1.0078 -0.8897
18704THY    CP148368   7.798   8.153   6.772  0.4254 -0.3316 -0.4081
18704THY    HP148369   7.761   8.133   6.671  1.3526 -0.6578 -0.5088
18704THY    CP248370   7.727   8.057   6.864 -1.1873 -0.2810 -0.6795
18704THY    HP248371   7.724   7.952   6.831 -0.5607 -1.9990 -0.1883
18704THY    HP348372   7.622   8.088   6.875 -1.3631  0.8725 -1.5995
18704THY    HP448373   7.766   8.057   6.966  0.9328 -1.0474 -1.4808
18704THY    CP348374   7.947   8.111   6.764  0.6062 -0.2854 -0.8097
18704THY    HP548375   8.001   8.170   6.689  2.2795  0.8130 -0.8845
18704THY    HP648376   7.952   8.008   6.728  0.7680  0.8395 -1.2100
18704THY    HP748377   8.000   8.116   6.859  0.6452 -0.2834 -1.2664
18704THY    CA348378   7.843   8.346   6.934 -0.4845 -0.2817  0.5645
18704THY    HA348379   7.920   8.289   6.984 -1.9617  0.7833 -0.5958
18704THY    CA448380   7.814   8.469   6.986  0.3990 -0.6627 -0.0374
18704THY    HA448381   7.871   8.506   7.071  0.9761 -0.7700 -0.6721
18704THY    CA548382   7.705   8.545   6.936 -0.2167  0.0307 -0.1529
18704THY    CM148383   7.674   8.676   6.989 -0.8866 -0.3164  0.3051
18704THY    HM148384   7.743   8.701   7.071 -0.3813 -0.1658 -1.4907
18704THY    HM248385   7.580   8.680   7.045 -1.0982 -0.5907 -0.6766
18704THY    HM348386   7.659   8.750   6.910 -2.8400 -1.6762 -1.4328
18704THY    CA648387   7.637   8.491   6.832 -0.4541  0.7484  0.3366
18704THY    HA648388   7.554   8.552   6.796 -0.5639  1.2860  0.5034
18705THY      O48389   5.787   3.856   2.717  0.3630  0.4374  1.0958
18705THY     HO48390   5.866   3.911   2.733  1.4863 -0.0869 -0.3052
18705THY    CA148391   5.802   3.767   2.610 -0.0571 -0.3564  0.3669
18705THY    CA248392   5.705   3.664   2.587  0.2401 -0.3511 -0.3557
18705THY    CP148393   5.569   3.656   2.660  0.1120  0.1834  0.2507
18705THY    HP148394   5.558   3.732   2.738 -0.3313  0.1824  0.1926
18705THY    CP248395   5.566   3.523   2.743 -0.0822 -0.3869  0.1728
18705THY    HP248396   5.644   3.508   2.819  0.1126 -0.5448  0.3694
18705THY    HP348397   5.571   3.438   2.673  0.3789  0.1846 -0.2759
18705THY    HP448398   5.474   3.522   2.802  0.0745 -0.1396  0.3197
18705THY    CP348399   5.461   3.672   2.547 -0.2930 -1.3525 -0.8650
18705THY    HP548400   5.364   3.659   2.596  0.3756  0.5147  0.6338
18705THY    HP648401   5.476   3.597   2.468  1.5375 -2.4276  0.5323
18705THY    HP748402   5.466   3.770   2.496  0.5170  0.6308  0.1837
18705THY    CA348403   5.737   3.569   2.490 -0.2041  0.0092 -0.2925
18705THY    HA348404   5.660   3.500   2.458 -1.7940  2.1800  0.3423
18705THY    CA448405   5.847   3.581   2.412 -0.2949  0.1827  0.2320
18705THY    HA448406   5.864   3.515   2.328  0.7633 -0.7359  1.5944
18705THY    CA548407   5.938   3.680   2.438  0.0513 -0.0236  0.3174
18705THY    CM148408   6.059   3.696   2.347  0.0308 -0.7532 -0.2434
18705THY    HM148409   6.142   3.733   2.408  0.2553  0.6693 -2.8459
18705THY    HM248410   6.043   3.772   2.269 -0.3219  1.3355  1.9596
18705THY    HM348411   6.086   3.603   2.296 -1.9818 -2.5527  0.0974
18705THY    CA648412   5.919   3.770   2.541 -0.1334  0.9613  0.6916
18705THY    HA648413   5.988   3.851   2.561  0.7232 -0.1270  0.2538
18706THY      O48414   4.001   3.420   2.227 -0.2093 -0.2666  0.0506
18706THY     HO48415   4.017   3.329   2.255  2.2863 -2.3475 -0.3042
18706THY    CA148416   4.084   3.498   2.306  0.9903 -0.2632  0.4067
18706THY    CA248417   4.073   3.640   2.302 -0.7978  0.6092 -0.0386
18706THY    CP148418   3.991   3.702   2.186 -0.7396  0.3481 -0.5100
18706THY    HP148419   4.008   3.641   2.097  0.9250  0.4879 -0.3010
18706THY    CP248420   4.043   3.845   2.146  0.3340  0.0738  0.4404
18706THY    HP248421   3.987   3.863   2.054 -0.8302  0.3568 -1.4989
18706THY    HP348422   4.149   3.845   2.117  0.3182  0.0162  0.4944
18706THY    HP448423   4.027   3.918   2.226  0.3373  1.3168 -0.8761
18706THY    CP348424   3.840   3.716   2.217 -1.0067  0.6426 -0.7659
18706THY    HP548425   3.784   3.755   2.131  0.3154  0.8578  1.8191
18706THY    HP648426   3.839   3.778   2.307  0.3905 -0.3262  0.7627
18706THY    HP748427   3.814   3.614   2.248  3.0497  1.9757 -1.6004
18706THY    CA348428   4.137   3.709   2.407  0.3134  0.1902  0.4943
18706THY    HA348429   4.131   3.817   2.415 -0.9627  0.7988  0.3950
18706THY    CA448430   4.208   3.635   2.502 -0.2145 -0.0906 -0.2140
18706THY    HA448431   4.261   3.692   2.578 -1.0112  1.3753 -1.3931
18706THY    CA548432   4.224   3.498   2.497  0.2746 -0.6582  0.5393
18706THY    CM148433   4.295   3.418   2.596 -0.0570  0.2929 -0.5322
18706THY    HM148434   4.388   3.472   2.618  1.1829 -1.6946 -1.7498
18706THY    HM248435   4.320   3.316   2.564 -2.2193  0.2248 -1.1022
18706THY    HM348436   4.241   3.424   2.691  1.2841  1.0025  2.3319
18706THY    CA648437   4.156   3.424   2.403 -0.8755  0.2049 -0.4554
18706THY    HA648438   4.165   3.315   2.401 -1.4097  0.4590 -0.5078
18707THY      O48439   4.577   5.351   3.202  0.9673 -0.2508  0.0060
18707THY     HO48440   4.642   5.355   3.274  1.8900 -0.9899 -1.0465
18707THY    CA148441   4.636   5.402   3.091  0.3930 -0.2401  0.6283
18707THY    CA248442   4.563   5.402   2.966 -0.5620 -0.7119 -0.0168
18707THY    CP148443   4.418   5.355   2.962  0.4718  0.2690  0.0337
18707THY    HP148444   4.383   5.300   3.050 -1.3424 -0.5115 -0.1429
18707THY    CP248445   4.415   5.243   2.850  0.3219 -0.1681 -0.3598
18707THY    HP248446   4.387   5.296   2.758 -1.1466  0.3277 -0.2405
18707THY    HP348447   4.327   5.181   2.868  0.1501 -1.5949 -0.5708
18707THY    HP448448   4.503   5.180   2.833  0.4036 -1.2707  0.0245
18707THY    CP348449   4.314   5.470   2.945 -0.2544  0.0067 -0.3311
18707THY    HP548450   4.328   5.551   3.018  1.0110  0.2049 -0.7071
18707THY    HP648451   4.206   5.453   2.947 -0.6824  2.3465  1.9881
18707THY    HP748452   4.332   5.525   2.851 -3.9846  0.0752  1.3465
18707THY    CA348453   4.631   5.440   2.854 -0.1164  0.6272 -0.2411
18707THY    HA348454   4.589   5.438   2.754  0.2092  0.4818 -0.0464
18707THY    CA448455   4.763   5.481   2.861 -0.8889 -0.1751  0.2376
18707THY    HA448456   4.811   5.528   2.776 -1.2351 -1.3337 -1.4141
18707THY    CA548457   4.826   5.479   2.979 -0.6027  0.1274  0.1742
18707THY    CM148458   4.971   5.515   2.974  0.4036  0.4701  0.7246
18707THY    HM148459   4.999   5.589   2.899 -1.4444 -1.7591 -0.7189
18707THY    HM248460   5.028   5.422   2.958  0.2667  0.6134  0.6146
18707THY    HM348461   5.008   5.554   3.070 -0.1655  1.2044 -0.4672
18707THY    CA648462   4.766   5.441   3.099  0.4778 -0.1211 -0.3640
18707THY    HA648463   4.823   5.425   3.190  0.8906 -0.2693  0.2451
18708THY      O48464   8.804   0.647   6.976 -0.9866  0.1280 -0.1550
18708THY     HO48465   8.727   0.692   7.015 -0.8207  2.3566 -1.6264
18708THY    CA148466   8.755   0.545   6.898 -0.0464  0.5524 -0.6673
18708THY    CA248467   8.790   0.539   6.762 -0.2271 -0.4217  0.4431
18708THY    CP148468   8.907   0.629   6.708  0.5188 -0.0179  0.0704
18708THY    HP148469   8.930   0.712   6.775 -1.8635  1.5133 -0.3968
18708THY    CP248470   8.859   0.693   6.574 -0.0276 -0.0518  0.0260
18708THY    HP248471   8.925   0.780   6.562  0.7445  2.4613 -0.1307
18708THY    HP348472   8.758   0.734   6.581  0.6112  0.0320  1.6508
18708THY    HP448473   8.868   0.616   6.496  0.8013  0.9146 -0.8957
18708THY    CP348474   9.045   0.556   6.690  0.6819  0.1556  0.6084
18708THY    HP548475   9.085   0.498   6.773  0.7504 -1.3214 -1.5718
18708THY    HP648476   9.117   0.637   6.671 -0.1550 -1.4526  1.0174
18708THY    HP748477   9.022   0.487   6.608 -0.7675  2.1970 -1.4313
18708THY    CA348478   8.724   0.440   6.679 -0.0448  0.0946  0.0993
18708THY    HA348479   8.751   0.418   6.576  0.5411  0.5080 -1.2359
18708THY    CA448480   8.618   0.360   6.733 -0.1850 -0.0380 -0.5187
18708THY    HA448481   8.573   0.277   6.680 -0.8700  0.4976 -0.4998
18708THY    CA548482   8.575   0.391   6.867  0.2990  0.4510 -0.3174
18708THY    CM148483   8.461   0.307   6.923  0.2284 -0.0539  0.8127
18708THY    HM148484   8.446   0.314   7.031 -1.7289 -0.1387 -0.8981
18708THY    HM248485   8.480   0.203   6.891  0.9399  2.0735  0.2439
18708THY    HM348486   8.372   0.336   6.866 -0.8387  0.7125 -0.7969
18708THY    CA648487   8.650   0.472   6.946  0.6005 -0.6204 -0.3311
18708THY    HA648488   8.615   0.485   7.048 -0.6758 -1.2577  1.7204
18709THY      O48489   5.788   2.261   6.452 -0.1129  0.1675  0.0621
18709THY     HO48490   5.760   2.177   6.492  1.4530 -0.4863 -0.8000
18709THY    CA148491   5.780   2.351   6.549 -0.4877 -0.4293  0.3568
18709THY    CA248492   5.810   2.494   6.530 -0.6050  0.2043  0.7567
18709THY    CP148493   5.858   2.542   6.388  0.8764 -0.0551  0.3095
18709THY    HP148494   5.887   2.451   6.335  0.9035  0.7240 -0.1388
18709THY    CP248495   5.962   2.651   6.388 -0.2970  0.9122  0.1240
18709THY    HP248496   5.983   2.660   6.281 -1.3662  0.6262 -0.5120
18709THY    HP348497   6.049   2.612   6.441 -0.3662  2.8513  2.4208
18709THY    HP448498   5.930   2.751   6.417  0.4971 -2.9638  1.6713
18709THY    CP348499   5.733   2.602   6.320 -0.1700  0.6770 -0.2755
18709THY    HP548500   5.707   2.699   6.364  0.8541 -1.1479  0.8963
18709THY    HP648501   5.655   2.525   6.319 -0.0381  1.8826 -0.4324
18709THY    HP748502   5.754   2.630   6.216  1.7257  0.0454 -3.4944
18709THY    CA348503   5.801   2.588   6.643  0.3075  0.1639  1.0595
18709THY    HA348504   5.805   2.696   6.634  0.3407  3.4519  1.4318
18709THY    CA448505   5.770   2.537   6.769 -0.3209 -0.1545  0.6171
18709THY    HA448506   5.765   2.601   6.857  2.9155  0.9807 -0.4775
18709THY    CA548507   5.762   2.398   6.785  0.7821  0.0861 -0.1656
18709THY    CM148508   5.726   2.345   6.923  0.2109  0.6054 -0.3077
18709THY    HM148509   5.762   2.243   6.939 -1.4780  1.2731 -0.8251
18709THY    HM248510   5.620   2.355   6.947  0.1577  0.2041  0.1190
18709THY    HM348511   5.777   2.405   6.999  1.1050  0.3503 -0.7278
18709THY    CA648512   5.760   2.307   6.678 -0.2113  0.1590 -0.1656
18709THY    HA648513   5.742   2.202   6.700  0.9759 -0.6002 -0.5384
18710THY      O48514   5.685   7.718   4.375  0.2659  0.0880 -0.2807
18710THY     HO48515   5.739   7.754   4.448 -1.6709  0.9195  1.1144
18710THY    CA148516   5.574   7.703   4.444  0.0460  0.1710  0.3911
18710THY    CA248517   5.452   7.644   4.394  0.1743 -0.7053  0.1047
18710THY    CP148518   5.457   7.588   4.254  0.7314  0.3190  0.1731
18710THY    HP148519   5.520   7.654   4.193  0.5991  0.6578  0.6220
18710THY    CP248520   5.318   7.592   4.183 -0.1602 -0.2395 -1.0697
18710THY    HP248521   5.277   7.693   4.184 -0.0735  0.4152 -1.0385
18710THY    HP348522   5.242   7.523   4.220 -0.2309 -0.0229 -0.8753
18710THY    HP448523   5.338   7.561   4.079 -2.4453 -1.6409  1.7077
18710THY    CP348524   5.510   7.446   4.248  0.5811 -0.4320  0.1781
18710THY    HP548525   5.458   7.394   4.330  1.9923  0.2113 -0.2712
18710THY    HP648526   5.616   7.432   4.275  0.7614 -1.4059 -0.4043
18710THY    HP748527   5.497   7.391   4.154  1.2887  0.4139 -1.5176
18710THY    CA348528   5.343   7.626   4.484 -0.9902  0.9671  0.3060
18710THY    HA348529   5.259   7.568   4.446  0.4508  0.6585 -1.6907
18710THY    CA448530   5.351   7.675   4.618  0.1162 -0.4414 -0.4766
18710THY    HA448531   5.269   7.663   4.688  0.3795 -0.0687 -0.1451
18710THY    CA548532   5.473   7.736   4.662  0.0343 -0.2425 -0.4145
18710THY    CM148533   5.477   7.786   4.803 -0.3667 -0.3814  0.5552
18710THY    HM148534   5.440   7.888   4.818  0.2113 -0.4439  0.7787
18710THY    HM248535   5.579   7.788   4.843 -0.2375 -0.7255  1.2629
18710THY    HM348536   5.428   7.716   4.872 -0.5009  0.3882  1.3870
18710THY    CA648537   5.581   7.746   4.577  0.6651  0.1107 -0.9201
18710THY    HA648538   5.665   7.803   4.617  0.5096 -1.7646  0.7111
18711THY      O48539   0.341   0.592   3.023 -0.2873 -0.3227 -0.2660
18711THY     HO48540   0.289   0.631   2.950  0.4408 -0.2319  0.9174
18711THY    CA148541   0.462   0.560   2.977  0.2298  0.0363 -0.6271
18711THY    CA248542   0.557   0.491   3.059  0.3126 -0.6686 -0.0290
18711THY    CP148543   0.510   0.429   3.191  0.0147  0.2178 -0.5148
18711THY    HP148544   0.424   0.482   3.235  0.6305  1.0949 -0.2046
18711THY    CP248545   0.607   0.441   3.313  0.3071 -0.6651 -0.1703
18711THY    HP248546   0.670   0.352   3.322  2.0253  0.2061  1.0471
18711THY    HP348547   0.550   0.456   3.405  2.6264  0.6795  1.0431
18711THY    HP448548   0.675   0.528   3.309  2.4002  0.0746 -1.6923
18711THY    CP348549   0.480   0.283   3.177  0.8312 -0.2612 -0.2090
18711THY    HP548550   0.395   0.257   3.113 -0.1347  1.0303 -0.3549
18711THY    HP648551   0.465   0.247   3.280  0.1299  0.3464  1.6755
18711THY    HP748552   0.571   0.244   3.131 -0.1567 -2.2102 -0.3373
18711THY    CA348553   0.690   0.487   3.016 -0.3798 -0.4064  0.6874
18711THY    HA348554   0.764   0.457   3.090  0.2222 -0.4423  2.0414
18711THY    CA448555   0.724   0.524   2.882 -0.1003  0.5588 -0.1527
18711THY    HA448556   0.828   0.509   2.852 -0.6024 -0.5207 -1.7280
18711THY    CA548557   0.626   0.589   2.803 -0.2728 -0.7144 -0.0346
18711THY    CM148558   0.652   0.640   2.663  0.4188 -0.2100 -0.7233
18711THY    HM148559   0.664   0.749   2.667  1.3421  3.4415 -0.8432
18711THY    HM248560   0.561   0.634   2.601 -0.1013  0.4122  0.3835
18711THY    HM348561   0.737   0.586   2.622  2.0013  3.7057 -1.4929
18711THY    CA648562   0.497   0.606   2.852  0.6397  0.2123  0.0776
18711THY    HA648563   0.424   0.659   2.790  1.6122 -0.5757  0.5298
18712THY      O48564   6.614   6.122   4.404 -0.7448  0.4834 -0.3826
18712THY     HO48565   6.603   6.097   4.497  1.4566  0.6011 -1.1221
18712THY    CA148566   6.495   6.133   4.352  0.3190 -0.6242 -1.0359
18712THY    CA248567   6.480   6.146   4.213 -0.2110 -0.4861 -0.0255
18712THY    CP148568   6.605   6.150   4.124 -0.0526  0.2442  0.4501
18712THY    HP148569   6.685   6.080   4.148  0.0762 -2.6580 -0.5541
18712THY    CP248570   6.666   6.289   4.129  0.4703 -0.0904 -0.2596
18712THY    HP248571   6.761   6.292   4.074 -0.3945 -1.7886 -1.9591
18712THY    HP348572   6.692   6.309   4.234  0.3287 -0.2479  0.8524
18712THY    HP448573   6.597   6.371   4.106  0.6563  0.0467 -0.0625
18712THY    CP348574   6.580   6.122   3.975 -0.3787  0.4557 -0.3980
18712THY    HP548575   6.676   6.108   3.924  0.4963  1.5621  1.2485
18712THY    HP648576   6.525   6.198   3.918  0.6517 -1.6731 -1.1821
18712THY    HP748577   6.521   6.031   3.958 -0.8961 -0.6647  0.1275
18712THY    CA348578   6.351   6.166   4.164  0.1124  0.0397  0.2182
18712THY    HA348579   6.317   6.167   4.060 -1.0145  0.3804 -0.5388
18712THY    CA448580   6.247   6.174   4.265 -0.9538  0.2076  0.2170
18712THY    HA448581   6.145   6.186   4.231 -0.5053 -1.3290 -0.1085
18712THY    CA548582   6.265   6.167   4.403  0.0082  0.0401  0.1578
18712THY    CM148583   6.149   6.159   4.497 -0.3405  0.5224  0.1345
18712THY    HM148584   6.120   6.256   4.540  1.5334  1.0319  0.5108
18712THY    HM248585   6.179   6.100   4.585  0.7937  0.0119 -0.0740
18712THY    HM348586   6.063   6.109   4.451 -1.2627 -1.0475  2.9475
18712THY    CA648587   6.392   6.140   4.443 -0.3245 -0.0103 -0.5635
18712THY    HA648588   6.410   6.138   4.550  2.0743 -0.2488  1.5296
18713THY      O48589   1.495   8.206   6.886  0.0012  0.8703 -0.0088
18713THY     HO48590   1.473   8.115   6.860  0.0603  0.8930 -0.0297
18713THY    CA148591   1.398   8.279   6.838  0.3997  0.2864  0.5666
18713THY    CA248592   1.428   8.411   6.789  0.0695 -0.0766  0.2308
18713THY    CP148593   1.575   8.453   6.786  0.5334  0.2325  0.1855
18713THY    HP148594   1.635   8.393   6.855 -1.2733  1.0436 -0.7633
18713THY    CP248595   1.599   8.605   6.821 -0.1141  0.2306 -0.1624
18713THY    HP248596   1.577   8.666   6.733 -1.9181 -0.9222 -2.3702
18713THY    HP348597   1.702   8.637   6.845  0.2606 -0.4767 -0.8078
18713THY    HP448598   1.540   8.628   6.911  2.3562  1.4789  1.8927
18713THY    CP348599   1.641   8.424   6.644  0.3427 -0.1243 -0.1661
18713THY    HP548600   1.642   8.317   6.621  0.7268 -3.1354  0.3862
18713THY    HP648601   1.746   8.455   6.638 -0.1287 -1.9169  1.2811
18713THY    HP748602   1.589   8.484   6.569 -0.8601  3.0067  3.0827
18713THY    CA348603   1.319   8.491   6.743 -0.4248  0.0883  0.2185
18713THY    HA348604   1.327   8.592   6.704  1.8134  0.3004  0.1627
18713THY    CA448605   1.192   8.426   6.732 -0.0389 -0.8480  0.0762
18713THY    HA448606   1.106   8.475   6.688 -0.9700 -2.1956 -2.6057
18713THY    CA548607   1.169   8.296   6.784  0.7644  0.8225  0.5436
18713THY    CM148608   1.030   8.243   6.768 -0.3994  0.7727  0.4198
18713THY    HM148609   0.960   8.290   6.837 -2.2771  0.8695 -2.2628
18713THY    HM248610   1.032   8.133   6.772  1.9721  1.3400  0.4282
18713THY    HM348611   0.996   8.267   6.666 -0.0887  0.3910 -0.7017
18713THY    CA648612   1.272   8.218   6.825 -0.2417 -0.7811  0.0244
18713THY    HA648613   1.260   8.118   6.866  2.3290 -0.7675 -0.3479
18714THY      O48614   7.245   1.270   3.888  0.6353  0.4947 -0.2399
18714THY     HO48615   7.194   1.335   3.938 -2.2053 -1.6306 -0.6347
18714THY    CA148616   7.146   1.197   3.835  1.2145  0.0775 -0.2923
18714THY    CA248617   7.164   1.061   3.794  0.4788 -0.7917 -0.1325
18714THY    CP148618   7.293   0.976   3.822 -0.4201 -0.1031  0.5700
18714THY    HP148619   7.360   1.015   3.899  0.9671 -0.4579 -1.0273
18714THY    CP248620   7.365   0.969   3.686 -0.1521  0.5381 -0.4258
18714THY    HP248621   7.297   0.919   3.616 -2.6206  2.3227  0.2234
18714THY    HP348622   7.462   0.921   3.704 -0.3780  1.6925 -0.4927
18714THY    HP448623   7.380   1.071   3.649 -2.0516 -0.3983 -0.4286
18714THY    CP348624   7.259   0.831   3.868 -0.0974  0.2847 -0.2415
18714THY    HP548625   7.202   0.849   3.959  0.2863  0.4740  0.0312
18714THY    HP648626   7.349   0.776   3.897 -0.3895  4.1123  1.0172
18714THY    HP748627   7.195   0.772   3.801 -3.0980  3.2122 -0.5775
18714THY    CA348628   7.056   0.993   3.746 -0.3681  0.5310 -0.0759
18714THY    HA348629   7.068   0.889   3.718 -1.2380  1.6486 -0.4994
18714THY    CA448630   6.932   1.058   3.742  0.4784  0.0614  0.3002
18714THY    HA448631   6.852   0.995   3.705  1.0179 -2.3693  0.9654
18714THY    CA548632   6.910   1.189   3.767 -0.1468  0.3160 -0.3890
18714THY    CM148633   6.770   1.248   3.756 -0.5472 -0.1595  0.6892
18714THY    HM148634   6.703   1.196   3.825 -1.8108 -1.0725  1.0750
18714THY    HM248635   6.728   1.217   3.660 -1.5750  0.8447 -1.2185
18714THY    HM348636   6.764   1.357   3.765 -0.1463 -0.8382  0.7748
18714THY    CA648637   7.019   1.262   3.823  0.6121 -0.4231 -0.3008
18714THY    HA648638   7.000   1.366   3.849 -2.7830 -0.6313 -0.7452
18715THY      O48639   2.413   4.498   3.990  0.2456  0.0749  0.3486
18715THY     HO48640   2.450   4.548   3.915 -2.1494 -1.5671 -0.1772
18715THY    CA148641   2.477   4.378   3.991 -0.6917  0.0663 -0.4082
18715THY    CA248642   2.418   4.263   4.047 -0.2181  0.4588  0.3235
18715THY    CP148643   2.289   4.285   4.131 -0.4945 -0.3563  0.0472
18715THY    HP148644   2.266   4.392   4.142 -0.2543 -0.9542  0.1627
18715THY    CP248645   2.296   4.215   4.274 -0.2478  0.4836  0.9420
18715THY    HP248646   2.219   4.246   4.346 -3.4029 -3.1884  2.5557
18715THY    HP348647   2.391   4.250   4.315  1.1472 -2.0999  0.4484
18715THY    HP448648   2.303   4.106   4.274  0.3551  2.1044  0.9639
18715THY    CP348649   2.163   4.221   4.065 -0.7435  0.3379  0.1944
18715THY    HP548650   2.080   4.224   4.137  0.2510  1.6231 -1.0577
18715THY    HP648651   2.186   4.114   4.055  0.5642  0.5206  0.4410
18715THY    HP748652   2.142   4.260   3.966  1.4430 -0.1639  0.2100
18715THY    CA348653   2.476   4.133   4.026 -0.3143 -0.7267 -0.1091
18715THY    HA348654   2.447   4.041   4.075 -1.5499 -1.0815  0.0715
18715THY    CA448655   2.602   4.135   3.971  0.0868  0.6837 -0.4598
18715THY    HA448656   2.652   4.044   3.938  1.4615 -3.0737  1.4384
18715THY    CA548657   2.656   4.251   3.909 -0.3347  1.1548 -0.0238
18715THY    CM148658   2.781   4.222   3.828  0.8839  0.3092 -0.6326
18715THY    HM148659   2.753   4.149   3.752 -0.1068 -1.1019  1.1297
18715THY    HM248660   2.863   4.184   3.891  1.0285 -0.3078 -1.3459
18715THY    HM348661   2.821   4.305   3.768 -1.3054 -2.6908 -1.5802
18715THY    CA648662   2.596   4.377   3.915 -0.3668 -0.0940  0.4653
18715THY    HA648663   2.626   4.474   3.877 -2.9236  3.7285  3.0522
18716THY      O48664   5.181   5.039   7.358 -0.1237  0.7038 -0.3694
18716THY     HO48665   5.221   4.971   7.302 -0.5048  2.2803 -1.9679
18716THY    CA148666   5.079   5.075   7.279 -0.2800 -0.6424  0.2746
18716THY    CA248667   4.953   5.115   7.332  0.2305  0.4034  0.2085
18716THY    CP148668   4.935   5.126   7.486  0.0716 -0.2612 -0.6009
18716THY    HP148669   5.026   5.094   7.539 -0.8891  0.7424 -1.7869
18716THY    CP248670   4.822   5.039   7.527 -0.4361  0.4297 -0.2697
18716THY    HP248671   4.803   5.054   7.634  1.5794  0.9213 -0.9259
18716THY    HP348672   4.851   4.933   7.517 -1.8729 -0.4545 -0.6070
18716THY    HP448673   4.738   5.051   7.457  0.6834 -0.7221  1.2641
18716THY    CP348674   4.906   5.268   7.516 -0.4848  0.3250 -0.1757
18716THY    HP548675   4.995   5.327   7.491 -0.8142  0.7172  0.5056
18716THY    HP648676   4.890   5.291   7.622  0.2770 -0.1627  3.2025
18716THY    HP748677   4.815   5.302   7.465 -1.3381  0.9712 -1.4050
18716THY    CA348678   4.858   5.158   7.242 -0.8009  0.0440  0.4400
18716THY    HA348679   4.757   5.182   7.274 -0.3134  2.6200 -0.6386
18716THY    CA448680   4.891   5.163   7.101 -0.7993 -0.4035 -0.1680
18716THY    HA448681   4.810   5.186   7.033 -0.3397 -1.1749 -0.7556
18716THY    CA548682   5.013   5.124   7.049 -0.1973  1.0085 -0.1720
18716THY    CM148683   5.054   5.129   6.895  0.0543 -0.3790 -0.1717
18716THY    HM148684   5.015   5.223   6.855 -0.0027  3.2580  1.5096
18716THY    HM248685   5.024   5.036   6.845 -0.1468 -0.7169  0.0734
18716THY    HM348686   5.163   5.129   6.895  0.1009  1.5972 -0.0653
18716THY    CA648687   5.108   5.090   7.146  0.4541  0.0301 -0.1283
18716THY    HA648688   5.211   5.089   7.114  0.2134 -0.7601 -0.2365
18717THY      O48689   6.928   1.234   6.714  0.2382 -0.7076  0.1785
18717THY     HO48690   6.983   1.184   6.652  2.0229  1.1416 -0.3026
18717THY    CA148691   7.017   1.322   6.772  0.5302 -0.4093 -0.0600
18717THY    CA248692   6.997   1.375   6.908 -1.1279 -0.8297  0.1923
18717THY    CP148693   6.877   1.341   6.986  0.2704 -0.2872  0.8861
18717THY    HP148694   6.859   1.237   6.956  0.3858 -1.1380  1.1100
18717THY    CP248695   6.763   1.428   6.941  0.5684 -0.4876 -0.5825
18717THY    HP248696   6.800   1.530   6.955 -2.6968  1.1500  0.5136
18717THY    HP348697   6.673   1.431   7.004 -0.5933 -2.1164  0.4857
18717THY    HP448698   6.745   1.424   6.833 -0.3596 -0.4017  0.7482
18717THY    CP348699   6.886   1.333   7.145 -0.5654 -0.0678 -0.4113
18717THY    HP548700   6.906   1.432   7.186 -0.1903 -0.1123 -0.4680
18717THY    HP648701   6.962   1.260   7.176  0.5282 -1.0453  0.2698
18717THY    HP748702   6.783   1.316   7.180 -1.1806 -1.9438 -0.8431
18717THY    CA348703   7.097   1.459   6.958  0.0485 -0.0197 -0.3536
18717THY    HA348704   7.084   1.495   7.060 -0.3116  0.0220 -0.6004
18717THY    CA448705   7.215   1.482   6.882  0.0624 -1.0135  0.8814
18717THY    HA448706   7.297   1.534   6.932  1.9154 -0.7063 -2.1075
18717THY    CA548707   7.228   1.437   6.758 -1.1320  0.1226 -0.1003
18717THY    CM148708   7.347   1.472   6.675 -0.1119 -0.0698 -0.5324
18717THY    HM148709   7.325   1.493   6.569  0.0231 -0.3688 -1.7990
18717THY    HM248710   7.415   1.389   6.652  0.2495  1.1820 -0.6022
18717THY    HM348711   7.399   1.559   6.716 -0.9248 -0.4864  0.1643
18717THY    CA648712   7.131   1.355   6.701  0.5403 -0.3880 -0.0385
18717THY    HA648713   7.139   1.316   6.600 -0.4376 -0.2423 -0.6411
18718THY      O48714   5.108   3.585   7.222  0.2306 -0.0121  0.1429
18718THY     HO48715   5.105   3.630   7.136  0.3931  0.1167  0.4012
18718THY    CA148716   5.054   3.464   7.195 -0.0741 -0.2275  0.1742
18718THY    CA248717   4.957   3.403   7.285  0.5017 -0.1643  0.5871
18718THY    CP148718   4.900   3.473   7.409  0.6865 -0.0623 -0.3413
18718THY    HP148719   4.851   3.563   7.369  1.2561 -0.4751 -0.2128
18718THY    CP248720   5.006   3.507   7.522  0.7178 -0.8893  0.2458
18718THY    HP248721   5.093   3.565   7.490  1.6778  0.7976 -0.1887
18718THY    HP348722   5.038   3.415   7.572 -2.7078  1.1690  0.0059
18718THY    HP448723   4.955   3.564   7.600 -2.6207 -1.0693 -2.2151
18718THY    CP348724   4.797   3.395   7.481  0.0525 -0.0385  0.6201
18718THY    HP548725   4.701   3.379   7.429 -0.3262 -0.1528  2.9522
18718THY    HP648726   4.767   3.432   7.580  2.1471  0.2106  1.7865
18718THY    HP748727   4.840   3.300   7.514  0.4368  0.4483  0.9570
18718THY    CA348728   4.905   3.285   7.234 -0.5789  0.2971 -0.1281
18718THY    HA348729   4.826   3.229   7.282  0.3656  0.0498 -1.7410
18718THY    CA448730   4.950   3.234   7.108  0.3109  0.3757 -0.1943
18718THY    HA448731   4.916   3.137   7.076  2.4983  0.4876 -1.0578
18718THY    CA548732   5.061   3.286   7.031  0.9454 -0.0654  0.2336
18718THY    CM148733   5.093   3.229   6.892  0.1657  0.1738  0.8696
18718THY    HM148734   5.180   3.283   6.852 -1.2395 -3.1392  0.9145
18718THY    HM248735   5.014   3.260   6.822 -1.0666  1.1121 -0.0549
18718THY    HM348736   5.105   3.121   6.895 -0.3844  2.1255  0.8317
18718THY    CA648737   5.109   3.405   7.082  0.5605  0.7248 -0.0501
18718THY    HA648738   5.190   3.457   7.031 -0.0184  0.1116  0.2641
18719THY      O48739   1.275   3.486   4.138 -0.5532 -0.3683 -0.4856
18719THY     HO48740   1.204   3.506   4.201 -1.0425 -0.6951 -1.1509
18719THY    CA148741   1.312   3.605   4.084  0.3859  0.0649 -0.0994
18719THY    CA248742   1.428   3.601   4.005 -0.2101 -0.1997 -0.0217
18719THY    CP148743   1.510   3.477   3.971 -0.6574  0.2384  0.0391
18719THY    HP148744   1.479   3.389   4.028 -0.2412  0.4230  0.0124
18719THY    CP248745   1.666   3.497   3.971  0.3945 -0.1137 -0.2602
18719THY    HP248746   1.719   3.429   4.039  1.4417  0.5072  1.1341
18719THY    HP348747   1.687   3.598   4.007  2.0797 -1.5562 -0.0695
18719THY    HP448748   1.707   3.474   3.872 -1.6263 -1.1526  0.4027
18719THY    CP348749   1.457   3.440   3.829  0.5545 -0.5673  0.8754
18719THY    HP548750   1.490   3.523   3.765  0.5366  1.6305  2.6838
18719THY    HP648751   1.348   3.435   3.838  0.6857  0.9070 -0.2765
18719THY    HP748752   1.492   3.343   3.791 -0.6346  2.4065 -0.8525
18719THY    CA348753   1.460   3.721   3.949  0.7324 -0.3504 -0.7059
18719THY    HA348754   1.538   3.725   3.873  0.0029 -1.1711 -1.5785
18719THY    CA448755   1.396   3.842   3.975  0.9274  0.6399  0.8949
18719THY    HA448756   1.422   3.934   3.922  0.0845 -0.8526  0.3043
18719THY    CA548757   1.291   3.840   4.066 -0.1276  0.3535 -0.3476
18719THY    CM148758   1.227   3.968   4.111  0.2830 -1.0552 -0.5052
18719THY    HM148759   1.276   4.062   4.084 -0.4925  1.1363  0.6104
18719THY    HM248760   1.218   3.973   4.220 -2.0518 -1.2501  1.6652
18719THY    HM348761   1.125   3.979   4.071 -0.4959  0.5033 -1.4887
18719THY    CA648762   1.235   3.722   4.112 -0.0863 -1.2027 -0.4132
18719THY    HA648763   1.139   3.737   4.160 -0.1495 -1.6284  0.5694
18720THY      O48764   5.800   2.530   2.778  0.2504 -0.2018 -0.2076
18720THY     HO48765   5.829   2.612   2.821  0.2938  0.3630 -0.5130
18720THY    CA148766   5.856   2.427   2.846  0.1631  0.0687 -0.0621
18720THY    CA248767   5.835   2.291   2.818  0.1981 -0.3424  0.0750
18720THY    CP148768   5.743   2.236   2.707 -0.0861 -0.7478  0.3228
18720THY    HP148769   5.678   2.317   2.671 -0.4598 -2.2930 -0.6108
18720THY    CP248770   5.650   2.123   2.753  0.0874  0.5053 -0.5916
18720THY    HP248771   5.588   2.154   2.839  2.6797  1.3959  2.7360
18720THY    HP348772   5.700   2.028   2.772 -1.3812  0.2932 -1.4441
18720THY    HP448773   5.578   2.104   2.673  0.0481 -0.1293  1.8266
18720THY    CP348774   5.823   2.179   2.585  0.2423  0.0881  0.3960
18720THY    HP548775   5.899   2.252   2.556  0.5477 -2.4244 -0.8039
18720THY    HP648776   5.758   2.160   2.498  1.2308 -0.1531 -2.4481
18720THY    HP748777   5.880   2.086   2.597 -1.8684  0.2891 -0.9437
18720THY    CA348778   5.909   2.195   2.891  0.1709 -0.6729 -0.7240
18720THY    HA348779   5.889   2.088   2.885 -0.6547  0.1641 -0.6321
18720THY    CA448780   5.996   2.234   2.993 -0.0060 -0.1788 -0.5210
18720THY    HA448781   6.034   2.160   3.062 -1.4089  1.8738  0.5721
18720THY    CA548782   6.023   2.372   3.013 -0.4870 -0.3145  0.1413
18720THY    CM148783   6.133   2.412   3.111  0.0904 -0.4669 -0.0329
18720THY    HM148784   6.103   2.366   3.206  0.2727 -1.1317 -1.5853
18720THY    HM248785   6.141   2.521   3.125 -0.8425  1.2431 -0.1402
18720THY    HM348786   6.230   2.375   3.078 -0.0337 -1.8479  0.7962
18720THY    CA648787   5.947   2.466   2.945  1.0473 -0.3905 -0.7035
18720THY    HA648788   5.965   2.573   2.958  2.8428 -1.8694 -0.7739
18721THY      O48789   7.643   3.943   6.530 -0.0551  0.4947 -0.5163
18721THY     HO48790   7.696   3.998   6.590  1.2694 -0.9221 -0.1516
18721THY    CA148791   7.640   3.821   6.592  0.2625  0.2327 -0.7129
18721THY    CA248792   7.584   3.698   6.538 -0.2797  0.1234 -0.2970
18721THY    CP148793   7.517   3.694   6.392 -0.1225 -0.1322  0.3098
18721THY    HP148794   7.506   3.799   6.363 -1.2767 -0.2144  0.1764
18721THY    CP248795   7.373   3.636   6.394  0.3118  0.3131 -0.1859
18721THY    HP248796   7.306   3.696   6.455  0.2055 -1.1580  1.2886
18721THY    HP348797   7.371   3.543   6.452 -4.2209 -2.6228 -2.2717
18721THY    HP448798   7.331   3.607   6.297  2.3208 -0.5540 -0.3679
18721THY    CP348799   7.599   3.624   6.294 -0.0597  1.1040 -0.6135
18721THY    HP548800   7.702   3.659   6.308 -0.4554  1.4843  0.4550
18721THY    HP648801   7.559   3.627   6.192  0.2255  0.9670 -1.2505
18721THY    HP748802   7.611   3.518   6.320  1.5641  0.0281 -0.7178
18721THY    CA348803   7.587   3.583   6.617  0.9370 -0.1442 -0.5665
18721THY    HA348804   7.550   3.491   6.573  0.0174  0.5377 -0.5309
18721THY    CA448805   7.646   3.588   6.745  0.7913  0.0577 -0.2171
18721THY    HA448806   7.643   3.504   6.814  0.3592 -1.2943 -1.3356
18721THY    CA548807   7.698   3.708   6.796 -0.7882 -0.3689 -0.0193
18721THY    CM148808   7.762   3.713   6.930 -0.3034 -0.7949 -0.5128
18721THY    HM148809   7.829   3.629   6.951  2.5050  1.7417  2.0558
18721THY    HM248810   7.687   3.698   7.009  1.7910  1.5429  0.4051
18721THY    HM348811   7.812   3.810   6.946 -0.6546  0.0171 -0.4562
18721THY    CA648812   7.709   3.820   6.717 -0.1156 -0.4633  0.6378
18721THY    HA648813   7.756   3.908   6.761  1.0874  1.2964 -0.8175
18722THY      O48814   3.039   8.385   4.564 -0.0391 -0.0979 -0.2292
18722THY     HO48815   3.131   8.417   4.571  1.1133 -2.0832 -2.7134
18722THY    CA148816   3.053   8.271   4.495  0.2257  0.5083 -0.1810
18722THY    CA248817   2.949   8.186   4.471  0.4744 -0.2345  0.5439
18722THY    CP148818   2.811   8.217   4.537 -0.1652 -0.8827  0.2169
18722THY    HP148819   2.800   8.321   4.572 -1.5056  0.7368 -0.4204
18722THY    CP248820   2.812   8.141   4.672  0.5043  0.7188  0.4240
18722THY    HP248821   2.806   8.033   4.657 -1.2680  0.5275  0.5108
18722THY    HP348822   2.722   8.164   4.730 -0.5072 -0.5355 -0.2415
18722THY    HP448823   2.900   8.177   4.726  1.6424 -0.1956 -0.9229
18722THY    CP348824   2.689   8.190   4.453 -0.2274  0.3922 -0.6140
18722THY    HP548825   2.590   8.218   4.492 -1.1953 -2.2122 -0.0955
18722THY    HP648826   2.679   8.083   4.434 -1.2862 -1.6385 -0.2173
18722THY    HP748827   2.690   8.238   4.354  0.1776 -0.2859 -1.9750
18722THY    CA348828   2.979   8.063   4.403 -0.9980  0.8238 -0.1223
18722THY    HA348829   2.900   7.990   4.385 -0.2072  1.4598 -1.1593
18722THY    CA448830   3.110   8.035   4.361 -0.3438  0.4545 -0.2635
18722THY    HA448831   3.135   7.947   4.303  0.7362 -0.1589  0.4178
18722THY    CA548832   3.213   8.127   4.375 -0.0248 -1.2240  0.2140
18722THY    CM148833   3.362   8.110   4.330 -0.6818 -0.1809 -0.4068
18722THY    HM148834   3.374   8.133   4.224  1.3094  0.1823  0.4272
18722THY    HM248835   3.380   8.002   4.340  1.0912 -0.4392 -0.1736
18722THY    HM348836   3.442   8.162   4.385  1.3786 -0.3381 -3.1802
18722THY    CA648837   3.181   8.249   4.440  0.4937  0.5432 -0.0558
18722THY    HA648838   3.255   8.329   4.441  0.4202 -1.1737  0.0709
18723THY      O48839   4.632   4.715   2.503  0.5643  0.2239 -0.1591
18723THY     HO48840   4.696   4.700   2.575  1.5074 -0.5438  0.1008
18723THY    CA148841   4.556   4.601   2.480  0.0247  0.1844 -0.5372
18723THY    CA248842   4.420   4.609   2.427 -0.1817  0.3268  0.9869
18723THY    CP148843   4.356   4.757   2.415  0.0623  0.2178  0.2465
18723THY    HP148844   4.433   4.833   2.399 -0.3737 -0.1971  0.6062
18723THY    CP248845   4.294   4.790   2.548  0.3908  0.0256  0.3241
18723THY    HP248846   4.251   4.890   2.531  0.4140  0.1376  0.3534
18723THY    HP348847   4.370   4.775   2.626  1.1130 -0.4394  1.4260
18723THY    HP448848   4.208   4.726   2.568  0.1441 -1.3311  0.1932
18723THY    CP348849   4.259   4.768   2.297  0.2360 -0.6998 -0.1927
18723THY    HP548850   4.174   4.702   2.316  0.0596 -1.7820 -0.2907
18723THY    HP648851   4.317   4.735   2.210  3.0081  0.7790  0.4891
18723THY    HP748852   4.209   4.864   2.277 -0.3152 -0.9175 -0.5184
18723THY    CA348853   4.351   4.484   2.405  0.3187 -0.2885 -0.0445
18723THY    HA348854   4.245   4.490   2.383  0.8651 -2.9671  1.3416
18723THY    CA448855   4.411   4.366   2.441 -0.7507  0.0066  0.3378
18723THY    HA448856   4.354   4.274   2.431 -0.5853  1.0569  0.1127
18723THY    CA548857   4.541   4.358   2.503  0.2082  0.5979  0.3930
18723THY    CM148858   4.605   4.229   2.543  0.3487  0.4579  0.5928
18723THY    HM148859   4.534   4.154   2.579  0.3154  1.3670  1.0564
18723THY    HM248860   4.663   4.221   2.635 -1.7433  1.9545  1.7882
18723THY    HM348861   4.661   4.188   2.458  0.1096 -0.1040  1.3980
18723THY    CA648862   4.613   4.479   2.520  1.5365 -0.5413 -0.0416
18723THY    HA648863   4.710   4.468   2.568  0.7402  1.7389  1.9447
18724THY      O48864   3.303   4.278   3.961 -0.3160 -0.2770 -0.4432
18724THY     HO48865   3.230   4.340   3.980 -0.4161  0.2149 -0.7054
18724THY    CA148866   3.426   4.344   3.979 -0.3220 -1.1504 -0.7396
18724THY    CA248867   3.536   4.281   4.042  0.4669 -0.4366 -0.6382
18724THY    CP148868   3.528   4.141   4.104  0.1324  0.5469 -0.1176
18724THY    HP148869   3.422   4.112   4.097 -0.1784 -1.2072  1.2985
18724THY    CP248870   3.568   4.133   4.251 -1.0833 -0.1089 -0.6345
18724THY    HP248871   3.555   4.033   4.294  0.6757  1.3659 -0.2911
18724THY    HP348872   3.505   4.199   4.311  1.3642  1.6071  0.3036
18724THY    HP448873   3.674   4.152   4.271 -0.2930 -2.5578 -1.9876
18724THY    CP348874   3.595   4.034   4.025  0.4205 -0.7941  0.0683
18724THY    HP548875   3.564   3.934   4.056  0.9811 -0.9837 -0.1705
18724THY    HP648876   3.703   4.040   4.047  0.2756 -0.0071 -0.1495
18724THY    HP748877   3.585   4.067   3.920  2.1069 -1.7123 -2.0744
18724THY    CA348878   3.666   4.346   4.045  2.1250 -0.2598 -0.0134
18724THY    HA348879   3.743   4.294   4.102  1.2942  0.5275 -0.4195
18724THY    CA448880   3.679   4.476   4.003  0.4127  0.1753  0.2157
18724THY    HA448881   3.776   4.525   4.001 -0.4045 -1.4658  1.8853
18724THY    CA548882   3.566   4.543   3.941  0.0731  0.1503 -0.1574
18724THY    CM148883   3.583   4.682   3.876  0.0549 -0.3007 -0.5214
18724THY    HM148884   3.671   4.737   3.912  0.6233  1.4300 -2.4477
18724THY    HM248885   3.496   4.746   3.897  0.5355 -2.3794  0.9314
18724THY    HM348886   3.606   4.671   3.770 -0.1466 -0.2102 -2.0044
18724THY    CA648887   3.442   4.472   3.936 -0.8370 -0.1316  0.1988
18724THY    HA648888   3.360   4.503   3.872 -0.9500 -1.4371 -2.4753
18725THY      O48889   3.928   6.735   5.745  0.3522 -0.0790 -0.4850
18725THY     HO48890   4.013   6.764   5.783  1.0197 -1.8871  0.0693
18725THY    CA148891   3.949   6.740   5.613  0.4237 -0.3688  0.5637
18725THY    CA248892   3.849   6.683   5.527 -1.1481 -0.1660 -0.1127
18725THY    CP148893   3.706   6.650   5.584 -0.1075 -0.6818  0.5319
18725THY    HP148894   3.700   6.661   5.692  1.0059 -0.6872  1.3364
18725THY    CP248895   3.680   6.500   5.567 -0.4821  0.1269 -0.3702
18725THY    HP248896   3.772   6.446   5.593  0.6285 -1.3346  0.7453
18725THY    HP348897   3.655   6.482   5.462  1.7177 -0.6423  0.6753
18725THY    HP448898   3.600   6.451   5.624 -0.5321 -1.0548 -1.7443
18725THY    CP348899   3.598   6.738   5.518 -0.5222 -0.4096 -0.4198
18725THY    HP548900   3.595   6.750   5.409  2.2223 -0.3956  1.1622
18725THY    HP648901   3.604   6.842   5.553 -0.8367  1.5464 -1.0312
18725THY    HP748902   3.496   6.710   5.545 -1.4822 -0.2781  2.8141
18725THY    CA348903   3.885   6.661   5.386  0.4054  0.1446  0.2279
18725THY    HA348904   3.817   6.616   5.314 -1.3335  2.3452 -0.8130
18725THY    CA448905   4.008   6.706   5.343 -0.4502  0.2189  0.2017
18725THY    HA448906   4.038   6.700   5.239  0.6061  0.5101  0.1345
18725THY    CA548907   4.099   6.762   5.432 -0.5193 -0.0653 -0.4267
18725THY    CM148908   4.231   6.809   5.376 -0.5088 -0.3658  0.2378
18725THY    HM148909   4.304   6.777   5.451 -0.2701 -0.8905 -0.4687
18725THY    HM248910   4.236   6.917   5.358  0.6482  0.6619  0.3801
18725THY    HM348911   4.266   6.760   5.285  0.3204 -0.1521  0.4268
18725THY    CA648912   4.071   6.778   5.566 -0.0979 -0.3552  0.3218
18725THY    HA648913   4.141   6.804   5.645 -1.3638  0.7009  0.6515
18726THY      O48914   3.903   6.214   3.586  0.6049 -0.2446  0.0413
18726THY     HO48915   3.885   6.122   3.612  0.5249 -2.0455 -0.4932
18726THY    CA148916   4.012   6.207   3.499  0.9637  0.0310 -0.3870
18726THY    CA248917   4.082   6.322   3.453 -0.1573 -0.1695  0.5954
18726THY    CP148918   4.034   6.458   3.473 -0.8969 -0.3174 -1.0596
18726THY    HP148919   3.960   6.466   3.554  0.8544  1.5909 -2.9176
18726THY    CP248920   3.971   6.515   3.342 -0.0411 -0.3104  0.1551
18726THY    HP248921   3.928   6.615   3.357  0.4525  1.9144  0.0828
18726THY    HP348922   3.894   6.440   3.317  0.5710  0.9698 -0.9398
18726THY    HP448923   4.047   6.511   3.263 -0.5185 -0.7933  0.4929
18726THY    CP348924   4.146   6.546   3.513 -0.7107  0.9107 -0.0087
18726THY    HP548925   4.195   6.509   3.604 -1.3548  0.7530 -1.2862
18726THY    HP648926   4.097   6.637   3.550 -1.9758  0.7506 -0.6133
18726THY    HP748927   4.217   6.580   3.437 -0.7464  0.9869  0.2390
18726THY    CA348928   4.200   6.303   3.367  0.4405 -0.0289 -0.6882
18726THY    HA348929   4.251   6.389   3.326  0.1441 -0.6549 -0.8099
18726THY    CA448930   4.235   6.168   3.332  0.0399 -0.3009 -0.1814
18726THY    HA448931   4.329   6.157   3.279  0.9239  1.2592 -0.5409
18726THY    CA548932   4.163   6.063   3.373  0.5477 -0.1374 -0.1185
18726THY    CM148933   4.210   5.926   3.350  0.1530 -0.5223  0.9031
18726THY    HM148934   4.131   5.871   3.298 -2.1381  0.6374  2.9138
18726THY    HM248935   4.233   5.871   3.441 -1.0359 -0.7537 -0.0275
18726THY    HM348936   4.287   5.911   3.273 -1.3497 -1.8860 -0.1540
18726THY    CA648937   4.053   6.082   3.463 -0.6416  0.5394 -0.2860
18726THY    HA648938   4.005   5.993   3.502 -2.6527  2.1598  1.4045
18727THY      O48939   3.498   3.319   4.268 -0.0404 -0.6910 -0.0659
18727THY     HO48940   3.426   3.256   4.284 -0.1412  0.6687  0.3614
18727THY    CA148941   3.573   3.255   4.187  0.2891 -0.0956  0.8134
18727THY    CA248942   3.706   3.296   4.166 -0.5325  0.9418 -0.1548
18727THY    CP148943   3.759   3.418   4.240  0.3851  0.6164 -0.4204
18727THY    HP148944   3.671   3.474   4.274 -0.4541  0.3781 -1.5569
18727THY    CP248945   3.830   3.511   4.150 -0.9406  0.1468  0.7055
18727THY    HP248946   3.759   3.525   4.068 -2.0614  0.6279 -1.6219
18727THY    HP348947   3.922   3.465   4.112 -1.6418 -0.5583 -0.1446
18727THY    HP448948   3.848   3.608   4.198  0.0155 -1.1980  1.2252
18727THY    CP348949   3.842   3.380   4.367  0.1378 -0.1074  0.6537
18727THY    HP548950   3.906   3.463   4.398  0.9624 -0.6996  0.2547
18727THY    HP648951   3.916   3.306   4.334 -0.1247  0.3265  0.1985
18727THY    HP748952   3.790   3.334   4.452  0.1970  0.7799  2.1857
18727THY    CA348953   3.784   3.216   4.085 -0.4218  0.5659  0.7390
18727THY    HA348954   3.889   3.237   4.071 -0.1529 -0.8654 -1.2416
18727THY    CA448955   3.731   3.104   4.025 -0.5377  0.1218  0.7431
18727THY    HA448956   3.792   3.044   3.959 -3.6352 -1.9093 -0.3621
18727THY    CA548957   3.598   3.071   4.042 -0.7026 -0.2652 -0.2489
18727THY    CM148958   3.543   2.947   3.977  0.0365 -1.1572 -0.2528
18727THY    HM148959   3.455   2.976   3.918 -1.8067  2.2671  1.7404
18727THY    HM248960   3.490   2.871   4.037  0.8192 -1.1240 -0.7832
18727THY    HM348961   3.607   2.893   3.906 -0.1314 -1.3104 -0.2514
18727THY    CA648962   3.519   3.147   4.124  0.2734  0.3985  0.5086
18727THY    HA648963   3.414   3.120   4.130  0.1036 -0.2418  1.0031
18728THY      O48964   3.800   3.540   3.457  0.2380  0.0762  0.7164
18728THY     HO48965   3.818   3.494   3.373  0.5982 -0.4598  1.7987
18728THY    CA148966   3.891   3.641   3.454  0.6633 -0.0161 -0.8657
18728THY    CA248967   3.942   3.695   3.570  0.3023  0.4233 -0.6785
18728THY    CP148968   3.892   3.646   3.713  0.0896  0.6932  0.1335
18728THY    HP148969   3.804   3.580   3.709  0.0095  2.0317  0.1209
18728THY    CP248970   3.841   3.754   3.798  0.4073 -0.8234 -0.1361
18728THY    HP248971   3.765   3.816   3.747  1.0799 -2.5256 -0.6706
18728THY    HP348972   3.917   3.823   3.838 -1.4833 -1.1356  2.2974
18728THY    HP448973   3.784   3.717   3.884  0.0043 -0.9980  0.0685
18728THY    CP348974   3.996   3.570   3.793  0.5638  0.0534 -0.5792
18728THY    HP548975   4.032   3.485   3.734 -1.9468  0.8494 -2.2963
18728THY    HP648976   3.956   3.557   3.894  0.6601  0.1845  0.1222
18728THY    HP748977   4.085   3.630   3.817 -0.0544  1.9668 -0.3634
18728THY    CA348978   4.030   3.806   3.562 -0.3620  0.2930  0.5951
18728THY    HA348979   4.068   3.852   3.653 -1.1327  0.6801  0.4742
18728THY    CA448980   4.061   3.858   3.437 -0.3232 -0.0213 -0.8005
18728THY    HA448981   4.124   3.946   3.424 -1.1944 -0.9739 -0.3035
18728THY    CA548982   4.009   3.806   3.326  0.0116 -0.1304 -0.7610
18728THY    CM148983   4.018   3.872   3.192 -0.0733  0.2915  0.4686
18728THY    HM148984   3.978   3.808   3.113 -0.3124  0.5104  0.3485
18728THY    HM248985   4.116   3.915   3.169  0.5807  0.5327 -0.8484
18728THY    HM348986   3.942   3.951   3.179 -0.8332 -2.0596 -0.5539
18728THY    CA648987   3.930   3.695   3.336  0.1329  0.0251  0.4717
18728THY    HA648988   3.886   3.657   3.244  1.3054  0.1237 -1.2307
18729THY      O48989   0.627   6.635   3.462  0.2708 -0.1373 -0.2808
18729THY     HO48990   0.698   6.590   3.511  2.2525 -2.7623 -0.2686
18729THY    CA148991   0.689   6.677   3.351 -0.1210  0.8085 -0.4487
18729THY    CA248992   0.631   6.774   3.257  1.0155 -0.0362  0.0920
18729THY    CP148993   0.488   6.828   3.289 -0.1484  0.4005  0.0597
18729THY    HP148994   0.418   6.745   3.307 -1.9676 -2.6152  0.7569
18729THY    CP248995   0.417   6.888   3.173 -0.5485 -0.4849  0.4707
18729THY    HP248996   0.473   6.967   3.122 -1.0829  1.5999  2.2739
18729THY    HP348997   0.316   6.923   3.198 -0.1906 -0.4879  1.5366
18729THY    HP448998   0.404   6.806   3.100  1.0059  0.2621 -0.4964
18729THY    CP348999   0.481   6.921   3.405 -0.2222 -0.4546  0.0499
18729THY    HP549000   0.557   6.919   3.484 -1.3538  0.6619 -1.4882
18729THY    HP649001   0.379   6.908   3.444  0.7527  2.1304 -0.3935
18729THY    HP749002   0.476   7.024   3.369 -4.1374  1.2514  0.6260
18729THY    CA349003   0.709   6.820   3.146  0.1544  0.3298 -0.0443
18729THY    HA349004   0.673   6.899   3.080 -0.3841  2.0013  1.1675
18729THY    CA449005   0.836   6.771   3.139 -0.4871  0.6471 -0.2365
18729THY    HA449006   0.895   6.808   3.056  1.2446  1.5817 -0.8068
18729THY    CA549007   0.895   6.684   3.230 -0.1553 -1.0071  0.2100
18729THY    CM149008   1.036   6.639   3.215 -0.5648  0.3900 -0.5210
18729THY    HM149009   1.066   6.661   3.112  1.9834  1.3404  0.8362
18729THY    HM249010   1.048   6.530   3.229 -1.8006 -0.5857 -0.8085
18729THY    HM349011   1.107   6.683   3.286 -0.2074  0.9636 -1.9543
18729THY    CA649012   0.820   6.642   3.335  0.5452 -0.2453  0.3596
18729THY    HA649013   0.865   6.569   3.403 -3.3915  0.1075 -2.0710
18730THY      O49014   2.408   5.900   4.604  0.2750 -0.0946 -0.2509
18730THY     HO49015   2.353   5.837   4.654  0.4053  0.9056  0.4070
18730THY    CA149016   2.525   5.832   4.590 -0.0189 -0.0757 -0.5975
18730THY    CA249017   2.654   5.886   4.568 -0.0840 -0.5680  0.5988
18730THY    CP149018   2.665   6.043   4.560 -0.0579 -0.2367 -0.7074
18730THY    HP149019   2.570   6.098   4.561  0.0884 -2.5460 -0.2888
18730THY    CP249020   2.751   6.090   4.438 -0.2377 -0.1078  0.5951
18730THY    HP249021   2.736   6.012   4.363  0.4172  1.0751 -0.6980
18730THY    HP349022   2.857   6.092   4.466  0.1295 -0.9825 -2.2401
18730THY    HP449023   2.726   6.192   4.407  1.4957  0.2015  1.1497
18730THY    CP349024   2.725   6.090   4.694 -0.4309  0.1946 -0.5467
18730THY    HP549025   2.832   6.069   4.684 -0.7859  0.0552 -2.5330
18730THY    HP649026   2.677   6.026   4.769  2.2308  0.9516 -1.7716
18730THY    HP749027   2.695   6.192   4.721  0.6459  0.9590 -0.4256
18730THY    CA349028   2.764   5.799   4.554 -0.7767 -0.1614 -0.0237
18730THY    HA349029   2.863   5.835   4.530 -0.9158 -1.4312 -0.4130
18730THY    CA449030   2.749   5.657   4.549  0.4165 -0.7171  0.4809
18730THY    HA449031   2.834   5.593   4.530 -0.3296  0.3949 -0.8774
18730THY    CA549032   2.618   5.600   4.567 -0.0966 -0.0509  0.0797
18730THY    CM149033   2.588   5.455   4.585  0.3380  0.1492 -0.5243
18730THY    HM149034   2.623   5.400   4.497  0.4284  0.9553 -1.7861
18730THY    HM249035   2.482   5.431   4.599  0.0961  1.3758  1.0618
18730THY    HM349036   2.647   5.430   4.674  0.5913  0.5271  1.2721
18730THY    CA649037   2.510   5.692   4.588  0.2269  0.1312  0.5094
18730THY    HA649038   2.411   5.652   4.605 -0.4239  0.5701  2.1956
18731THY      O49039   9.124   5.502   5.717 -0.0530 -0.0365  0.0450
18731THY     HO49040   9.066   5.446   5.662 -0.1118 -0.1555  0.2240
18731THY    CA149041   9.092   5.625   5.676 -0.3457  0.0243  0.2516
18731THY    CA249042   9.137   5.741   5.749 -0.8778  0.3974 -0.1704
18731THY    CP149043   9.224   5.732   5.865 -0.4857  0.3278 -0.0538
18731THY    HP149044   9.290   5.645   5.858  0.2458  1.8686  0.3349
18731THY    CP249045   9.125   5.720   5.988 -0.2623  0.4398 -0.3797
18731THY    HP249046   9.064   5.629   5.985 -0.1977  0.8308 -0.4375
18731THY    HP349047   9.046   5.796   5.989 -0.7567  1.2419 -0.8951
18731THY    HP449048   9.172   5.724   6.087 -2.9058  1.7156  2.0429
18731THY    CP349049   9.331   5.845   5.883 -0.5840  0.6228 -0.7668
18731THY    HP549050   9.279   5.942   5.882 -2.7159 -0.2864 -1.8718
18731THY    HP649051   9.397   5.850   5.795 -0.1291  0.7644 -3.3029
18731THY    HP749052   9.381   5.835   5.980  0.7234  0.3245  1.8069
18731THY    CA349053   9.092   5.864   5.704  0.2466 -0.1717  0.4409
18731THY    HA349054   9.116   5.956   5.757  2.7356 -0.6297  0.1064
18731THY    CA449055   9.002   5.866   5.594  0.2603 -0.0171  0.9407
18731THY    HA449056   8.973   5.962   5.551 -1.7041 -0.7102  0.0979
18731THY    CA549057   8.966   5.753   5.525 -0.6369  0.1861 -0.2615
18731THY    CM149058   8.865   5.756   5.420  0.3312  0.2200  0.4981
18731THY    HM149059   8.883   5.674   5.349 -0.8768 -3.2013  2.9638
18731THY    HM249060   8.870   5.849   5.362  0.1098  1.4660  1.3122
18731THY    HM349061   8.764   5.737   5.457  0.2322 -0.5743 -0.6451
18731THY    CA649062   9.005   5.630   5.568  0.1656 -0.3041  0.8129
18731THY    HA649063   8.966   5.541   5.520  1.9052  2.0323 -1.3714
18732THY      O49064   2.059   6.362   2.375 -0.1903  0.0359 -0.1802
18732THY     HO49065   1.991   6.404   2.320 -0.5103 -1.3149 -2.2983
18732THY    CA149066   2.144   6.286   2.296 -0.6386 -0.3727 -0.5815
18732THY    CA249067   2.225   6.190   2.359  0.0609  0.3341  0.2371
18732THY    CP149068   2.216   6.156   2.509  0.0458  0.4156 -0.0171
18732THY    HP149069   2.142   6.222   2.556  1.4610  2.2621  0.3377
18732THY    CP249070   2.341   6.190   2.593 -0.0402  0.2634  0.1568
18732THY    HP249071   2.315   6.183   2.699 -0.5769  0.4183  3.1862
18732THY    HP349072   2.379   6.289   2.565  0.1056  0.5799  0.1919
18732THY    HP449073   2.417   6.115   2.568 -1.0551 -0.1575 -0.7563
18732THY    CP349074   2.175   6.005   2.520  0.3678 -0.3778 -0.2180
18732THY    HP549075   2.168   5.983   2.627  1.5048  0.1515  1.7358
18732THY    HP649076   2.250   5.932   2.486 -0.0189  1.1409 -1.3672
18732THY    HP749077   2.084   5.994   2.460 -0.4092  0.4214  1.5686
18732THY    CA349078   2.326   6.127   2.282 -0.5058  0.3520 -1.0548
18732THY    HA349079   2.397   6.062   2.332  1.8756 -0.4407  0.7806
18732THY    CA449080   2.341   6.169   2.149 -0.1397  0.0514  0.5321
18732THY    HA449081   2.413   6.125   2.079 -2.1094 -2.4198  1.0195
18732THY    CA549082   2.259   6.266   2.088  0.8601 -0.2653  0.4765
18732THY    CM149083   2.276   6.309   1.947 -0.0899 -0.5737 -0.1041
18732THY    HM149084   2.177   6.311   1.900 -0.0498 -0.6436  0.3927
18732THY    HM249085   2.345   6.234   1.907 -1.9892 -0.8939 -1.7659
18732THY    HM349086   2.315   6.412   1.944 -0.5853 -0.8989  0.0808
18732THY    CA649087   2.153   6.319   2.162 -0.2466  0.0127 -0.1793
18732THY    HA649088   2.093   6.396   2.115 -1.1312 -1.2671 -1.6008
18733THY      O49089   8.064   3.189   4.078  0.4588  0.4928 -0.3277
18733THY     HO49090   8.010   3.119   4.118 -1.7938  2.1533  2.1253
18733THY    CA149091   8.000   3.311   4.104 -0.0405  0.1437  1.1865
18733THY    CA249092   8.029   3.431   4.040  0.2957  0.0034 -0.0926
18733THY    CP149093   8.139   3.443   3.940 -0.8084 -0.3366  0.4237
18733THY    HP149094   8.181   3.343   3.921 -0.1861  1.1424  0.3791
18733THY    CP249095   8.254   3.536   3.991 -0.4267  0.2620 -0.7733
18733THY    HP249096   8.276   3.506   4.094  0.0641  0.5248  0.3986
18733THY    HP349097   8.214   3.639   3.996  0.6670  0.8093 -0.3600
18733THY    HP449098   8.349   3.515   3.942  0.1226  1.5385 -1.3333
18733THY    CP349099   8.099   3.489   3.802  0.4360 -0.1464  0.5029
18733THY    HP549100   8.072   3.596   3.806  4.0951  1.3376  1.5274
18733THY    HP649101   8.015   3.429   3.765  1.6288 -0.1963 -1.2006
18733THY    HP749102   8.180   3.477   3.729  0.1999 -0.3548  0.1822
18733THY    CA349103   7.959   3.544   4.080  0.0994 -1.2546 -1.0435
18733THY    HA349104   7.992   3.642   4.048  0.6598  0.6180 -0.5784
18733THY    CA449105   7.853   3.532   4.171  0.2153  0.5849  0.0862
18733THY    HA449106   7.798   3.620   4.202 -1.4835 -0.3837 -0.6004
18733THY    CA549107   7.824   3.411   4.236 -0.5076  0.6306 -0.3147
18733THY    CM149108   7.721   3.402   4.346 -0.1322  0.2200  0.0808
18733THY    HM149109   7.627   3.396   4.290  0.1356 -0.5237  2.0394
18733THY    HM249110   7.720   3.493   4.407 -0.0933  1.7446 -0.9056
18733THY    HM349111   7.738   3.308   4.401 -0.7231 -3.9813 -2.7665
18733THY    CA649112   7.899   3.303   4.200 -0.1036  0.3745 -0.5837
18733THY    HA649113   7.878   3.209   4.251 -0.0060  1.0963 -0.2200
18734THY      O49114   4.875   2.592   7.504  0.2753 -0.0226 -0.3913
18734THY     HO49115   4.921   2.674   7.481  0.7672  2.9875  0.3123
18734THY    CA149116   4.941   2.551   7.617 -0.0409  0.5927 -0.5071
18734THY    CA249117   4.879   2.466   7.712 -0.9289  0.1958 -0.1149
18734THY    CP149118   4.730   2.444   7.703  0.8234 -0.0379  0.7048
18734THY    HP149119   4.689   2.467   7.604  0.1993 -0.1008 -0.5902
18734THY    CP249120   4.662   2.547   7.802  0.0427  0.2462  0.3241
18734THY    HP249121   4.684   2.520   7.906  0.8739 -0.4108 -1.7319
18734THY    HP349122   4.554   2.540   7.790 -0.0869  2.0002 -2.3153
18734THY    HP449123   4.679   2.652   7.779  2.5183 -1.1374 -0.2829
18734THY    CP349124   4.686   2.300   7.743 -0.0030  0.2526  0.1328
18734THY    HP549125   4.707   2.276   7.848  2.9107  0.0621  1.4301
18734THY    HP649126   4.735   2.224   7.681 -0.3768 -0.7975  0.7273
18734THY    HP749127   4.576   2.304   7.737 -0.0003  0.7632  1.3183
18734THY    CA349128   4.966   2.413   7.812 -0.5564  0.3102 -0.4030
18734THY    HA349129   4.932   2.344   7.888 -1.7092  1.0999  0.9694
18734THY    CA449130   5.100   2.456   7.825  0.5768  0.0961  0.2541
18734THY    HA449131   5.159   2.408   7.902 -0.2890  0.7414  0.1919
18734THY    CA549132   5.152   2.549   7.735 -0.9857 -0.2304 -0.2613
18734THY    CM149133   5.290   2.594   7.750 -0.0825 -0.2194 -0.3330
18734THY    HM149134   5.307   2.696   7.714 -1.7831  3.5850  1.4863
18734THY    HM249135   5.364   2.528   7.702  2.1059 -1.1550  2.5838
18734THY    HM349136   5.305   2.599   7.859 -0.5081 -0.0277 -2.3599
18734THY    CA649137   5.073   2.594   7.631 -0.3542 -0.3584 -0.6537
18734THY    HA649138   5.106   2.671   7.562 -1.4265  1.3551  1.4597
18735THY      O49139   1.003   2.094   5.101 -0.0283  0.0496 -0.5231
18735THY     HO49140   1.024   2.019   5.043  0.1905 -0.5565 -0.0076
18735THY    CA149141   0.916   2.061   5.192  0.6864  0.0049  0.0862
18735THY    CA249142   0.912   2.132   5.314 -0.0017 -0.1338  0.1971
18735THY    CP149143   1.014   2.238   5.356  0.3051 -0.9955 -0.1572
18735THY    HP149144   1.061   2.269   5.262  0.0653 -1.4698 -1.1802
18735THY    CP249145   1.116   2.167   5.443 -0.6722  0.3914  0.2605
18735THY    HP249146   1.147   2.081   5.383 -2.6379 -0.9218  0.4087
18735THY    HP349147   1.091   2.123   5.541  3.3032  0.2814 -2.8558
18735THY    HP449148   1.207   2.226   5.456 -0.8805  1.9615  0.2714
18735THY    CP349149   0.947   2.356   5.420  0.5797 -0.6495 -0.0572
18735THY    HP549150   1.019   2.431   5.454 -1.4245  1.6267  0.9636
18735THY    HP649151   0.894   2.332   5.513  1.5666  1.0271  3.6285
18735THY    HP749152   0.874   2.400   5.351  1.3645 -1.7092 -0.3842
18735THY    CA349153   0.820   2.087   5.416 -0.0944  0.8609 -0.1970
18735THY    HA349154   0.830   2.119   5.520  1.3762  0.4721  0.7313
18735THY    CA449155   0.717   2.006   5.372  0.5985  0.6080  0.3061
18735THY    HA449156   0.635   1.981   5.439 -0.9065 -0.4788  2.0710
18735THY    CA549157   0.724   1.937   5.249  0.3233 -0.0845 -0.0251
18735THY    CM149158   0.622   1.835   5.204 -0.2772  0.3208  0.0133
18735THY    HM149159   0.523   1.881   5.216  0.7168  0.9956  2.0955
18735THY    HM249160   0.618   1.742   5.262 -0.6629 -0.4763 -0.4815
18735THY    HM349161   0.631   1.807   5.099 -0.4623  0.6964 -1.5771
18735THY    CA649162   0.821   1.968   5.158 -0.1873 -0.5066  0.3375
18735THY    HA649163   0.820   1.922   5.060 -1.9460 -0.1753 -0.3748
18736THY      O49164   0.574   2.574   1.696 -0.5622 -0.3948 -0.1322
18736THY     HO49165   0.521   2.555   1.617  0.0113 -1.1475  1.2421
18736THY    CA149166   0.489   2.623   1.780 -0.4892 -0.0368 -0.3357
18736THY    CA249167   0.509   2.737   1.863 -0.3171  0.4775  0.0557
18736THY    CP149168   0.645   2.814   1.849 -0.4956 -0.5607  0.2250
18736THY    HP149169   0.732   2.774   1.797  0.9905  1.0941  1.1791
18736THY    CP249170   0.694   2.842   1.992  0.3312  0.1635 -0.9453
18736THY    HP249171   0.693   2.748   2.048 -0.5032  2.2840  0.2452
18736THY    HP349172   0.630   2.912   2.048  2.0216  1.1439 -0.1406
18736THY    HP449173   0.796   2.880   1.982 -0.4454  1.3556  1.7497
18736THY    CP349174   0.610   2.943   1.776  0.3322 -0.4781 -0.2170
18736THY    HP549175   0.613   2.921   1.668 -0.5740 -0.8577  1.3503
18736THY    HP649176   0.680   3.021   1.808  0.4288 -1.4812  0.1192
18736THY    HP749177   0.514   2.976   1.817  0.7411  0.4739 -0.1834
18736THY    CA349178   0.406   2.778   1.949  0.5940  0.1912  0.7337
18736THY    HA349179   0.402   2.874   2.000  0.7488 -0.3029  1.0013
18736THY    CA449180   0.290   2.693   1.959  0.0580 -0.2657 -0.3123
18736THY    HA449181   0.216   2.725   2.031  1.2618  0.1701  1.6855
18736THY    CA549182   0.276   2.585   1.882 -0.3521 -0.8186  0.2077
18736THY    CM149183   0.154   2.501   1.893 -0.2877  0.0460 -0.2307
18736THY    HM149184   0.063   2.549   1.856 -1.4064  2.6754 -0.1542
18736THY    HM249185   0.144   2.478   2.000  0.9218 -0.0518 -1.3021
18736THY    HM349186   0.160   2.406   1.839  0.9992 -0.9766  0.4090
18736THY    CA649187   0.368   2.552   1.788 -0.1011 -0.6672  0.1145
18736THY    HA649188   0.338   2.466   1.728 -0.2603  1.1704 -1.1801
18737THY      O49189   5.610   3.908   3.780 -0.4615  0.4429 -0.3303
18737THY     HO49190   5.587   3.845   3.850  0.3443  0.5235 -0.5435
18737THY    CA149191   5.571   3.848   3.672 -1.4089  0.6722  0.3492
18737THY    CA249192   5.606   3.892   3.545 -0.3567  0.4417 -0.3615
18737THY    CP149193   5.703   4.014   3.525  0.4979  0.7093  1.2819
18737THY    HP149194   5.722   4.064   3.621  0.7216  0.2606  2.0805
18737THY    CP249195   5.641   4.137   3.443  0.7198  0.3351 -0.6331
18737THY    HP249196   5.535   4.150   3.467  0.7829  0.0736  0.4726
18737THY    HP349197   5.658   4.110   3.339  0.3123  0.4423 -1.3314
18737THY    HP449198   5.698   4.228   3.466 -1.2182  0.3720  0.6233
18737THY    CP349199   5.835   3.981   3.452  0.2059  0.3412 -0.5445
18737THY    HP549200   5.813   3.930   3.358  0.6947  1.4515 -2.9178
18737THY    HP649201   5.896   3.926   3.525  1.0980  0.7762  0.9503
18737THY    HP749202   5.897   4.070   3.432 -1.2134 -1.5150  0.0789
18737THY    CA349203   5.548   3.823   3.437 -0.3163 -1.0042 -0.4058
18737THY    HA349204   5.561   3.869   3.340 -0.1458 -0.0832  1.5939
18737THY    CA449205   5.470   3.712   3.454  0.3237 -0.0216  0.2984
18737THY    HA449206   5.441   3.659   3.364 -1.1998 -0.6522  2.0806
18737THY    CA549207   5.439   3.662   3.576 -0.6436 -0.0125 -0.1178
18737THY    CM149208   5.354   3.538   3.591 -0.2686 -0.4981  0.1257
18737THY    HM149209   5.409   3.457   3.543 -0.9400 -1.4415  0.2101
18737THY    HM249210   5.253   3.542   3.548  0.1686 -1.4698  1.5976
18737THY    HM349211   5.343   3.517   3.698  1.9139 -0.1376  0.5829
18737THY    CA649212   5.491   3.732   3.686  0.0166  0.4514 -0.1861
18737THY    HA649213   5.467   3.696   3.786  0.4373 -0.4164 -3.1119
18738THY      O49214   0.682   1.227   7.789 -0.4746  0.2097  0.0659
18738THY     HO49215   0.608   1.165   7.800 -0.0607  2.1049 -0.1405
18738THY    CA149216   0.667   1.284   7.668 -0.0419  0.2178 -0.5524
18738THY    CA249217   0.742   1.404   7.635 -0.7710 -0.0798  0.6342
18738THY    CP149218   0.827   1.484   7.740 -0.1774  0.5625 -0.4258
18738THY    HP149219   0.834   1.434   7.837  0.0318  1.3712  1.1347
18738THY    CP249220   0.770   1.625   7.753 -0.4721 -0.8082  0.6301
18738THY    HP249221   0.838   1.683   7.817 -0.3756  0.0445 -0.3965
18738THY    HP349222   0.671   1.620   7.799 -0.4965 -0.9988 -1.2231
18738THY    HP449223   0.753   1.680   7.660 -0.2915  0.0745  2.2666
18738THY    CP349224   0.972   1.508   7.683  0.6142  0.3029  0.5664
18738THY    HP549225   1.027   1.413   7.680 -0.5614  3.4844 -0.3211
18738THY    HP649226   1.026   1.567   7.759  0.0774  1.4229 -0.3522
18738THY    HP749227   0.966   1.561   7.587  0.5839 -1.2444 -2.0987
18738THY    CA349228   0.713   1.463   7.508  0.3248 -0.2030 -0.1405
18738THY    HA349229   0.766   1.552   7.474  1.4754 -1.1240 -1.1457
18738THY    CA449230   0.618   1.397   7.422 -0.2064  0.0655 -0.1547
18738THY    HA449231   0.594   1.441   7.326 -0.7647 -0.6044 -1.8462
18738THY    CA549232   0.558   1.281   7.457 -0.2344  0.0265 -0.3247
18738THY    CM149233   0.457   1.216   7.364 -1.2206  0.1581 -0.3127
18738THY    HM149234   0.481   1.226   7.258 -0.8802  0.3742  1.6222
18738THY    HM249235   0.359   1.263   7.380 -0.4102  1.2848  1.0951
18738THY    HM349236   0.433   1.113   7.392  1.5520 -1.7366 -1.5854
18738THY    CA649237   0.577   1.226   7.582 -0.2047 -0.0190 -0.7708
18738THY    HA649238   0.528   1.136   7.617  0.5488  1.3559 -0.6730
18739THY      O49239   2.639   5.338   1.659  0.2298  0.6161  0.1144
18739THY     HO49240   2.608   5.365   1.571  3.6837 -0.3482  1.4887
18739THY    CA149241   2.541   5.302   1.743  0.0658  0.3795  0.5476
18739THY    CA249242   2.574   5.253   1.867  0.6003 -0.0214  0.2886
18739THY    CP149243   2.722   5.241   1.912  0.0693  0.0621  0.0383
18739THY    HP149244   2.803   5.248   1.839  1.0424  0.9955 -1.1136
18739THY    CP249245   2.752   5.109   1.984  0.0887  0.2540 -0.6183
18739THY    HP249246   2.680   5.084   2.063  0.8428  1.4774  0.8791
18739THY    HP349247   2.853   5.100   2.025 -0.0131  0.0799 -3.0753
18739THY    HP449248   2.757   5.033   1.905 -0.1990  0.0656 -0.4432
18739THY    CP349249   2.750   5.341   2.019  0.4778  0.8026  0.5766
18739THY    HP549250   2.732   5.438   1.971 -1.0945  0.3671  0.1022
18739THY    HP649251   2.858   5.342   2.037  0.9832 -1.9334  1.4077
18739THY    HP749252   2.696   5.318   2.112 -1.3464 -0.7343 -1.8963
18739THY    CA349253   2.471   5.231   1.964  0.3456  0.5710  0.2809
18739THY    HA349254   2.496   5.195   2.063 -0.4616  0.8423  0.4496
18739THY    CA449255   2.340   5.242   1.919 -0.1641 -0.2160  0.5538
18739THY    HA449256   2.259   5.214   1.986  1.1523  1.1166 -0.2329
18739THY    CA549257   2.311   5.283   1.785 -0.6009 -0.6374  0.3322
18739THY    CM149258   2.173   5.286   1.739  0.3805 -0.2555  0.0124
18739THY    HM149259   2.110   5.311   1.825 -0.2085 -0.6871  0.0347
18739THY    HM249260   2.146   5.186   1.703 -0.1428 -0.8919  0.3723
18739THY    HM349261   2.152   5.345   1.649  1.8931  0.2388  1.3559
18739THY    CA649262   2.415   5.308   1.700 -0.4294 -0.4335 -0.3775
18739THY    HA649263   2.398   5.346   1.600  1.0657  0.0341  1.6921
18740THY      O49264   6.149   5.663   7.478  0.5333 -0.4044 -0.0740
18740THY     HO49265   6.209   5.596   7.442 -0.5277  2.0048 -2.4818
18740THY    CA149266   6.101   5.721   7.368  0.3360  0.2749 -0.1060
18740THY    CA249267   5.984   5.803   7.371 -0.1393 -0.2077 -0.6131
18740THY    CP149268   5.910   5.836   7.500 -0.8142 -0.0960  0.0904
18740THY    HP149269   5.969   5.828   7.592  0.8314 -0.8371  2.5281
18740THY    CP249270   5.797   5.732   7.535 -0.3318  0.6565 -0.2611
18740THY    HP249271   5.760   5.754   7.636 -0.3283  0.2186  2.0272
18740THY    HP349272   5.838   5.631   7.528 -0.6914 -2.2886 -0.2876
18740THY    HP449273   5.715   5.742   7.463 -0.2775  0.0360 -3.4938
18740THY    CP349274   5.876   5.993   7.509 -0.0507 -0.0642  0.6341
18740THY    HP549275   5.782   6.012   7.455 -1.1594  2.0104  1.4701
18740THY    HP649276   5.951   6.060   7.468  0.2161 -0.3746  0.1452
18740THY    HP749277   5.857   6.026   7.612 -3.9549 -0.7954  1.2045
18740THY    CA349278   5.951   5.864   7.247  0.6254 -0.3701  0.4211
18740THY    HA349279   5.871   5.937   7.254  0.6442  1.4256  0.3075
18740THY    CA449280   6.023   5.847   7.135  0.1173 -0.5452  0.6073
18740THY    HA449281   5.989   5.900   7.046 -1.3821 -2.2066 -2.8524
18740THY    CA549282   6.150   5.783   7.142  0.1408 -0.0767  0.3663
18740THY    CM149283   6.235   5.774   7.013  0.0917  0.1328  0.1078
18740THY    HM149284   6.338   5.746   7.038 -0.3715  1.0314 -0.8478
18740THY    HM249285   6.238   5.871   6.961 -2.0463  0.6790  0.5229
18740THY    HM349286   6.181   5.704   6.949  0.5320 -2.8631  2.3069
18740THY    CA649287   6.179   5.706   7.255 -0.3251 -0.5706  0.1789
18740THY    HA649288   6.277   5.660   7.263  0.8445  1.0971  2.7199
18741THY      O49289   0.589   8.062   5.832 -0.2663 -0.0018  0.4140
18741THY     HO49290   0.557   8.120   5.761  0.9465 -0.0959  0.9936
18741THY    CA149291   0.547   7.933   5.800  0.2627 -0.2422 -0.6054
18741THY    CA249292   0.618   7.826   5.862  0.5732 -0.4159  0.3306
18741THY    CP149293   0.736   7.858   5.963  0.3881  0.2275  0.2438
18741THY    HP149294   0.762   7.964   5.965 -2.3268  3.0697  0.9989
18741THY    CP249295   0.877   7.776   5.946  0.8349  0.1694 -0.5061
18741THY    HP249296   0.857   7.670   5.968 -1.7686 -0.9029 -0.3342
18741THY    HP349297   0.945   7.827   6.014  0.0670 -1.1871  2.5341
18741THY    HP449298   0.918   7.777   5.844  0.0334 -0.1762 -1.0486
18741THY    CP349299   0.684   7.839   6.107  0.6523  0.4520 -0.1778
18741THY    HP549300   0.661   7.731   6.110 -3.5279 -2.4529  0.3958
18741THY    HP649301   0.586   7.883   6.124  0.5436 -0.5711 -0.0001
18741THY    HP749302   0.756   7.866   6.185 -0.3612  1.2599  0.2616
18741THY    CA349303   0.569   7.693   5.842 -0.2534  0.8948  0.0846
18741THY    HA349304   0.615   7.605   5.886 -0.5437  1.2659  0.1176
18741THY    CA449305   0.461   7.674   5.753  0.1257  0.2193  0.8151
18741THY    HA449306   0.425   7.573   5.734 -0.9756  1.6692  0.9053
18741THY    CA549307   0.403   7.777   5.686  0.3897  0.6752  0.1999
18741THY    CM149308   0.293   7.743   5.585 -0.1607 -0.4502 -0.3931
18741THY    HM149309   0.254   7.828   5.528  0.3610  1.7745  1.4121
18741THY    HM249310   0.211   7.714   5.652  0.1037  0.1139  0.1506
18741THY    HM349311   0.326   7.663   5.518  1.3542  0.1749 -0.3182
18741THY    CA649312   0.444   7.908   5.712  0.2680 -0.1266 -0.3372
18741THY    HA649313   0.391   7.990   5.664  0.2692  0.1927 -0.1511
18742THY      O49314   4.354   5.943   4.156 -0.9140  0.2312  0.3853
18742THY     HO49315   4.431   5.912   4.106 -2.4260 -1.4166 -0.9434
18742THY    CA149316   4.279   6.004   4.068 -0.2983  0.2189  0.2442
18742THY    CA249317   4.151   6.053   4.105 -0.1543 -0.2670  0.3570
18742THY    CP149318   4.103   6.052   4.247 -0.5559  0.1083  0.4280
18742THY    HP149319   4.187   6.061   4.317 -1.8192  1.4619  2.3690
18742THY    CP249320   4.053   5.908   4.274  0.5574  0.2070  0.4960
18742THY    HP249321   4.002   5.900   4.370  1.3902  0.5272 -1.3757
18742THY    HP349322   4.139   5.841   4.282  1.0470 -0.2198  1.0597
18742THY    HP449323   3.989   5.870   4.194  1.7213 -1.1786  1.2946
18742THY    CP349324   3.983   6.147   4.285  0.3972  0.0692  0.2917
18742THY    HP549325   4.000   6.250   4.253 -2.2087 -1.2094  0.3719
18742THY    HP649326   3.967   6.145   4.394  0.4199  0.0942 -2.3449
18742THY    HP749327   3.891   6.104   4.245 -0.0035  1.3525 -0.1066
18742THY    CA349328   4.070   6.099   4.000 -0.2067  0.4218 -0.1984
18742THY    HA349329   3.962   6.110   4.007  0.1041  3.1985  2.3085
18742THY    CA449330   4.127   6.112   3.875  0.3808 -0.4769 -0.4079
18742THY    HA449331   4.075   6.166   3.797  1.6576 -0.2552  1.2506
18742THY    CA549332   4.265   6.090   3.850  0.2401  0.7979  0.2886
18742THY    CM149333   4.332   6.134   3.722 -0.2244 -0.2463  0.3743
18742THY    HM149334   4.321   6.061   3.641  1.0635  1.9417 -2.4232
18742THY    HM249335   4.435   6.160   3.747 -0.9751  1.5469  1.8206
18742THY    HM349336   4.294   6.232   3.688  1.4357 -0.3980  1.0038
18742THY    CA649337   4.335   6.025   3.949  0.4580 -0.6581 -0.0149
18742THY    HA649338   4.440   6.007   3.926  1.2816  0.7122  2.5570
18743THY      O49339   9.350   2.190   4.783 -0.7286  0.3204  0.2565
18743THY     HO49340   9.357   2.121   4.851 -1.5060 -0.6586 -0.8499
18743THY    CA149341   9.271   2.290   4.828 -0.1890 -0.0004 -0.0633
18743THY    CA249342   9.206   2.376   4.736 -0.3280 -0.3283  0.8926
18743THY    CP149343   9.203   2.342   4.592  0.2895 -0.7905  1.0932
18743THY    HP149344   9.198   2.233   4.578 -0.9117  0.3860  0.9693
18743THY    CP249345   9.333   2.373   4.535  0.3518  0.4145 -0.4451
18743THY    HP249346   9.349   2.481   4.550 -0.2594  0.8353 -0.4062
18743THY    HP349347   9.333   2.349   4.428  0.7903  0.0443  1.0894
18743THY    HP449348   9.422   2.320   4.569  2.2492 -1.9318  1.0615
18743THY    CP349349   9.077   2.397   4.521  0.4131  0.1626  0.0442
18743THY    HP549350   9.046   2.335   4.436  0.6506  0.1926 -0.1148
18743THY    HP649351   9.087   2.503   4.495 -0.2986 -2.4061 -0.4654
18743THY    HP749352   8.991   2.387   4.589  1.7217  2.1648  1.5002
18743THY    CA349353   9.130   2.476   4.784  1.0077 -0.2051  0.1953
18743THY    HA349354   9.078   2.549   4.723 -0.5382  2.1816  1.2289
18743THY    CA449355   9.112   2.492   4.928 -0.4986 -0.5063  0.2665
18743THY    HA449356   9.055   2.572   4.975 -0.3601  0.3096 -0.0958
18743THY    CA549357   9.183   2.417   5.020 -0.1064  0.6071  1.0656
18743THY    CM149358   9.185   2.446   5.164  0.1975  0.6651 -0.4617
18743THY    HM149359   9.255   2.381   5.219 -0.1639 -0.1126 -1.5324
18743THY    HM249360   9.085   2.436   5.207  0.1622  0.6471 -0.1916
18743THY    HM349361   9.216   2.549   5.188  1.3392  0.1226 -0.6648
18743THY    CA649362   9.264   2.318   4.968  0.9824 -0.3306 -0.5663
18743THY    HA649363   9.322   2.251   5.031 -1.2913 -0.1416 -2.5014
18744THY      O49364   4.872   3.483   4.014 -0.2555  0.1886 -0.2007
18744THY     HO49365   4.852   3.567   4.059  0.8137 -0.9413  0.7039
18744THY    CA149366   4.875   3.375   4.096  0.1843  0.2531 -0.8776
18744THY    CA249367   4.860   3.245   4.049 -0.0271 -0.0765 -0.3674
18744THY    CP149368   4.874   3.221   3.902  0.2659  0.6877  0.1366
18744THY    HP149369   4.892   3.311   3.842  2.7774  1.7578  0.4343
18744THY    CP249370   4.747   3.162   3.844 -0.2609  0.1806 -0.1263
18744THY    HP249371   4.734   3.057   3.874 -0.5168  0.0466 -0.1342
18744THY    HP349372   4.757   3.160   3.735 -0.0916  0.1777  0.6607
18744THY    HP449373   4.652   3.209   3.873 -0.0336  0.0405  0.4149
18744THY    CP349374   4.993   3.125   3.870 -0.6695 -0.2678 -0.8136
18744THY    HP549375   5.005   3.110   3.762 -0.1275 -0.3304 -0.0274
18744THY    HP649376   4.972   3.023   3.904  1.2257 -1.6050 -1.7232
18744THY    HP749377   5.087   3.156   3.918  0.1221 -1.6232 -1.0283
18744THY    CA349378   4.839   3.144   4.143  0.2795  0.1854  0.5500
18744THY    HA349379   4.821   3.041   4.113  0.0481  2.5324 -0.1492
18744THY    CA449380   4.844   3.169   4.281  0.0527  0.0923 -0.6448
18744THY    HA449381   4.822   3.095   4.357  1.4446  0.0717 -1.1113
18744THY    CA549382   4.875   3.299   4.329 -0.0454  0.2054  0.6118
18744THY    CM149383   4.875   3.327   4.478 -0.0243 -0.4921  0.2142
18744THY    HM149384   4.961   3.385   4.513  1.1550 -0.5817 -1.3918
18744THY    HM249385   4.881   3.236   4.540  2.2812  0.9628  1.2560
18744THY    HM349386   4.789   3.382   4.516  1.5625  2.3347  0.9718
18744THY    CA649387   4.888   3.402   4.234  0.7020 -0.2476 -0.2986
18744THY    HA649388   4.905   3.506   4.258  1.0418 -1.7280  0.0080
18745THY      O49389   7.194   3.830   4.032  0.1120 -0.4299  0.1094
18745THY     HO49390   7.192   3.896   4.104  1.9216 -0.2919  0.0706
18745THY    CA149391   7.212   3.899   3.919 -0.4281  0.4262 -0.4670
18745THY    CA249392   7.239   3.834   3.801  0.1222 -0.5692 -0.2467
18745THY    CP149393   7.236   3.681   3.793 -0.0302 -0.0037  0.1158
18745THY    HP149394   7.260   3.637   3.891 -2.0479  0.7084  0.5039
18745THY    CP249395   7.338   3.630   3.688  0.4680 -0.2845 -0.1265
18745THY    HP249396   7.431   3.688   3.681 -0.6017  1.4794  1.9851
18745THY    HP349397   7.288   3.633   3.590  0.8653 -0.4640  2.0854
18745THY    HP449398   7.354   3.524   3.712 -0.9470  1.4579  0.0126
18745THY    CP349399   7.087   3.644   3.764  0.7108 -0.6173  0.2926
18745THY    HP549400   7.069   3.666   3.659  2.0759 -0.9305  0.0057
18745THY    HP649401   7.008   3.696   3.820  0.8072  0.4803 -0.6877
18745THY    HP749402   7.067   3.538   3.782 -2.4984  1.7045  1.1284
18745THY    CA349403   7.263   3.912   3.686  0.7874  0.2211  0.2861
18745THY    HA349404   7.272   3.863   3.589 -2.3833  0.0100 -0.0911
18745THY    CA449405   7.273   4.050   3.691 -1.1389  0.5838  0.5403
18745THY    HA449406   7.303   4.111   3.606  0.2983  1.0396  0.5125
18745THY    CA549407   7.260   4.116   3.811  0.4331 -0.1330  0.3014
18745THY    CM149408   7.276   4.267   3.827 -0.0902  0.7809 -0.3005
18745THY    HM149409   7.240   4.292   3.927  1.7418  1.2739  0.5846
18745THY    HM249410   7.224   4.318   3.745 -1.8974  0.2874 -2.7768
18745THY    HM349411   7.384   4.288   3.825 -0.0247 -0.2300 -0.7184
18745THY    CA649412   7.238   4.037   3.928  0.9720  0.0734  0.1445
18745THY    HA649413   7.240   4.086   4.025 -0.6877 -0.3751  1.1756
18746THY      O49414   2.429   1.674   5.645  0.1380 -0.3069  0.2424
18746THY     HO49415   2.357   1.695   5.583 -0.0856 -0.0329  0.2914
18746THY    CA149416   2.522   1.766   5.652  0.8124  0.3567  0.5855
18746THY    CA249417   2.619   1.764   5.764  0.4662 -0.3344 -0.1722
18746THY    CP149418   2.631   1.659   5.871 -0.0999  0.1369  0.4507
18746THY    HP149419   2.558   1.580   5.851  1.5943 -0.4647 -1.0153
18746THY    CP249420   2.604   1.714   6.008  0.4777 -0.6667  0.3803
18746THY    HP249421   2.671   1.794   6.043 -0.4350  2.1451  0.0529
18746THY    HP349422   2.595   1.635   6.084  0.1080 -0.7502  0.3417
18746THY    HP449423   2.508   1.766   6.011  1.1756 -0.3156  1.7163
18746THY    CP349424   2.771   1.594   5.867 -0.2698 -0.0673  0.4550
18746THY    HP549425   2.773   1.507   5.800  0.4323  0.1940  0.2642
18746THY    HP649426   2.787   1.548   5.965  2.6127 -1.3629 -1.5690
18746THY    HP749427   2.847   1.669   5.844  1.7108  1.0065 -1.1266
18746THY    CA349428   2.707   1.871   5.764  0.2123 -0.3253  0.1884
18746THY    HA349429   2.779   1.874   5.845  0.1509 -0.0351 -2.7578
18746THY    CA449430   2.694   1.978   5.675 -0.1847  0.0904 -0.5991
18746THY    HA449431   2.758   2.064   5.688  0.3468 -0.5733 -0.8847
18746THY    CA549432   2.603   1.969   5.567 -0.0767  0.8267 -0.5153
18746THY    CM149433   2.608   2.077   5.463 -0.3395 -1.2503 -1.1230
18746THY    HM149434   2.569   2.170   5.506  0.2824 -3.1021  0.0476
18746THY    HM249435   2.551   2.049   5.374  0.9881 -2.6368  0.3919
18746THY    HM349436   2.715   2.087   5.438 -0.3645 -0.7284  0.8721
18746THY    CA649437   2.511   1.864   5.559 -0.9326  0.2484 -0.4167
18746THY    HA649438   2.429   1.860   5.487 -0.1687 -0.5911 -1.6833
18747THY      O49439   7.064   1.434   2.587  0.7246 -0.2176 -1.0360
18747THY     HO49440   7.041   1.342   2.562  0.3522 -1.6502 -0.5817
18747THY    CA149441   7.005   1.499   2.487  0.2019  1.3027 -0.2608
18747THY    CA249442   6.983   1.639   2.483 -0.3839 -0.6132  0.0382
18747THY    CP149443   7.014   1.721   2.611  0.1295  0.1265  0.3538
18747THY    HP149444   7.049   1.654   2.690 -1.8165  1.9633  1.3821
18747THY    CP249445   6.882   1.776   2.670  0.4327  0.2433  0.1513
18747THY    HP249446   6.912   1.848   2.747  2.6249 -1.0012  0.6593
18747THY    HP349447   6.824   1.695   2.715 -1.5304 -0.8011  0.9009
18747THY    HP449448   6.826   1.836   2.597  1.2081 -0.8245 -0.3914
18747THY    CP349449   7.105   1.835   2.576 -0.8161  0.1430  0.6174
18747THY    HP549450   7.047   1.906   2.515  1.0675 -2.5946 -0.0242
18747THY    HP649451   7.185   1.795   2.513 -0.2517  1.3682 -0.2416
18747THY    HP749452   7.161   1.874   2.661  0.3942  1.2442 -3.0471
18747THY    CA349453   6.928   1.693   2.366  0.6121  0.9783 -0.0747
18747THY    HA349454   6.885   1.793   2.364 -0.3708 -0.4517 -0.4964
18747THY    CA449455   6.900   1.611   2.254 -0.0144 -0.0391 -0.2437
18747THY    HA449456   6.834   1.650   2.178 -1.6410  0.6523 -1.5511
18747THY    CA549457   6.936   1.476   2.258 -0.3649  0.7463  0.4620
18747THY    CM149458   6.888   1.391   2.145  0.1674  0.2362  0.0873
18747THY    HM149459   6.875   1.285   2.171  1.0940  0.2058 -0.0453
18747THY    HM249460   6.962   1.407   2.066  2.3569  2.0946 -0.2437
18747THY    HM349461   6.786   1.411   2.111 -0.9324  1.5721 -2.7136
18747THY    CA649462   6.994   1.420   2.371  0.7922  0.1021 -0.8972
18747THY    HA649463   6.997   1.312   2.371  1.7688  1.6165 -0.8922
18748THY      O49464   4.160   7.245   1.672 -0.0957  0.0657 -0.0748
18748THY     HO49465   4.146   7.265   1.577  1.3965 -0.3597 -0.9081
18748THY    CA149466   4.293   7.249   1.673  0.1344  0.5017  0.0371
18748THY    CA249467   4.372   7.139   1.700  0.0793 -0.1013  0.1431
18748THY    CP149468   4.317   7.012   1.747  0.4382  0.7504  0.2918
18748THY    HP149469   4.222   7.042   1.793 -0.0043  0.9068 -1.2816
18748THY    CP249470   4.392   6.932   1.855 -0.0737 -0.3988  0.2356
18748THY    HP249471   4.438   7.001   1.926  1.0784  0.0984 -1.0100
18748THY    HP349472   4.459   6.865   1.801 -1.0911  0.3586 -1.4545
18748THY    HP449473   4.323   6.882   1.924 -1.7510 -0.5498  2.1803
18748THY    CP349474   4.281   6.927   1.627 -0.2068 -0.4271 -0.2786
18748THY    HP549475   4.368   6.883   1.577  0.9107  1.4183 -0.2863
18748THY    HP649476   4.209   6.980   1.564 -1.7046  1.9471  0.7068
18748THY    HP749477   4.220   6.843   1.663 -0.4341 -2.7574 -1.1671
18748THY    CA349478   4.505   7.154   1.690  0.0803 -0.6174  0.2628
18748THY    HA349479   4.568   7.082   1.741 -1.7891  1.0556 -0.2732
18748THY    CA449480   4.559   7.277   1.642 -1.1368 -0.3556  0.4648
18748THY    HA449481   4.667   7.287   1.632 -0.8692  1.3728 -0.3943
18748THY    CA549482   4.479   7.389   1.615 -0.0766 -0.2717  0.0929
18748THY    CM149483   4.547   7.524   1.586 -0.5302  0.3301  0.4339
18748THY    HM149484   4.622   7.509   1.508 -1.0856 -0.1941  0.3331
18748THY    HM249485   4.601   7.554   1.676  0.3906 -0.2565  0.5829
18748THY    HM349486   4.474   7.602   1.561 -2.3023 -0.4184 -1.3832
18748THY    CA649487   4.345   7.377   1.632 -0.5632 -0.2572 -0.1767
18748THY    HA649488   4.281   7.464   1.625 -1.5837 -0.1226 -0.9031
18749THY      O49489   8.688   2.947   5.874  0.0290  0.4392  0.0349
18749THY     HO49490   8.597   2.971   5.900 -0.5408 -1.5547  0.1881
18749THY    CA149491   8.686   2.819   5.836  0.3889 -1.0210 -0.8911
18749THY    CA249492   8.800   2.742   5.804 -0.6960  0.5226  0.2469
18749THY    CP149493   8.938   2.804   5.801  0.1903 -0.0141 -0.6658
18749THY    HP149494   8.942   2.910   5.830  1.0258  2.1633 -1.2541
18749THY    CP249495   9.002   2.797   5.671  0.4050  1.5087 -0.5504
18749THY    HP249496   9.022   2.696   5.632  0.9187  0.2378  0.0278
18749THY    HP349497   9.093   2.858   5.674  0.8233  0.0798 -1.0715
18749THY    HP449498   8.943   2.855   5.600  2.4792 -0.1725 -0.3606
18749THY    CP349499   9.026   2.731   5.903  0.6635 -0.1268 -0.3970
18749THY    HP549500   9.045   2.626   5.878 -1.2715 -1.5521 -0.4620
18749THY    HP649501   8.978   2.748   6.000 -0.3867 -0.4676 -1.2854
18749THY    HP749502   9.122   2.782   5.909  0.8172 -1.0371 -0.5676
18749THY    CA349503   8.782   2.614   5.748 -0.3914  0.1919 -0.0878
18749THY    HA349504   8.863   2.553   5.710 -1.9594  0.5581 -2.5428
18749THY    CA449505   8.651   2.561   5.754  0.1388  0.0178 -0.2529
18749THY    HA449506   8.640   2.456   5.729  1.2960  1.8680 -0.8652
18749THY    CA549507   8.544   2.626   5.807  0.2351 -0.3173 -0.4252
18749THY    CM149508   8.412   2.553   5.826  0.1409  0.7899 -0.5536
18749THY    HM149509   8.340   2.605   5.763  0.9383 -0.3963 -0.8373
18749THY    HM249510   8.371   2.547   5.927 -0.7605  0.4395 -0.4839
18749THY    HM349511   8.422   2.450   5.791  0.0643 -1.1976  0.0692
18749THY    CA649512   8.560   2.757   5.851  0.3615  0.0308 -0.3331
18749THY    HA649513   8.478   2.816   5.890  0.1709  0.8232 -1.1099
18750THY      O49514   5.697   4.270   7.040  0.3056  0.4091  0.0253
18750THY     HO49515   5.645   4.188   7.043 -2.0870  1.0970  1.4769
18750THY    CA149516   5.598   4.364   7.020 -0.3568 -0.3386 -0.0569
18750THY    CA249517   5.623   4.493   6.965 -0.4899  0.7660 -0.9067
18750THY    CP149518   5.768   4.522   6.914 -0.3208 -0.1812  0.3384
18750THY    HP149519   5.817   4.433   6.873  2.0172 -2.7939  2.6343
18750THY    CP249520   5.857   4.587   7.024 -0.0060 -1.1968 -0.1014
18750THY    HP249521   5.868   4.520   7.110 -2.4362 -0.0670  0.8321
18750THY    HP349522   5.811   4.679   7.062 -2.0403  0.6251 -1.7446
18750THY    HP449523   5.955   4.616   6.984  0.3174 -0.1876  0.2359
18750THY    CP349524   5.771   4.620   6.789  0.1465  0.0838  0.2846
18750THY    HP549525   5.722   4.575   6.702 -1.4568 -0.0054  2.0873
18750THY    HP649526   5.869   4.640   6.744 -0.8863 -2.1855  0.5371
18750THY    HP749527   5.738   4.724   6.802 -1.7092 -1.0886 -0.1041
18750THY    CA349528   5.530   4.597   6.987  0.9189  0.6395 -0.1834
18750THY    HA349529   5.543   4.695   6.942  0.5303 -0.0799 -0.4509
18750THY    CA449530   5.401   4.562   7.028 -0.6069 -0.2464 -0.5414
18750THY    HA449531   5.328   4.642   7.017  0.4527 -1.0604  0.3465
18750THY    CA549532   5.376   4.430   7.074 -0.1116 -0.3517  1.1122
18750THY    CM149533   5.239   4.397   7.118  0.3893 -0.5660  0.4445
18750THY    HM149534   5.178   4.372   7.031  1.4720 -1.4229  0.7293
18750THY    HM249535   5.200   4.482   7.175  0.8949 -1.5507  1.3501
18750THY    HM349536   5.223   4.313   7.187 -2.4475 -1.7379 -0.0822
18750THY    CA649537   5.475   4.335   7.073 -0.4979 -1.0480  0.5013
18750THY    HA649538   5.453   4.241   7.122 -0.3203  1.9768  1.9405
18751THY      O49539   2.553   9.182   3.095 -0.6947 -0.1731 -0.0429
18751THY     HO49540   2.576   9.250   3.029 -1.3054 -1.2678 -0.8595
18751THY    CA149541   2.580   9.233   3.220  0.6247 -0.2977 -0.4850
18751THY    CA249542   2.483   9.237   3.323  0.3651 -0.3261 -0.1681
18751THY    CP149543   2.342   9.189   3.299  0.3754  0.0560  0.1473
18751THY    HP149544   2.333   9.159   3.194  1.3935  0.0233 -0.0598
18751THY    CP249545   2.262   9.313   3.332  0.3823  0.0699  0.4237
18751THY    HP249546   2.161   9.292   3.293  0.2001  0.7323  0.0391
18751THY    HP349547   2.298   9.406   3.288 -0.7980 -0.6024  0.5898
18751THY    HP449548   2.265   9.329   3.440  1.4985  0.0736  0.2436
18751THY    CP349549   2.318   9.068   3.389  0.1308  0.0456  1.3363
18751THY    HP549550   2.210   9.053   3.397  0.1386 -0.4330  1.0148
18751THY    HP649551   2.353   9.087   3.491  0.0262  0.6247 -1.2528
18751THY    HP749552   2.363   8.975   3.352  0.7448 -0.7670  1.9451
18751THY    CA349553   2.531   9.289   3.447 -0.4056 -0.1333  0.3837
18751THY    HA349554   2.457   9.289   3.527 -0.8717 -0.5382  1.4626
18751THY    CA449555   2.662   9.337   3.465 -0.2158  0.1217  0.0941
18751THY    HA449556   2.697   9.381   3.558  0.2561 -0.7848  1.7009
18751THY    CA549557   2.747   9.338   3.356 -0.2369 -0.2345  1.1725
18751THY    CM149558   2.886   9.380   3.370  0.1796 -0.0835 -1.0539
18751THY    HM149559   2.903   9.486   3.347  1.9465 -1.0713 -1.5204
18751THY    HM249560   2.949   9.321   3.304  4.0086  2.1398  0.1910
18751THY    HM349561   2.905   9.376   3.478 -1.4239  0.5619  3.0824
18751THY    CA649562   2.707   9.287   3.236  0.4966  0.9011  0.1064
18751THY    HA649563   2.771   9.282   3.148  0.5040  0.8599  0.8159
18752THY      O49564   8.350   0.839   4.397  0.3081 -0.3385  0.0725
18752THY     HO49565   8.392   0.814   4.313 -2.2562 -0.9844 -2.6204
18752THY    CA149566   8.426   0.936   4.450  0.2312  0.0566 -0.0422
18752THY    CA249567   8.423   0.968   4.588  0.0754  0.1500 -0.2255
18752THY    CP149568   8.347   0.880   4.688 -1.0044  0.5220  0.4008
18752THY    HP149569   8.318   0.783   4.646 -1.9401  3.6088 -0.7793
18752THY    CP249570   8.206   0.935   4.723 -0.6617 -0.0339 -0.4836
18752THY    HP249571   8.143   0.864   4.777 -0.7472  0.6350  0.0908
18752THY    HP349572   8.153   0.950   4.628  1.1261 -1.1601 -1.0086
18752THY    HP449573   8.207   1.027   4.783  1.4505 -0.1542 -0.3723
18752THY    CP349574   8.424   0.847   4.813  0.0916  0.0253  0.5634
18752THY    HP549575   8.520   0.809   4.776  0.0751 -1.2504  1.6849
18752THY    HP649576   8.384   0.771   4.881  2.1530 -0.7030 -1.2674
18752THY    HP749577   8.433   0.934   4.879 -2.0054 -0.1167  0.9581
18752THY    CA349578   8.499   1.087   4.626 -0.1675 -0.1588  0.4082
18752THY    HA349579   8.497   1.121   4.729 -0.4172  0.2154 -0.7310
18752THY    CA449580   8.570   1.160   4.532  0.8410 -0.5095  0.0745
18752THY    HA449581   8.643   1.235   4.561 -1.2044  2.1906  1.1949
18752THY    CA549582   8.557   1.129   4.399 -0.2319  0.3967 -0.4539
18752THY    CM149583   8.638   1.196   4.295 -0.9370 -0.1954 -0.3991
18752THY    HM149584   8.724   1.136   4.262 -0.6639  0.1731 -0.2128
18752THY    HM249585   8.680   1.282   4.349 -0.0090 -0.4305 -0.6932
18752THY    HM349586   8.574   1.235   4.215  1.2890 -0.8094  2.3222
18752THY    CA649587   8.491   1.017   4.361  0.2244  0.0098  0.1957
18752THY    HA649588   8.498   0.991   4.256 -2.3605 -0.7414  2.1491
18753THY      O49589   8.481   8.737   3.280 -0.0224 -0.6926 -0.0833
18753THY     HO49590   8.520   8.753   3.368 -3.4847  1.0011  0.2422
18753THY    CA149591   8.446   8.862   3.239 -1.2835 -0.6531 -0.5044
18753THY    CA249592   8.343   8.894   3.152  0.1855 -0.3330 -0.1075
18753THY    CP149593   8.241   8.796   3.108 -0.0891  0.3170  0.0445
18753THY    HP149594   8.272   8.691   3.110 -1.7206  1.5482 -0.4600
18753THY    CP249595   8.224   8.820   2.955  0.0850  0.0856  0.3111
18753THY    HP249596   8.320   8.839   2.905  0.5757  0.4044 -1.2035
18753THY    HP349597   8.157   8.907   2.946  0.4119 -0.1401  0.5409
18753THY    HP449598   8.171   8.735   2.911 -1.7374  1.0778  0.8746
18753THY    CP349599   8.106   8.810   3.183  0.4615 -0.7261  0.1615
18753THY    HP549600   8.062   8.908   3.164 -2.1186  0.0488 -0.7726
18753THY    HP649601   8.120   8.792   3.290 -0.2432 -0.7048 -0.2695
18753THY    HP749602   8.038   8.737   3.139 -0.7829  3.3792 -1.4697
18753THY    CA349603   8.333   9.031   3.112 -0.0919  0.2910  0.3355
18753THY    HA349604   8.255   9.054   3.040 -0.8301  0.7760 -0.5486
18753THY    CA449605   8.402   9.129   3.178 -0.3098  0.2531 -0.1690
18753THY    HA449606   8.374   9.231   3.157  0.8870  2.0490  0.5791
18753THY    CA549607   8.511   9.089   3.264 -0.3934 -0.1673 -0.5358
18753THY    CM149608   8.585   9.198   3.336  0.1779  0.4528 -0.2032
18753THY    HM149609   8.559   9.297   3.298  0.0915 -2.3265 -1.1934
18753THY    HM249610   8.693   9.194   3.318  0.0326 -0.5147 -0.0969
18753THY    HM349611   8.577   9.192   3.445 -0.5006  0.3600 -1.5629
18753THY    CA649612   8.534   8.959   3.289  0.3642  0.3887  0.2427
18753THY    HA649613   8.613   8.943   3.362  0.4010  0.0362 -1.2525
18754THY      O49614   8.136   4.709   4.984 -0.0110 -0.0503 -0.5663
18754THY     HO49615   8.056   4.659   4.962 -1.0844  0.4029  0.8938
18754THY    CA149616   8.110   4.831   4.926  0.0022  0.0477 -0.1038
18754THY    CA249617   8.064   4.934   5.006  0.2889 -0.0434  0.1392
18754THY    CP149618   8.040   4.912   5.157  0.0467 -0.0437  0.7965
18754THY    HP149619   8.073   4.814   5.194  3.0758  0.4162  1.8929
18754THY    CP249620   7.894   4.910   5.190 -0.3651  0.0352  0.4609
18754THY    HP249621   7.843   5.001   5.156  1.6313 -0.8006  1.3173
18754THY    HP349622   7.878   4.885   5.296 -0.9306 -0.1658 -0.0614
18754THY    HP449623   7.862   4.823   5.132 -1.2092  1.0653  0.0566
18754THY    CP349624   8.104   5.029   5.239 -0.2201 -0.0897  0.0722
18754THY    HP549625   8.091   5.012   5.347 -0.4585  0.1316  1.4658
18754THY    HP649626   8.068   5.132   5.228 -0.4962  2.0394  0.2687
18754THY    HP749627   8.212   5.025   5.225 -0.4444 -1.8733 -0.4821
18754THY    CA349628   8.045   5.057   4.947  0.0503 -0.2152 -0.0789
18754THY    HA349629   8.023   5.145   5.007  2.4792  2.0118 -0.8630
18754THY    CA449630   8.057   5.071   4.809 -0.5512 -0.0899 -0.1745
18754THY    HA449631   8.033   5.170   4.769 -4.2501  1.9127 -0.0914
18754THY    CA549632   8.106   4.965   4.731 -1.1535  0.1929 -0.6543
18754THY    CM149633   8.137   5.002   4.585 -0.3427  0.6999 -0.5713
18754THY    HM149634   8.195   5.095   4.586  0.2993 -2.7788 -0.7876
18754THY    HM249635   8.049   5.032   4.527  1.2088 -2.4883 -1.6418
18754THY    HM349636   8.195   4.922   4.536  1.0943  2.9198 -0.9594
18754THY    CA649637   8.139   4.847   4.793 -0.5979 -0.4124 -0.3240
18754THY    HA649638   8.192   4.771   4.736 -0.6585  1.6888 -2.0515
18755THY      O49639   6.067   7.183   5.079  0.0917  0.0332  0.5678
18755THY     HO49640   6.076   7.257   5.016 -0.1353  2.7549  3.1200
18755THY    CA149641   6.053   7.236   5.208  0.7259 -0.1710  0.0611
18755THY    CA249642   6.010   7.164   5.320  0.0434  0.1528 -0.1420
18755THY    CP149643   5.964   7.018   5.309 -0.1896  0.0574  0.2045
18755THY    HP149644   5.924   6.990   5.210  0.9030  0.1608 -1.9768
18755THY    CP249645   5.868   6.964   5.422 -0.1111  0.7770 -0.5555
18755THY    HP249646   5.817   6.872   5.392  0.4476  1.6331 -1.1603
18755THY    HP349647   5.789   7.039   5.435 -1.0696 -0.2285 -1.3518
18755THY    HP449648   5.924   6.935   5.512 -0.6473  0.5262 -2.5413
18755THY    CP349649   6.100   6.930   5.329  0.7101 -0.9391  0.4273
18755THY    HP549650   6.145   6.963   5.424 -0.1079 -0.3898  0.0054
18755THY    HP649651   6.169   6.951   5.247 -0.3757 -2.2545 -0.9283
18755THY    HP749652   6.080   6.823   5.343 -0.5710 -0.6543  0.6817
18755THY    CA349653   6.005   7.235   5.440 -0.3003 -0.4724 -0.2966
18755THY    HA349654   5.979   7.189   5.536  0.4196  0.3401  0.9395
18755THY    CA449655   6.025   7.373   5.446  0.1036 -0.3225 -0.0075
18755THY    HA449656   6.003   7.422   5.541  2.3908  0.8155 -0.9891
18755THY    CA549657   6.075   7.441   5.338  0.1797 -0.3463  0.6857
18755THY    CM149658   6.112   7.583   5.343 -0.1442  0.5096  0.3340
18755THY    HM149659   6.125   7.606   5.237 -0.3022  0.3824 -0.1628
18755THY    HM249660   6.209   7.601   5.390 -1.0697  2.0137  1.6682
18755THY    HM349661   6.029   7.646   5.380 -1.4183 -1.7663  0.0900
18755THY    CA649662   6.091   7.367   5.218 -0.0523  0.7140 -0.5971
18755THY    HA649663   6.134   7.423   5.136 -1.7592 -0.1308 -0.4591
18756THY      O49664   7.175   3.991   4.316  0.1861  0.1784 -0.2250
18756THY     HO49665   7.234   3.998   4.393 -0.1432  0.3915  0.2645
18756THY    CA149666   7.131   4.118   4.287  0.2730  0.0822 -0.2143
18756THY    CA249667   7.006   4.142   4.220  0.1931 -0.1197  0.5786
18756THY    CP149668   6.924   4.024   4.174 -0.4467  0.5324  0.3927
18756THY    HP149669   6.981   3.933   4.192  0.4745 -0.6907  0.6926
18756THY    CP249670   6.883   4.028   4.025 -0.3284 -0.7407 -0.0228
18756THY    HP249671   6.837   3.934   3.993 -0.5541  1.3666 -0.6834
18756THY    HP349672   6.975   4.031   3.964 -0.2762 -0.6669 -0.1299
18756THY    HP449673   6.824   4.117   4.000 -1.3826  3.9904  0.8600
18756THY    CP349674   6.792   4.030   4.264 -0.1301 -0.0152 -0.2826
18756THY    HP549675   6.728   3.942   4.262 -0.5476  1.1178 -0.0257
18756THY    HP649676   6.726   4.106   4.221 -0.8122  1.3579 -0.0577
18756THY    HP749677   6.820   4.059   4.366  2.4456 -0.5283 -0.6623
18756THY    CA349678   6.966   4.277   4.194 -0.5262 -0.0603  0.1026
18756THY    HA349679   6.887   4.305   4.126  2.0762 -3.1509  0.5771
18756THY    CA449680   7.059   4.380   4.231  0.3705  0.0665  0.5754
18756THY    HA449681   7.039   4.486   4.220 -0.0636 -1.8153  0.3310
18756THY    CA549682   7.178   4.349   4.295 -0.4027 -1.0707  1.0002
18756THY    CM149683   7.261   4.453   4.347  0.7913 -0.1433  0.1559
18756THY    HM149684   7.365   4.433   4.320  0.5564 -0.5242 -0.5976
18756THY    HM249685   7.246   4.471   4.454 -0.6960 -0.3020  0.0454
18756THY    HM349686   7.238   4.546   4.292 -2.7198  0.1728 -0.3843
18756THY    CA649687   7.214   4.216   4.327  0.1034  0.4806 -0.4700
18756THY    HA649688   7.313   4.191   4.365 -0.0480  1.4369  0.3155
18757THY      O49689   4.157   6.274   6.270 -0.1428  0.4197  0.1821
18757THY     HO49690   4.073   6.231   6.294  0.5030  0.0484 -1.3493
18757THY    CA149691   4.138   6.331   6.150  0.0118  0.0226  0.1786
18757THY    CA249692   4.243   6.387   6.072 -0.3027  0.2538 -0.2473
18757THY    CP149693   4.388   6.369   6.119  0.3190  0.7599 -0.5164
18757THY    HP149694   4.394   6.316   6.215  1.6961  0.6699 -0.5566
18757THY    CP249695   4.457   6.510   6.138 -0.4007 -0.5031 -0.1274
18757THY    HP249696   4.429   6.569   6.226 -0.5001 -0.3874 -0.3486
18757THY    HP349697   4.461   6.572   6.047 -1.0981 -0.6454 -0.2743
18757THY    HP449698   4.561   6.485   6.159 -1.2141  1.5876 -2.1363
18757THY    CP349699   4.459   6.298   6.011  0.1302  0.9503  0.0428
18757THY    HP549700   4.408   6.203   5.994  1.0902  2.2600 -0.7369
18757THY    HP649701   4.563   6.270   6.031  0.1356 -1.1015 -1.7377
18757THY    HP749702   4.457   6.359   5.919  0.3547 -0.0582 -1.4291
18757THY    CA349703   4.213   6.452   5.954 -0.2041 -0.1083  0.1405
18757THY    HA349704   4.292   6.490   5.891 -0.5864 -1.2312 -0.8580
18757THY    CA449705   4.081   6.463   5.912 -0.4862 -0.3047  0.0839
18757THY    HA449706   4.049   6.503   5.816 -1.6189  0.2321  0.5151
18757THY    CA549707   3.978   6.417   5.990 -0.3412 -0.4022 -0.1139
18757THY    CM149708   3.839   6.405   5.934 -0.4974  0.4848  0.2427
18757THY    HM149709   3.819   6.488   5.864 -0.2211  1.1875  0.9210
18757THY    HM249710   3.762   6.419   6.011 -1.8081 -0.8448  0.6501
18757THY    HM349711   3.821   6.308   5.887 -0.6964 -1.6704  1.2664
18757THY    CA649712   4.004   6.342   6.109  0.1826  0.0607 -0.2329
18757THY    HA649713   3.921   6.301   6.166 -1.7128 -1.9514  0.6119
18758THY      O49714   5.496   4.314   7.834 -0.2789 -0.2216 -0.0993
18758THY     HO49715   5.563   4.314   7.904  1.6456 -1.9662  0.8706
18758THY    CA149716   5.547   4.268   7.715  0.3313 -0.2922  0.4398
18758THY    CA249717   5.684   4.282   7.676  0.0087  0.4880  0.6295
18758THY    CP149718   5.791   4.322   7.778  0.0214 -0.3380 -0.8474
18758THY    HP149719   5.749   4.380   7.861 -1.2159  0.0001 -2.1703
18758THY    CP249720   5.913   4.395   7.724  0.0067 -0.1493 -0.1190
18758THY    HP249721   5.892   4.492   7.678 -0.1441 -0.4992 -0.3145
18758THY    HP349722   5.964   4.339   7.644 -0.6317 -1.6385  1.3397
18758THY    HP449723   5.990   4.417   7.799  1.3381 -1.7961  1.1493
18758THY    CP349724   5.836   4.191   7.843  0.5714  0.1956  0.8805
18758THY    HP549725   5.874   4.124   7.765 -1.8931 -1.2055  1.0188
18758THY    HP649726   5.755   4.131   7.885 -0.5744 -1.4742  1.1821
18758THY    HP749727   5.912   4.212   7.919 -1.6560  3.0588 -0.7341
18758THY    CA349728   5.710   4.248   7.537  0.6191 -0.0636 -0.2304
18758THY    HA349729   5.808   4.259   7.493  0.8797  0.5101 -0.2249
18758THY    CA449730   5.604   4.209   7.450 -0.7220  0.0649  0.1752
18758THY    HA449731   5.628   4.199   7.344  1.2588  0.5813 -0.9814
18758THY    CA549732   5.479   4.179   7.498  0.1844  0.4943  0.1397
18758THY    CM149733   5.364   4.143   7.408 -0.0323  0.2469  0.4695
18758THY    HM149734   5.395   4.145   7.303  0.5719  0.3908 -0.4889
18758THY    HM249735   5.273   4.200   7.429 -2.0536  0.4340 -2.5477
18758THY    HM349736   5.328   4.040   7.421  0.9132 -0.0867  0.0837
18758THY    CA649737   5.452   4.216   7.632  0.6346 -0.3884 -0.2678
18758THY    HA649738   5.349   4.213   7.665  0.9201  0.5759  0.0964
18759THY      O49739   7.945   3.425   7.225 -0.2370 -0.4743  0.0862
18759THY     HO49740   7.868   3.477   7.254 -0.5976 -0.5800 -0.3825
18759THY    CA149741   8.004   3.387   7.340 -0.5665  0.0294  1.1592
18759THY    CA249742   8.131   3.319   7.349 -1.0183  0.7982  0.2140
18759THY    CP149743   8.201   3.262   7.220  0.0483 -0.1784 -0.2514
18759THY    HP149744   8.140   3.274   7.130  0.1319 -0.1182  0.7097
18759THY    CP249745   8.253   3.112   7.230 -0.1454 -0.6155 -0.4856
18759THY    HP249746   8.324   3.085   7.152  2.0750  1.4847 -1.0044
18759THY    HP349747   8.172   3.038   7.234  0.0750 -0.6511 -0.7264
18759THY    HP449748   8.310   3.099   7.323 -2.4838  2.0069  4.7516
18759THY    CP349749   8.330   3.345   7.194  0.3546 -0.1033 -0.1387
18759THY    HP549750   8.363   3.324   7.092  2.5753  0.4833  0.2576
18759THY    HP649751   8.410   3.315   7.262  0.4534 -0.1185  0.0881
18759THY    HP749752   8.307   3.452   7.201 -0.2836  3.3450 -0.3848
18759THY    CA349753   8.179   3.276   7.472 -0.5319 -0.3998  0.4344
18759THY    HA349754   8.266   3.213   7.485 -0.3788 -0.2997  0.6635
18759THY    CA449755   8.117   3.322   7.585 -0.2774 -0.8617  0.2081
18759THY    HA449756   8.165   3.297   7.679  1.8665 -1.2664  2.4004
18759THY    CA549757   7.994   3.391   7.582 -0.5281 -0.2603 -0.4836
18759THY    CM149758   7.926   3.425   7.713  0.1096  0.5714  0.5660
18759THY    HM149759   7.984   3.395   7.801  0.4710 -0.6784 -2.8807
18759THY    HM249760   7.836   3.362   7.723 -0.9810 -0.5485  1.8817
18759THY    HM349761   7.879   3.523   7.715 -0.6016 -0.1668  0.2546
18759THY    CA649762   7.937   3.415   7.459 -0.1031 -0.4784 -0.4360
18759THY    HA649763   7.835   3.454   7.459 -0.1322 -1.6965 -0.4726
18760THY      O49764   8.485   7.327   6.077 -0.1309  0.0583  0.9369
18760THY     HO49765   8.580   7.328   6.058 -0.2090 -0.3493  1.0429
18760THY    CA149766   8.467   7.359   6.204  0.3727  0.6620 -0.0099
18760THY    CA249767   8.358   7.307   6.270  0.6163 -0.3566  0.4871
18760THY    CP149768   8.250   7.229   6.191 -0.1467 -0.2105 -0.0607
18760THY    HP149769   8.300   7.180   6.107 -1.1878  0.2515 -2.0204
18760THY    CP249770   8.147   7.329   6.148  0.2878 -0.4090 -0.1123
18760THY    HP249771   8.066   7.272   6.102  0.6204 -1.3053  0.1154
18760THY    HP349772   8.182   7.392   6.065 -0.5696 -1.6545 -1.2150
18760THY    HP449773   8.111   7.387   6.234 -0.2933 -2.0123  2.0505
18760THY    CP349774   8.186   7.110   6.270  0.1248  0.4848 -0.8668
18760THY    HP549775   8.139   7.035   6.206  0.1362 -0.1963 -0.3022
18760THY    HP649776   8.104   7.149   6.332 -1.0712 -1.7253  0.3201
18760THY    HP749777   8.265   7.077   6.339  1.1442 -0.6711 -0.9148
18760THY    CA349778   8.339   7.345   6.406 -0.3129  0.4697 -0.0203
18760THY    HA349779   8.260   7.306   6.470 -0.1150  0.3627 -0.5983
18760THY    CA449780   8.434   7.419   6.475  0.3368  0.8324 -0.2863
18760THY    HA449781   8.416   7.437   6.580 -0.2700  0.7140 -0.1770
18760THY    CA549782   8.549   7.457   6.404  0.3550  0.6537 -0.1223
18760THY    CM149783   8.658   7.532   6.469 -0.6496 -0.3732  0.0052
18760THY    HM149784   8.624   7.634   6.491 -0.3069 -1.7796  0.4462
18760THY    HM249785   8.749   7.519   6.410  1.0010  1.8096  0.8761
18760THY    HM349786   8.682   7.485   6.565 -0.0930 -0.5413 -0.0609
18760THY    CA649787   8.559   7.440   6.266  0.4711 -0.0917  0.2221
18760THY    HA649788   8.647   7.475   6.213 -0.1135 -2.4100 -1.5694
18761THY      O49789   8.291   7.188   6.710  0.2636  0.0191 -0.1292
18761THY     HO49790   8.354   7.239   6.763 -1.6018  2.7602 -0.4622
18761THY    CA149791   8.322   7.067   6.762  0.3492 -0.4220  0.0551
18761THY    CA249792   8.245   6.954   6.724 -0.1833  0.1653 -0.1972
18761THY    CP149793   8.124   6.959   6.628  0.3314 -0.5320  0.3533
18761THY    HP149794   8.113   7.050   6.569 -1.3286  0.8364  1.1062
18761THY    CP249795   7.996   6.966   6.712  0.1871 -0.2114 -0.4029
18761THY    HP249796   7.911   6.909   6.674  0.1293 -0.1491 -0.3580
18761THY    HP349797   7.959   7.070   6.709  1.6267 -0.1840  0.1337
18761THY    HP449798   8.012   6.924   6.812 -1.7777 -0.0528 -0.8475
18761THY    CP349799   8.110   6.839   6.533 -0.1954  0.4022  0.5071
18761THY    HP549800   8.202   6.788   6.504  0.0360  0.4842  0.8762
18761THY    HP649801   8.073   6.879   6.438  1.4824  0.2963  1.8871
18761THY    HP749802   8.037   6.766   6.571 -0.6437 -2.6650 -0.7910
18761THY    CA349803   8.292   6.828   6.770 -0.5451 -0.3867 -0.6998
18761THY    HA349804   8.241   6.737   6.739  0.8846 -0.2211 -1.5898
18761THY    CA449805   8.403   6.829   6.847 -1.5209 -0.1808 -0.0010
18761THY    HA449806   8.449   6.735   6.875 -0.6911  0.5302  0.5938
18761THY    CA549807   8.474   6.938   6.888  0.2853  0.2419 -0.3550
18761THY    CM149808   8.589   6.929   6.994 -0.0975  0.1691  0.0423
18761THY    HM149809   8.663   7.010   6.994 -1.0044  0.4030  0.8742
18761THY    HM249810   8.652   6.840   6.979 -1.0266 -1.9074 -0.3310
18761THY    HM349811   8.548   6.917   7.094  0.6510  0.5687  0.6914
18761THY    CA649812   8.432   7.059   6.844  0.0355 -0.3528 -0.1171
18761THY    HA649813   8.491   7.147   6.869  0.3346  2.6966 -1.0642
18762THY      O49814   2.355   5.752   3.349  0.2621 -0.2289  0.0289
18762THY     HO49815   2.356   5.690   3.274  0.9360 -0.2717  0.0811
18762THY    CA149816   2.273   5.696   3.440  0.2112 -0.9461 -0.4193
18762THY    CA249817   2.234   5.768   3.557 -0.1654 -0.2200 -0.4988
18762THY    CP149818   2.291   5.908   3.578 -0.7647 -0.3437 -0.6634
18762THY    HP149819   2.379   5.922   3.515  1.7654  3.0340 -0.0864
18762THY    CP249820   2.355   5.927   3.720  0.2572  0.0604  0.6622
18762THY    HP249821   2.291   5.899   3.804  0.9627  0.4149  0.0798
18762THY    HP349822   2.372   6.035   3.728  0.1778 -3.2752  1.0096
18762THY    HP449823   2.457   5.889   3.737  0.1685  0.1587  0.4656
18762THY    CP349824   2.193   6.025   3.557 -0.1599 -0.3036  0.0878
18762THY    HP549825   2.133   6.017   3.465 -0.2206 -0.2251 -0.3860
18762THY    HP649826   2.261   6.110   3.557 -0.1459  0.9899  0.0831
18762THY    HP749827   2.131   6.029   3.647  0.4482  0.4084 -3.4356
18762THY    CA349828   2.144   5.707   3.646 -0.6548  0.3978 -0.1414
18762THY    HA349829   2.106   5.749   3.738 -0.2097  2.1972 -3.3528
18762THY    CA449830   2.103   5.579   3.628  0.2059 -0.0154 -0.1776
18762THY    HA449831   2.032   5.533   3.696 -0.3353 -0.5898 -0.2062
18762THY    CA549832   2.142   5.511   3.519 -0.4428  0.5594  0.0889
18762THY    CM149833   2.116   5.364   3.500 -0.5810  0.3813  0.0864
18762THY    HM149834   2.184   5.313   3.431 -1.2293  0.4300 -0.8734
18762THY    HM249835   2.025   5.344   3.441  0.1783 -0.0769 -2.2238
18762THY    HM349836   2.101   5.318   3.598  0.6884 -0.0372 -1.2671
18762THY    CA649837   2.227   5.566   3.417  0.6275  0.1886  0.0347
18762THY    HA649838   2.248   5.510   3.326  1.5042  1.0288 -1.0476
18763THY      O49839   8.964   5.984   6.768  0.0719 -0.0191  0.2386
18763THY     HO49840   9.015   5.999   6.849  0.4815  0.0192 -1.2327
18763THY    CA149841   8.916   5.857   6.780 -0.4343  0.4736  0.5154
18763THY    CA249842   8.820   5.803   6.692  0.1329  0.1570 -0.8745
18763THY    CP149843   8.753   5.898   6.592  0.2883 -0.5061 -0.1669
18763THY    HP149844   8.746   5.997   6.638  2.2552 -0.4431 -0.0173
18763THY    CP249845   8.602   5.858   6.569 -0.4239  0.2770 -0.8002
18763THY    HP249846   8.555   5.922   6.494 -0.1866  0.5734 -0.2591
18763THY    HP349847   8.552   5.866   6.666 -0.2867  0.2968 -0.0493
18763THY    HP449848   8.586   5.765   6.514 -1.5667 -0.8906  0.0555
18763THY    CP349849   8.821   5.915   6.459  0.7454  0.2329  0.0955
18763THY    HP549850   8.927   5.941   6.464  0.8754  1.6764 -0.6292
18763THY    HP649851   8.768   5.990   6.399  1.2446 -1.2420 -0.6900
18763THY    HP749852   8.813   5.819   6.407 -0.2548 -2.1192  1.3486
18763THY    CA349853   8.796   5.665   6.699  0.5362  0.1772  0.1982
18763THY    HA349854   8.734   5.617   6.624 -1.1300  1.0990  0.8348
18763THY    CA449855   8.853   5.588   6.805  0.4142  0.3781  0.2084
18763THY    HA449856   8.827   5.482   6.808  0.4880  1.6644  0.2124
18763THY    CA549857   8.938   5.649   6.900 -0.3003  0.0425  0.6191
18763THY    CM149858   8.999   5.553   6.998  0.3506 -0.1745  0.0677
18763THY    HM149859   9.100   5.589   7.020  0.0850 -0.3463  0.9450
18763THY    HM249860   9.009   5.451   6.959 -0.1545  2.2080 -0.9580
18763THY    HM349861   8.932   5.538   7.083 -0.0957 -0.5027  0.1880
18763THY    CA649862   8.972   5.781   6.890 -0.1430  0.4079 -0.5686
18763THY    HA649863   9.029   5.833   6.966 -2.5214  0.9047  1.5335
18764THY      O49864   4.273   3.713   7.376 -0.8568  0.4493 -0.3630
18764THY     HO49865   4.290   3.808   7.382  2.5763  0.3210 -0.8176
18764THY    CA149866   4.201   3.669   7.279  0.5329  0.0302  0.5574
18764THY    CA249867   4.213   3.537   7.236 -0.8630 -0.1355  0.1826
18764THY    CP149868   4.288   3.434   7.320  0.3146 -0.5342 -0.5789
18764THY    HP149869   4.307   3.479   7.418  1.5330 -1.2135  0.4336
18764THY    CP249870   4.431   3.404   7.269 -0.5733 -0.3733 -0.2599
18764THY    HP249871   4.489   3.379   7.359 -0.2287 -0.5350 -0.0538
18764THY    HP349872   4.482   3.497   7.240 -0.5476 -0.5471 -0.3286
18764THY    HP449873   4.438   3.334   7.185  3.3526 -0.2931 -0.2097
18764THY    CP349874   4.208   3.308   7.348 -0.4386  0.1636  0.1889
18764THY    HP549875   4.174   3.257   7.257  1.0598 -1.0267  1.2296
18764THY    HP649876   4.125   3.328   7.417 -0.6681  0.4842 -1.7094
18764THY    HP749877   4.265   3.234   7.405  0.2518 -1.9195 -0.9553
18764THY    CA349878   4.148   3.496   7.122  0.3327 -0.0695  0.0360
18764THY    HA349879   4.164   3.396   7.082  0.2936  0.7932 -0.3223
18764THY    CA449880   4.058   3.585   7.054  0.3446  0.1834  0.1110
18764THY    HA449881   3.999   3.535   6.978  0.9814  0.0062 -0.3862
18764THY    CA549882   4.039   3.713   7.103  0.2705 -1.0692  0.2471
18764THY    CM149883   3.916   3.797   7.053 -1.0755 -0.0250 -0.3287
18764THY    HM149884   3.947   3.897   7.021  1.2697 -0.1408 -1.0348
18764THY    HM249885   3.854   3.816   7.141 -1.8218 -0.9311  1.7565
18764THY    HM349886   3.855   3.749   6.976 -1.4941  1.4330 -2.2730
18764THY    CA649887   4.118   3.758   7.210 -0.2417 -0.1534 -0.0740
18764THY    HA649888   4.119   3.864   7.235 -0.1082 -1.5789  0.2830
18765THY      O49889   9.362   8.689   4.055  0.7289 -0.1496 -0.0941
18765THY     HO49890   9.382   8.603   4.096 -1.3711 -0.0136 -0.5583
18765THY    CA149891   9.226   8.676   4.051 -0.2075  0.8534  0.7513
18765THY    CA249892   9.148   8.701   3.939 -0.4358 -0.2449 -0.5874
18765THY    CP149893   9.209   8.727   3.803 -0.1498 -0.1206  0.1658
18765THY    HP149894   9.316   8.708   3.816 -0.1527 -0.6172 -0.2299
18765THY    CP249895   9.189   8.871   3.754 -0.7263 -0.4522 -0.6567
18765THY    HP249896   9.256   8.887   3.669  0.9132  1.0874  1.2489
18765THY    HP349897   9.219   8.940   3.834  0.2119  0.5191 -2.1508
18765THY    HP449898   9.084   8.895   3.735 -0.9555 -0.6591 -1.7965
18765THY    CP349899   9.157   8.627   3.696 -0.5133 -0.3924  0.0900
18765THY    HP549900   9.196   8.660   3.599 -1.3268  0.0005  2.3891
18765THY    HP649901   9.049   8.643   3.689 -0.8132 -1.7965 -2.0981
18765THY    HP749902   9.180   8.521   3.713  3.2986  0.5219  0.9317
18765THY    CA349903   9.007   8.707   3.954  0.5139 -0.2507 -0.3055
18765THY    HA349904   8.934   8.728   3.877 -2.0839  2.2511  0.4408
18765THY    CA449905   8.946   8.680   4.077 -0.8283 -0.5569 -0.7967
18765THY    HA449906   8.839   8.694   4.077 -0.9694 -1.1857 -1.7648
18765THY    CA549907   9.025   8.646   4.186 -0.4441 -0.0412  0.3127
18765THY    CM149908   8.968   8.606   4.323  0.1054  0.2844  0.0685
18765THY    HM149909   8.978   8.689   4.394 -0.9190  0.2960  0.1939
18765THY    HM249910   9.032   8.531   4.371  1.0147  2.1613  1.9403
18765THY    HM349911   8.864   8.572   4.324  0.1140  0.6239  0.0506
18765THY    CA649912   9.162   8.641   4.170  0.3642 -0.0536 -0.4006
18765THY    HA649913   9.230   8.630   4.254  2.2152 -1.2850  1.0683
18766THY      O49914   4.599   2.542   6.583  0.2789  0.7520 -0.3878
18766THY     HO49915   4.550   2.505   6.658 -0.7817  0.4992  0.4489
18766THY    CA149916   4.681   2.642   6.620  0.1499  0.4632 -0.1493
18766THY    CA249917   4.800   2.679   6.541  0.1444  0.0523  0.0332
18766THY    CP149918   4.822   2.615   6.407 -0.6007 -0.3519  0.3566
18766THY    HP149919   4.793   2.510   6.425  1.7501 -1.9259 -0.6456
18766THY    CP249920   4.971   2.605   6.368  0.0146  0.4603  0.1975
18766THY    HP249921   4.999   2.513   6.314  2.0638  0.3323  0.8402
18766THY    HP349922   5.032   2.617   6.459  1.9235 -0.4650 -1.6977
18766THY    HP449923   4.997   2.683   6.296  0.4215 -0.3458 -0.6515
18766THY    CP349924   4.744   2.678   6.297  0.3402  0.3321  0.3715
18766THY    HP549925   4.637   2.669   6.319  0.5477  0.5481 -2.2830
18766THY    HP649926   4.757   2.624   6.203 -1.5291  0.0285  0.3963
18766THY    HP749927   4.770   2.785   6.292  1.5031  3.0590  0.3019
18766THY    CA349928   4.876   2.789   6.584  0.3815 -0.3937 -0.0105
18766THY    HA349929   4.959   2.836   6.533 -1.6707 -2.4496  1.6558
18766THY    CA449930   4.842   2.844   6.712  0.1924 -0.2367  0.2734
18766THY    HA449931   4.899   2.924   6.756 -0.7072 -0.0987  0.8513
18766THY    CA549932   4.725   2.803   6.786  0.8378 -0.4231 -0.2718
18766THY    CM149933   4.686   2.872   6.913  0.2681  0.0220  0.1311
18766THY    HM149934   4.609   2.807   6.956 -1.0905 -0.9061  1.0705
18766THY    HM249935   4.649   2.972   6.887 -0.8442 -3.2780 -1.0223
18766THY    HM349936   4.763   2.886   6.990  1.9391 -1.2652 -1.4713
18766THY    CA649937   4.644   2.700   6.741 -0.0297  0.0886  1.1587
18766THY    HA649938   4.557   2.662   6.794  0.7134 -1.7723 -3.9675
18767THY      O49939   4.325   2.981   6.235 -0.5294 -0.4522 -0.6006
18767THY     HO49940   4.338   3.028   6.151  0.7509 -0.3065 -0.6585
18767THY    CA149941   4.328   3.081   6.327 -0.4930 -0.9265 -0.2784
18767THY    CA249942   4.322   3.066   6.470  0.1732  1.0402  0.1959
18767THY    CP149943   4.304   2.935   6.541 -0.1420  0.2212 -0.0335
18767THY    HP149944   4.275   2.863   6.464  0.5756 -0.5295  0.4623
18767THY    CP249945   4.195   2.934   6.649  0.6323 -0.3083  0.4074
18767THY    HP249946   4.171   2.829   6.670  1.2673 -0.3991  0.2382
18767THY    HP349947   4.101   2.974   6.610 -1.0317  0.2578 -2.6316
18767THY    HP449948   4.224   2.993   6.737  2.5083 -0.5200 -0.1325
18767THY    CP349949   4.429   2.894   6.604  0.0414 -0.5134 -0.0852
18767THY    HP549950   4.430   2.787   6.628 -1.2192  1.6883  0.3337
18767THY    HP649951   4.459   2.952   6.692  1.6225 -1.3753  0.4893
18767THY    HP749952   4.520   2.907   6.544  1.0417  1.3224  1.9727
18767THY    CA349953   4.342   3.185   6.543  0.2373  0.7661  0.4017
18767THY    HA349954   4.343   3.179   6.652 -0.6721  0.7778  0.2088
18767THY    CA449955   4.352   3.307   6.478 -0.8693  0.2437 -0.6214
18767THY    HA449956   4.343   3.396   6.541 -0.1845  2.0483 -1.7746
18767THY    CA549957   4.346   3.316   6.340  0.3652  0.5018 -0.3227
18767THY    CM149958   4.362   3.450   6.272  0.3496 -0.5125 -0.3676
18767THY    HM149959   4.279   3.516   6.300 -1.6373 -1.1127 -2.4773
18767THY    HM249960   4.359   3.446   6.162  0.8091 -0.4905 -2.4621
18767THY    HM349961   4.456   3.499   6.300 -0.1677  0.0343  0.3262
18767THY    CA649962   4.335   3.207   6.263 -0.5813 -0.2685  0.2073
18767THY    HA649963   4.326   3.213   6.155  1.9953 -0.5911 -0.6138
18768THY      O49964   7.693   1.905   3.084 -0.4828  0.1601 -0.4281
18768THY     HO49965   7.762   1.874   3.023 -0.1262  0.9774 -1.3286
18768THY    CA149966   7.590   1.951   3.027  0.6334  0.4783 -0.2385
18768THY    CA249967   7.500   2.022   3.102  0.5514 -0.9239 -0.5197
18768THY    CP149968   7.533   2.042   3.252  0.8636 -0.0692  0.1079
18768THY    HP149969   7.579   1.953   3.295  0.4148  1.8568  0.7452
18768THY    CP249970   7.417   2.062   3.340  0.1360 -0.4100 -0.3273
18768THY    HP249971   7.345   1.980   3.334 -1.2691  1.3790  0.6844
18768THY    HP349972   7.361   2.150   3.304 -1.6045 -0.3678 -1.3602
18768THY    HP449973   7.434   2.076   3.447 -3.2291  0.2332 -0.1203
18768THY    CP349974   7.641   2.148   3.277 -0.4915 -0.5411 -0.0898
18768THY    HP549975   7.584   2.241   3.264  0.0845  0.2335  0.3790
18768THY    HP649976   7.719   2.133   3.201 -0.2581 -0.0510 -1.5099
18768THY    HP749977   7.676   2.142   3.381  2.5802 -1.5263 -0.8554
18768THY    CA349978   7.393   2.093   3.036  0.7269 -0.1725  0.6669
18768THY    HA349979   7.322   2.151   3.094  1.2027  0.3204  0.7581
18768THY    CA449980   7.377   2.074   2.900  0.3405 -0.0176 -0.3790
18768THY    HA449981   7.282   2.103   2.855 -0.3054  1.0688 -0.7594
18768THY    CA549982   7.467   2.004   2.824 -0.2708  0.6031 -0.5988
18768THY    CM149983   7.446   1.988   2.677 -0.5079 -0.0315 -0.7180
18768THY    HM149984   7.535   2.009   2.617 -0.9483 -0.5655 -0.3362
18768THY    HM249985   7.383   2.067   2.634  0.7553 -3.6336 -1.5056
18768THY    HM349986   7.404   1.889   2.659  0.6177 -2.5437 -0.7969
18768THY    CA649987   7.580   1.947   2.881  0.0596 -0.6425 -0.4072
18768THY    HA649988   7.650   1.901   2.812 -0.7272 -1.5743 -0.2402
18769THY      O49989   5.853   6.018   5.565 -0.0009 -0.0884  0.4508
18769THY     HO49990   5.795   6.060   5.631 -0.5703 -0.7248  0.6745
18769THY    CA149991   5.926   5.944   5.645  0.2377 -0.3814  0.7552
18769THY    CA249992   6.008   5.841   5.598  0.5521 -0.0268 -0.7235
18769THY    CP149993   6.034   5.822   5.450  0.3355 -0.1389  0.0929
18769THY    HP149994   6.027   5.921   5.402  0.9650  0.7035  0.5591
18769THY    CP249995   5.928   5.730   5.390  0.3099  0.5206  0.4670
18769THY    HP249996   5.952   5.718   5.283  1.1924  0.6572  0.9291
18769THY    HP349997   5.828   5.774   5.395  0.8307  1.3513  1.6000
18769THY    HP449998   5.933   5.638   5.449  1.5334  2.0892  1.4771
18769THY    CP349999   6.180   5.770   5.411 -0.2513 -0.3484  0.1160
18769THY    HP550000   6.192   5.662   5.420 -0.7181 -2.8496 -0.1947
18769THY    HP650001   6.252   5.818   5.479 -0.6106  0.0883  0.0467
18769THY    HP750002   6.200   5.782   5.304  0.2299 -0.3438 -0.6179
18769THY    CA350003   6.080   5.759   5.688  0.2620 -0.4860 -0.1160
18769THY    HA350004   6.125   5.665   5.656  2.7558 -2.1846  1.4935
18769THY    CA450005   6.076   5.794   5.824 -0.3157 -0.0365 -0.0088
18769THY    HA450006   6.115   5.725   5.899 -1.9921 -1.2503 -2.4313
18769THY    CA550007   6.004   5.905   5.868  0.0354 -0.7585  0.0105
18769THY    CM150008   5.991   5.939   6.010 -0.5384  0.5670  0.1900
18769THY    HM150009   6.060   5.884   6.075 -0.9546  0.4536 -0.4805
18769THY    HM250010   5.895   5.911   6.056 -0.1271  1.0072 -0.5650
18769THY    HM350011   6.017   6.045   6.014 -0.3777 -0.9327  0.2295
18769THY    CA650012   5.927   5.984   5.779 -0.0977 -0.7708  0.0322
18769THY    HA650013   5.865   6.064   5.818  0.1279 -0.0725 -0.1237
18770THY      O50014   7.960   1.067   8.120  0.1742 -0.1435  0.2670
18770THY     HO50015   8.021   0.992   8.132 -1.4627  1.5523 -0.8608
18770THY    CA150016   7.911   1.063   7.996 -0.0805 -0.0253 -0.5699
18770THY    CA250017   7.805   1.146   7.953 -0.1828 -0.1156 -0.4920
18770THY    CP150018   7.736   1.234   8.050 -0.7956  0.1417  0.3418
18770THY    HP150019   7.781   1.229   8.150 -1.4643  0.4064 -0.8469
18770THY    CP250020   7.581   1.198   8.056 -0.1864 -0.8346 -0.4468
18770THY    HP250021   7.540   1.193   7.954 -0.0934 -0.8037 -2.2874
18770THY    HP350022   7.526   1.280   8.104  0.1870 -1.4575  0.1902
18770THY    HP450023   7.563   1.109   8.117  1.8084 -0.5387 -0.6959
18770THY    CP350024   7.758   1.374   8.001 -0.0292 -0.2102 -0.0125
18770THY    HP550025   7.719   1.445   8.074  0.3492 -0.8182  0.8400
18770THY    HP650026   7.715   1.397   7.902  0.6556 -0.6323 -0.5100
18770THY    HP750027   7.866   1.389   8.000  0.1521 -0.6860 -1.2228
18770THY    CA350028   7.759   1.143   7.816 -0.2933 -0.6464  0.2876
18770THY    HA350029   7.675   1.203   7.781  0.1901 -0.3691  1.1358
18770THY    CA450030   7.828   1.057   7.724  0.7363  0.1415  0.0718
18770THY    HA450031   7.811   1.049   7.617 -0.0835  0.3834 -1.8021
18770THY    CA550032   7.931   0.973   7.770  0.0714  0.4717 -0.0696
18770THY    CM150033   8.014   0.885   7.676 -0.0091  0.0801 -0.6190
18770THY    HM150034   8.063   0.809   7.738 -0.0346  0.2013 -0.5379
18770THY    HM250035   8.092   0.943   7.626 -1.4584 -2.0601 -0.3826
18770THY    HM350036   7.964   0.852   7.584 -2.8109  1.7329 -1.3125
18770THY    CA650037   7.979   0.987   7.903 -0.3933 -0.3465  0.4719
18770THY    HA650038   8.068   0.934   7.934  0.0141  0.9401  1.8413
18771THY      O50039   2.948   3.646   2.433  0.0255  0.4229 -0.3801
18771THY     HO50040   2.944   3.580   2.505  0.3153  0.3329 -0.4948
18771THY    CA150041   2.903   3.765   2.468 -0.4506  0.2427 -0.6731
18771THY    CA250042   2.949   3.874   2.392 -0.0802  0.4580  0.4188
18771THY    CP150043   3.051   3.857   2.279  0.2794 -0.5073 -0.0268
18771THY    HP150044   3.048   3.754   2.240 -1.3824  2.1251 -1.0558
18771THY    CP250045   3.191   3.885   2.327  0.6894 -0.2344  0.7053
18771THY    HP250046   3.195   3.991   2.357 -0.5624 -0.9421  0.9743
18771THY    HP350047   3.261   3.875   2.244  1.5825  0.7107 -1.4912
18771THY    HP450048   3.226   3.821   2.410  2.6811 -3.1423 -2.3161
18771THY    CP350049   3.000   3.933   2.158 -1.1379  0.8605  0.1428
18771THY    HP550050   2.898   3.898   2.135 -1.3974  2.2007 -0.0295
18771THY    HP650051   3.071   3.930   2.074  1.5768  3.0215 -0.3575
18771THY    HP750052   2.983   4.038   2.185 -1.0033  1.4667  0.0118
18771THY    CA350053   2.910   4.005   2.445 -0.3531  0.6016 -0.2987
18771THY    HA350054   2.926   4.097   2.388 -1.8364  0.0383 -0.3563
18771THY    CA450055   2.838   4.020   2.564 -0.1729 -0.2249 -0.1460
18771THY    HA450056   2.805   4.119   2.593  1.9139 -0.4462  0.6617
18771THY    CA550057   2.784   3.906   2.624 -0.3957  0.1733 -0.7563
18771THY    CM150058   2.701   3.915   2.740 -0.4425 -0.2547 -0.3153
18771THY    HM150059   2.665   4.016   2.761  2.7501  0.6472  0.7353
18771THY    HM250060   2.737   3.889   2.840 -0.5583 -0.0649  0.2364
18771THY    HM350061   2.617   3.845   2.731  0.5694  0.1230 -1.6139
18771THY    CA650062   2.829   3.777   2.588 -0.2273  0.1479  0.6022
18771THY    HA650063   2.787   3.692   2.641  0.3274 -1.3407 -0.6556
18772THY      O50064   6.755   5.875   7.258  0.2251  0.7235  0.6468
18772THY     HO50065   6.762   5.957   7.310  0.8665 -1.0391  1.7630
18772THY    CA150066   6.758   5.914   7.123 -0.6016 -0.4764  0.5546
18772THY    CA250067   6.817   5.835   7.027  0.3090  0.1049  1.2522
18772THY    CP150068   6.896   5.713   7.072 -0.0612 -0.6298 -0.7468
18772THY    HP150069   6.871   5.685   7.175  0.6435  0.0520  1.0057
18772THY    CP250070   7.043   5.753   7.079 -0.2956 -0.1492  0.0611
18772THY    HP250071   7.064   5.827   7.157 -0.9486  0.5284 -0.4517
18772THY    HP350072   7.083   5.796   6.986  0.7862 -0.7469 -2.0780
18772THY    HP450073   7.099   5.659   7.088 -0.7905 -2.1205 -0.4848
18772THY    CP350074   6.870   5.593   6.989  0.7036 -0.4883  0.0321
18772THY    HP550075   6.895   5.506   7.051  0.1338 -0.1596  0.0962
18772THY    HP650076   6.929   5.588   6.896  1.5632 -0.0017  0.9184
18772THY    HP750077   6.764   5.586   6.962 -0.1631  2.0409  1.9923
18772THY    CA350078   6.820   5.869   6.891  0.4474  0.1370 -0.2359
18772THY    HA350079   6.876   5.811   6.818  1.5902 -0.7844  1.8907
18772THY    CA450080   6.766   5.989   6.856 -0.5081  0.5473 -0.1967
18772THY    HA450081   6.774   6.014   6.751  1.0734 -0.0197 -2.7233
18772THY    CA550082   6.698   6.075   6.948  0.4806  0.1105 -0.1861
18772THY    CM150083   6.615   6.193   6.908  0.3309 -1.0218  0.3415
18772THY    HM150084   6.664   6.281   6.866 -0.6701 -2.6276  0.1839
18772THY    HM250085   6.564   6.220   7.001 -0.0371 -0.7735 -1.1198
18772THY    HM350086   6.540   6.159   6.835 -0.9658  1.6008 -2.9849
18772THY    CA650087   6.694   6.027   7.081  0.0945 -0.3184  0.0327
18772THY    HA650088   6.654   6.091   7.159  1.5017  0.0236  0.5352
18773THY      O50089   7.462   5.861   3.351 -0.1221 -0.1370 -0.5191
18773THY     HO50090   7.472   5.863   3.254 -2.0538 -0.3724  1.1366
18773THY    CA150091   7.505   5.984   3.398 -0.0367 -0.6245 -0.0883
18773THY    CA250092   7.449   6.032   3.522  0.2888 -0.4729  0.1163
18773THY    CP150093   7.353   5.943   3.600 -0.1917  0.0529 -0.2509
18773THY    HP150094   7.335   5.852   3.543  2.0530 -1.9241  0.4491
18773THY    CP250095   7.221   6.025   3.626  0.4247  0.4019 -0.5605
18773THY    HP250096   7.193   6.097   3.548 -3.2006 -1.8951 -4.0969
18773THY    HP350097   7.220   6.087   3.716 -1.1195  0.8459 -1.1958
18773THY    HP450098   7.139   5.953   3.624 -2.5978  0.1551  2.6070
18773THY    CP350099   7.414   5.890   3.735  0.7615  0.6717 -0.4237
18773THY    HP550100   7.424   5.968   3.811 -0.8780  1.4024 -0.8847
18773THY    HP650101   7.514   5.856   3.705 -0.5319 -3.9017 -0.8440
18773THY    HP750102   7.360   5.799   3.763  0.8234 -1.3579 -1.1354
18773THY    CA350103   7.492   6.158   3.562  0.1549 -0.0325  0.7573
18773THY    HA350104   7.455   6.214   3.647  2.8693 -0.4328  3.3918
18773THY    CA450105   7.576   6.224   3.479 -0.2098  0.0425 -0.0228
18773THY    HA450106   7.615   6.321   3.508 -3.5370 -0.9924  1.7878
18773THY    CA550107   7.626   6.181   3.356  0.5362 -0.0088 -0.7634
18773THY    CM150108   7.727   6.250   3.278 -0.5251 -0.0284  0.2340
18773THY    HM150109   7.685   6.348   3.250 -0.5519  0.9598  0.5213
18773THY    HM250110   7.757   6.202   3.185  0.5423  0.3312  0.1857
18773THY    HM350111   7.809   6.270   3.348 -1.3575  0.5883  1.6636
18773THY    CA650112   7.586   6.055   3.315  0.2309  0.9150 -0.1794
18773THY    HA650113   7.617   6.012   3.220 -0.4284  1.5368 -2.1724
18774THY      O50114   5.859   0.777   6.052  0.1405  0.2129  0.1639
18774THY     HO50115   5.801   0.725   5.994 -0.1912 -0.2139  0.9932
18774THY    CA150116   5.884   0.894   5.992  0.7100  0.2975  0.3829
18774THY    CA250117   5.972   0.989   6.042  0.7539 -0.1743 -0.2805
18774THY    CP150118   6.078   0.938   6.140 -0.8844  0.2136  0.9937
18774THY    HP150119   6.053   0.845   6.193  0.7146 -1.8919 -0.7590
18774THY    CP250120   6.109   1.038   6.252  0.2432  0.7114  0.5594
18774THY    HP250121   6.019   1.066   6.306  0.6262  2.1889 -0.8705
18774THY    HP350122   6.160   1.129   6.219 -1.4994  3.0606  2.4973
18774THY    HP450123   6.176   0.995   6.328  0.2247  1.9446  2.5916
18774THY    CP350124   6.210   0.909   6.063 -0.3674 -0.2984 -0.4610
18774THY    HP550125   6.196   0.838   5.981  0.3782 -1.1831  0.3807
18774THY    HP650126   6.294   0.882   6.128 -0.7337 -0.1877 -1.3541
18774THY    HP750127   6.232   1.005   6.014 -2.6174 -1.5979 -0.5283
18774THY    CA350128   5.962   1.122   5.998 -0.4690  0.3904 -0.1204
18774THY    HA350129   6.029   1.205   6.018  0.4609  1.0654 -1.0105
18774THY    CA450130   5.855   1.164   5.910 -0.3513  0.0332 -0.6240
18774THY    HA450131   5.847   1.268   5.880  0.2903  0.1432 -0.5381
18774THY    CA550132   5.772   1.062   5.860  0.3347 -0.2531  0.1647
18774THY    CM150133   5.660   1.086   5.758 -0.4843  0.1777  0.4267
18774THY    HM150134   5.690   1.030   5.668 -0.0692  2.2840 -3.0352
18774THY    HM250135   5.646   1.187   5.719 -0.1242 -1.6275 -0.1670
18774THY    HM350136   5.566   1.038   5.787  1.3590  3.5906 -1.4730
18774THY    CA650137   5.786   0.926   5.903 -0.3085 -0.7773 -0.5642
18774THY    HA650138   5.721   0.846   5.869  0.9207  0.8406 -2.3132
18775THY      O50139   4.011   2.759   7.336  0.4716 -0.4551 -0.3305
18775THY     HO50140   4.040   2.683   7.282  2.4894  0.8840 -0.5963
18775THY    CA150141   4.008   2.716   7.462  0.1694  0.9620  0.0118
18775THY    CA250142   4.002   2.800   7.570 -0.5824 -0.5495  0.4989
18775THY    CP150143   3.981   2.949   7.541 -0.2184  0.0595  0.5560
18775THY    HP150144   3.964   2.971   7.435 -1.4395  0.1952  0.3297
18775THY    CP250145   4.105   3.035   7.581 -0.8934 -0.1329  0.2279
18775THY    HP250146   4.085   3.140   7.555  0.7253 -2.9762 -0.0524
18775THY    HP350147   4.192   3.013   7.518 -1.0292 -0.6921  1.2112
18775THY    HP450148   4.122   3.029   7.689  1.1311 -0.4386 -0.1882
18775THY    CP350149   3.855   3.008   7.613  0.3129  0.0412 -0.1901
18775THY    HP550150   3.763   2.953   7.591 -0.3068 -2.2846  1.6246
18775THY    HP650151   3.849   3.115   7.591  0.9361  0.2890 -0.0988
18775THY    HP750152   3.869   3.001   7.721  1.1194  0.0426  1.0799
18775THY    CA350153   4.002   2.747   7.700 -0.4254 -0.3590  0.4784
18775THY    HA350154   3.995   2.815   7.785 -0.5714 -0.0633  0.1011
18775THY    CA450155   3.998   2.606   7.715  0.1691 -0.4738 -0.3709
18775THY    HA450156   3.993   2.566   7.816 -1.6806 -0.4019 -0.0742
18775THY    CA550157   4.001   2.522   7.611  0.6906  0.7058  0.1881
18775THY    CM150158   4.009   2.369   7.618 -0.1495  0.4809 -0.3293
18775THY    HM150159   3.984   2.332   7.718 -1.0018  1.4454  2.5565
18775THY    HM250160   4.107   2.333   7.587 -0.2528  2.0057 -2.0486
18775THY    HM350161   3.937   2.322   7.550  3.0373 -0.8774 -3.6921
18775THY    CA650162   3.999   2.576   7.484  0.4225 -0.2084  0.2045
18775THY    HA650163   3.995   2.511   7.396  1.9531  0.0666 -0.3063
18776THY      O50164   5.879   2.954   1.942 -0.4744 -0.2526 -1.0299
18776THY     HO50165   5.867   3.050   1.944 -0.7058  0.5363 -1.0717
18776THY    CA150166   5.786   2.896   1.862 -0.5537 -0.6305 -0.1398
18776THY    CA250167   5.793   2.755   1.830 -0.6318 -0.3156 -0.1055
18776THY    CP150168   5.893   2.660   1.897 -0.1510 -0.2352 -0.3581
18776THY    HP150169   5.924   2.697   1.995 -0.0759  0.4083 -2.0324
18776THY    CP250170   6.016   2.626   1.816  0.0800  0.3166 -0.3830
18776THY    HP250171   6.086   2.574   1.883 -1.0022 -0.4621 -3.0271
18776THY    HP350172   6.066   2.718   1.787  0.3340 -1.4219 -1.0322
18776THY    HP450173   6.008   2.565   1.725  2.3881 -1.7701  2.1980
18776THY    CP350174   5.820   2.529   1.930 -0.4446  0.0523  0.1635
18776THY    HP550175   5.739   2.544   2.002  1.2819  2.2213 -0.4146
18776THY    HP650176   5.895   2.462   1.974 -1.1617  3.2123  1.2979
18776THY    HP750177   5.786   2.484   1.835 -1.0086 -0.3340  1.3576
18776THY    CA350178   5.709   2.707   1.721 -0.7002  0.0159 -0.5052
18776THY    HA350179   5.716   2.604   1.686  1.6597  1.1673 -0.8020
18776THY    CA450180   5.610   2.798   1.680 -0.2016 -0.0467  0.2747
18776THY    HA450181   5.539   2.764   1.605 -0.4649  0.1830  0.3146
18776THY    CA550182   5.594   2.926   1.734  0.5376  0.4176  0.2156
18776THY    CM150183   5.481   3.017   1.695 -0.1424 -0.3962  0.5027
18776THY    HM150184   5.437   2.979   1.603 -1.7847  0.4885  0.1499
18776THY    HM250185   5.529   3.109   1.662 -2.1914 -2.1530  1.0232
18776THY    HM350186   5.404   3.029   1.772 -0.5067 -0.8044  0.8022
18776THY    CA650187   5.689   2.980   1.815 -0.7321 -0.0692  0.8031
18776THY    HA650188   5.684   3.082   1.851 -1.0046  1.5483  0.2513
18777THY      O50189   0.535   8.872   6.387 -0.4219 -0.4807  0.3086
18777THY     HO50190   0.591   8.893   6.464 -0.1419 -0.9491  1.3807
18777THY    CA150191   0.609   8.788   6.306  0.0295 -0.2411 -0.2623
18777THY    CA250192   0.561   8.748   6.179  0.7272 -0.1567  0.1698
18777THY    CP150193   0.421   8.798   6.133 -0.1856  0.3074 -0.0840
18777THY    HP150194   0.392   8.889   6.186 -1.8100  0.5421 -0.7155
18777THY    CP250195   0.322   8.677   6.153  0.2062  0.1979 -0.0423
18777THY    HP250196   0.341   8.633   6.252  0.3246  0.0264 -0.3779
18777THY    HP350197   0.331   8.597   6.079  0.4405 -0.5455  0.6557
18777THY    HP450198   0.218   8.712   6.148  0.2274  0.8538  0.1447
18777THY    CP350199   0.427   8.830   5.976  0.2478 -0.0742  0.6160
18777THY    HP550200   0.483   8.923   5.967  0.3747 -0.3385  0.5144
18777THY    HP650201   0.326   8.857   5.943 -0.1554 -0.4103 -1.1737
18777THY    HP750202   0.467   8.746   5.919  2.1775  2.3046 -0.1930
18777THY    CA350203   0.634   8.654   6.105 -0.3070 -0.2965 -0.3742
18777THY    HA350204   0.585   8.608   6.020 -2.5943  0.7715 -0.0882
18777THY    CA450205   0.754   8.610   6.155  0.0301 -0.5189  0.0037
18777THY    HA450206   0.800   8.528   6.101  0.6391  2.8545 -2.0494
18777THY    CA550207   0.800   8.647   6.283 -0.5116 -0.0074  0.4043
18777THY    CM150208   0.938   8.612   6.315  0.0129  0.6901 -0.2459
18777THY    HM150209   0.979   8.653   6.408  0.2680  0.7218 -0.5721
18777THY    HM250210   1.011   8.634   6.236 -1.0114 -0.0797  0.4808
18777THY    HM350211   0.942   8.504   6.329  3.2755 -1.0626 -0.4866
18777THY    CA650212   0.732   8.741   6.357  0.6628 -0.8699 -0.1633
18777THY    HA650213   0.774   8.790   6.444 -0.4363 -1.5167  2.0323
18778THY      O50214   8.915   0.471   4.435  0.3545  0.0254  0.2908
18778THY     HO50215   8.927   0.403   4.504  0.8508 -2.4168 -2.2537
18778THY    CA150216   8.863   0.576   4.497 -0.2467  0.4429 -0.6761
18778THY    CA250217   8.842   0.700   4.429  0.3636 -1.0442  0.3360
18778THY    CP150218   8.874   0.716   4.283  0.4477  0.5571 -0.8252
18778THY    HP150219   8.830   0.633   4.225  1.2375 -0.6283 -0.4485
18778THY    CP250220   9.030   0.721   4.264 -0.2572  0.0437  0.5663
18778THY    HP250221   9.065   0.721   4.160 -0.6660 -0.0959  0.2691
18778THY    HP350222   9.079   0.632   4.305 -1.4648 -1.4759 -0.8538
18778THY    HP450223   9.067   0.808   4.321 -0.0097  1.8776 -0.6847
18778THY    CP350224   8.827   0.845   4.216  0.9875 -0.0220 -0.3101
18778THY    HP550225   8.729   0.873   4.257  2.0275  1.7875  0.8780
18778THY    HP650226   8.817   0.828   4.108  0.1299  0.0081 -0.0412
18778THY    HP750227   8.887   0.935   4.231  0.8537 -0.2909 -0.1762
18778THY    CA350228   8.805   0.812   4.506  1.5672 -0.2463  0.0307
18778THY    HA350229   8.806   0.909   4.459 -0.0487  1.2283  0.8242
18778THY    CA450230   8.773   0.792   4.642 -0.1955 -0.3621 -0.2950
18778THY    HA450231   8.732   0.875   4.698  0.1885 -0.7356  0.1542
18778THY    CA550232   8.801   0.674   4.714 -0.2127  0.0684  0.3043
18778THY    CM150233   8.786   0.658   4.864 -0.1382 -0.4542  0.0388
18778THY    HM150234   8.852   0.579   4.900  1.0196  0.7183  1.4773
18778THY    HM250235   8.687   0.631   4.902  0.8845  2.7051  0.3456
18778THY    HM350236   8.817   0.755   4.905 -0.5557 -1.2418  0.5267
18778THY    CA650237   8.842   0.566   4.639  0.6443 -0.2904 -0.3409
18778THY    HA650238   8.879   0.477   4.689  1.3918 -3.9814 -2.2877
18779THY      O50239   4.858   5.198   5.998  0.3820 -0.2404 -0.1037
18779THY     HO50240   4.855   5.152   6.084  2.3267 -0.7452 -1.2831
18779THY    CA150241   4.874   5.330   6.033  0.4660 -0.2839  1.2285
18779THY    CA250242   4.881   5.418   5.928  0.2996  0.0983 -0.0350
18779THY    CP150243   4.869   5.359   5.779  0.0102  0.8883 -0.1570
18779THY    HP150244   4.921   5.263   5.779 -0.8711  1.6745 -0.6558
18779THY    CP250245   4.940   5.448   5.679  0.2148  0.2518  0.5644
18779THY    HP250246   5.036   5.480   5.721 -0.0806  0.5827  1.0292
18779THY    HP350247   4.884   5.541   5.661  0.5945 -0.0629  0.7363
18779THY    HP450248   4.969   5.405   5.582 -1.5171 -0.6089  1.2290
18779THY    CP350249   4.722   5.323   5.739 -0.1212 -0.3246 -0.6796
18779THY    HP550250   4.717   5.264   5.647  0.9735  0.3245 -1.8333
18779THY    HP650251   4.650   5.405   5.737 -0.1618 -0.3881 -0.7164
18779THY    HP750252   4.674   5.260   5.814  0.2335  1.4855  1.0762
18779THY    CA350253   4.898   5.555   5.951 -0.3525 -0.0094  0.6113
18779THY    HA350254   4.891   5.626   5.869 -0.8601 -1.2051 -0.7628
18779THY    CA450255   4.905   5.599   6.083 -0.0028 -0.4992  0.0008
18779THY    HA450256   4.906   5.706   6.105  0.1179 -2.2885  0.3968
18779THY    CA550257   4.881   5.507   6.196 -0.4881  0.3037 -0.3505
18779THY    CM150258   4.873   5.560   6.344 -0.1358  0.2141 -0.0291
18779THY    HM150259   4.963   5.540   6.403  0.0167  0.2779  0.7835
18779THY    HM250260   4.782   5.519   6.389 -0.5143 -0.4452  0.0709
18779THY    HM350261   4.871   5.670   6.335  1.2332  1.0225  0.0937
18779THY    CA650262   4.862   5.371   6.169  0.0751 -0.2914 -0.8884
18779THY    HA650263   4.829   5.297   6.241  1.4641  0.2666 -1.0032
18780THY      O50264   2.821   7.527   4.835  0.1196 -0.0273 -0.2208
18780THY     HO50265   2.895   7.576   4.796  0.9344 -0.0593 -1.4264
18780THY    CA150266   2.812   7.560   4.965 -0.4573 -0.3136 -0.1180
18780THY    CA250267   2.771   7.469   5.067  0.6217  0.7306  0.2304
18780THY    CP150268   2.727   7.333   5.027  0.2397 -0.0041 -0.4137
18780THY    HP150269   2.742   7.331   4.919 -0.1908 -0.0658 -0.3570
18780THY    CP250270   2.578   7.298   5.058 -0.1282  0.1180 -0.0021
18780THY    HP250271   2.508   7.368   5.010 -1.9892  1.0476 -1.1469
18780THY    HP350272   2.554   7.293   5.165  0.2769  0.1910 -0.4850
18780THY    HP450273   2.552   7.205   5.007  0.5819  1.3768 -0.9212
18780THY    CP350274   2.815   7.228   5.103  0.4410 -0.2251  0.3674
18780THY    HP550275   2.795   7.232   5.211 -1.9749 -0.5369 -1.3028
18780THY    HP650276   2.921   7.252   5.100  0.2846  2.3040  1.7338
18780THY    HP750277   2.784   7.132   5.060 -3.1448  0.6390  0.9928
18780THY    CA350278   2.769   7.511   5.206 -0.2947 -0.2410 -0.4473
18780THY    HA350279   2.737   7.447   5.287 -1.1537  0.1714  0.4852
18780THY    CA450280   2.810   7.643   5.231  0.1298 -0.6792  0.2827
18780THY    HA450281   2.812   7.677   5.334  0.3503 -0.0417 -1.5632
18780THY    CA550282   2.837   7.735   5.133 -0.1482  0.1411  0.8079
18780THY    CM150283   2.874   7.874   5.160 -0.0750  0.3355  0.1602
18780THY    HM150284   2.983   7.868   5.168 -0.1395  1.6362  0.3169
18780THY    HM250285   2.827   7.915   5.251  0.0878  0.9046 -0.8946
18780THY    HM350286   2.852   7.937   5.073  1.3186  0.6195  1.0816
18780THY    CA650287   2.841   7.690   4.997  0.1589  0.3182 -0.0750
18780THY    HA650288   2.863   7.760   4.917 -0.3699  0.4274  0.2243
18781THY      O50289   0.912   3.895   5.299  0.1250 -0.2969 -0.0800
18781THY     HO50290   0.823   3.897   5.260  0.0556 -0.1152  1.0869
18781THY    CA150291   0.973   3.780   5.267 -0.0756  0.1107 -0.5974
18781THY    CA250292   1.097   3.744   5.321 -0.1118  0.2244  0.4950
18781THY    CP150293   1.163   3.842   5.417 -0.6003 -0.1322 -0.1736
18781THY    HP150294   1.123   3.943   5.401 -0.4976 -1.6887 -0.3545
18781THY    CP250295   1.316   3.852   5.387 -0.1373  0.1279 -0.0701
18781THY    HP250296   1.351   3.825   5.287  0.3398  1.1017 -3.6563
18781THY    HP350297   1.364   3.776   5.451  1.0304 -1.6976 -0.9300
18781THY    HP450298   1.357   3.949   5.417  0.5524 -0.2168 -0.2462
18781THY    CP350299   1.138   3.810   5.563  0.3451 -0.0756  0.2591
18781THY    HP550300   1.042   3.857   5.589  0.0596 -2.6537  1.2163
18781THY    HP650301   1.228   3.840   5.619  0.8028 -1.3340  1.3272
18781THY    HP750302   1.125   3.703   5.581  0.3579  0.9422  0.4124
18781THY    CA350303   1.147   3.613   5.296  0.8714  0.1826  0.0681
18781THY    HA350304   1.240   3.581   5.342  1.2023  0.0278  0.7795
18781THY    CA450305   1.068   3.524   5.219 -0.1293  0.5251 -0.4319
18781THY    HA450306   1.101   3.421   5.207 -2.7754 -3.0369 -1.0787
18781THY    CA550307   0.953   3.568   5.155 -0.0014 -0.3136  0.2904
18781THY    CM150308   0.875   3.474   5.070  0.1273 -0.4212  0.6767
18781THY    HM150309   0.853   3.538   4.984 -1.2512 -0.2776  0.4206
18781THY    HM250310   0.786   3.430   5.116  3.0967  4.3156 -1.2493
18781THY    HM350311   0.944   3.399   5.030  1.7425  1.6803  0.9262
18781THY    CA650312   0.902   3.700   5.178  0.1131 -0.7163  0.3549
18781THY    HA650313   0.807   3.737   5.141  1.0564 -2.0610  1.5601
18782THY      O50314   8.474   3.368   5.027  0.3840 -0.7799 -0.2626
18782THY     HO50315   8.478   3.303   5.099  0.7095  0.8638  1.4812
18782THY    CA150316   8.601   3.407   5.001 -0.9492  0.2382  0.8740
18782THY    CA250317   8.639   3.536   4.960  0.6006  0.4234 -0.2759
18782THY    CP150318   8.535   3.655   4.944 -0.1118  1.2444  0.0730
18782THY    HP150319   8.440   3.615   4.983  1.1406  3.3088 -1.1083
18782THY    CP250320   8.516   3.695   4.796 -0.7815  0.0235  0.0180
18782THY    HP250321   8.614   3.685   4.749 -0.4051  0.6895  0.4915
18782THY    HP350322   8.489   3.798   4.767 -1.2728 -1.2496 -0.4417
18782THY    HP450323   8.452   3.626   4.739 -0.1099 -1.4354  0.5567
18782THY    CP350324   8.587   3.778   5.021  0.1007  0.3355 -0.1600
18782THY    HP550325   8.600   3.747   5.125  3.5873 -0.2064 -0.8779
18782THY    HP650326   8.503   3.849   5.017  1.0529 -0.1234  0.9848
18782THY    HP750327   8.676   3.824   4.977  0.2452  0.8518  0.0537
18782THY    CA350328   8.770   3.554   4.919 -0.1105 -0.3743 -0.1930
18782THY    HA350329   8.816   3.642   4.874  1.5678  0.4606 -0.5956
18782THY    CA450330   8.860   3.444   4.915  0.1488  0.2578  0.4478
18782THY    HA450331   8.962   3.461   4.881 -0.0121  0.1664  1.3049
18782THY    CA550332   8.822   3.321   4.965  0.2377  0.0138  0.0633
18782THY    CM150333   8.917   3.214   4.992 -0.2036  0.2200 -0.0894
18782THY    HM150334   8.876   3.139   5.061 -0.5812  0.8915  0.7206
18782THY    HM250335   9.011   3.233   5.043  1.3717 -1.1597 -3.3330
18782THY    HM350336   8.947   3.170   4.896  1.4021  0.0195  1.3696
18782THY    CA650337   8.692   3.301   5.003  0.3401  0.3208 -0.2485
18782THY    HA650338   8.661   3.202   5.034 -2.0485 -0.9116  0.0311
18783THY      O50339   2.899   7.854   3.715  0.1226 -0.4510  0.3739
18783THY     HO50340   2.928   7.825   3.627  0.4598 -0.4349  0.6634
18783THY    CA150341   2.945   7.978   3.741  0.1673  0.6561 -0.0046
18783THY    CA250342   2.930   8.040   3.862 -0.4702  0.2674  0.1370
18783THY    CP150343   2.855   7.974   3.977 -0.2249  0.1780  0.0885
18783THY    HP150344   2.766   7.925   3.938 -1.8389  0.8113  2.3640
18783THY    CP250345   2.799   8.077   4.076  0.5824 -0.9318  0.4386
18783THY    HP250346   2.868   8.108   4.156 -2.4902  2.0405  0.2539
18783THY    HP350347   2.715   8.041   4.137  0.3714  0.2209  2.6890
18783THY    HP450348   2.763   8.170   4.030  0.2966  2.3769  2.1311
18783THY    CP350349   2.943   7.874   4.051 -0.7362  0.1800  0.5512
18783THY    HP550350   2.899   7.835   4.144  0.1595  0.0183 -0.9672
18783THY    HP650351   3.045   7.908   4.071 -0.8938 -0.4673  1.4264
18783THY    HP750352   2.965   7.782   3.995  0.6414  0.2038  0.8455
18783THY    CA350353   3.003   8.160   3.883 -0.2856 -0.2915 -0.6419
18783THY    HA350354   3.007   8.215   3.977 -1.1329 -0.3212 -0.5201
18783THY    CA450355   3.069   8.218   3.778 -0.8560  0.0353 -0.2246
18783THY    HA450356   3.121   8.311   3.799 -0.6654 -0.1035 -0.3003
18783THY    CA550357   3.062   8.158   3.656  0.2489 -0.4740 -0.6467
18783THY    CM150358   3.113   8.241   3.546  0.4159  0.1720 -0.5418
18783THY    HM150359   3.139   8.183   3.456  0.9086  1.1983 -1.9881
18783THY    HM250360   3.209   8.289   3.569  1.5300 -3.2912 -0.8641
18783THY    HM350361   3.038   8.313   3.513 -0.8756  1.6407 -1.1535
18783THY    CA650362   3.010   8.036   3.640 -0.3017 -0.4311 -0.3864
18783THY    HA650363   3.007   7.991   3.541  0.3018 -1.2070  1.2194
18784THY      O50364   9.067   7.373   6.430 -0.3236 -0.2192 -0.2863
18784THY     HO50365   9.024   7.446   6.383  0.0704  2.5661  1.9356
18784THY    CA150366   9.086   7.424   6.556 -0.0198  0.3309 -0.4505
18784THY    CA250367   9.155   7.355   6.662 -0.1406  0.4664 -0.4482
18784THY    CP150368   9.224   7.218   6.636  0.6157  0.7574  0.0717
18784THY    HP150369   9.217   7.189   6.531  1.7796  0.5954  0.3087
18784THY    CP250370   9.151   7.113   6.717  0.0157 -0.0225 -0.4497
18784THY    HP250371   9.160   7.130   6.825 -1.6811  0.0385  0.2052
18784THY    HP350372   9.180   7.015   6.677  1.5704 -2.9019  1.0611
18784THY    HP450373   9.044   7.123   6.697 -0.2838  1.6997  0.1790
18784THY    CP350374   9.374   7.221   6.671  0.2835  0.1562 -0.0009
18784THY    HP550375   9.417   7.121   6.658  0.1157 -0.2165 -0.0255
18784THY    HP650376   9.390   7.246   6.777  2.1034  0.0559 -0.6252
18784THY    HP750377   9.431   7.285   6.604  0.0618 -1.4872 -1.4546
18784THY    CA350378   9.163   7.408   6.791  0.1276 -0.1071  0.2741
18784THY    HA350379   9.214   7.358   6.873 -0.8267  2.4492  3.1414
18784THY    CA450380   9.102   7.529   6.810  0.0487  0.0497  0.8662
18784THY    HA450381   9.104   7.568   6.911 -0.2688  0.4419 -0.1247
18784THY    CA550382   9.042   7.601   6.705  0.1260  0.9337  0.0821
18784THY    CM150383   8.970   7.736   6.737 -0.6833  0.4239 -0.2261
18784THY    HM150384   8.964   7.758   6.845  1.9137  0.5562  0.1843
18784THY    HM250385   8.868   7.738   6.699  0.1350 -1.9015  0.6215
18784THY    HM350386   9.036   7.812   6.695  2.0761  2.5426 -1.2594
18784THY    CA650387   9.041   7.556   6.580 -0.0282  0.3371  0.3728
18784THY    HA650388   9.001   7.625   6.506  0.0157 -0.4642 -0.4474
18785THY      O50389   1.386   1.594   5.016  0.9354  0.2108  0.3809
18785THY     HO50390   1.464   1.540   5.040 -0.4480  1.1987 -1.2643
18785THY    CA150391   1.286   1.561   5.101 -0.1462  0.5817  0.1121
18785THY    CA250392   1.220   1.441   5.096 -0.0855  0.2296 -0.5005
18785THY    CP150393   1.245   1.340   4.984  0.8617 -0.1712 -0.5041
18785THY    HP150394   1.354   1.339   4.971  0.7841 -1.0256  0.6257
18785THY    CP250395   1.191   1.377   4.849 -0.2651 -0.1860 -0.6048
18785THY    HP250396   1.260   1.346   4.770  0.6479  0.7620 -1.0540
18785THY    HP350397   1.185   1.486   4.841  0.8290 -0.8814 -0.5851
18785THY    HP450398   1.089   1.340   4.830 -1.7069 -0.7633  3.2182
18785THY    CP350399   1.209   1.197   5.032 -0.3485  0.2357 -0.2990
18785THY    HP550400   1.118   1.190   5.093 -0.7838 -0.1035  1.6513
18785THY    HP650401   1.291   1.168   5.098  2.0148 -2.6295 -0.6134
18785THY    HP750402   1.216   1.128   4.947  0.3362  1.1142 -1.3504
18785THY    CA350403   1.115   1.422   5.196  0.0340 -0.0306 -0.9928
18785THY    HA350404   1.047   1.337   5.195  1.4016  0.4712 -2.1431
18785THY    CA450405   1.091   1.525   5.290  0.1478  0.5498  0.5602
18785THY    HA450406   1.010   1.515   5.362 -1.3955 -1.0900  0.9032
18785THY    CA550407   1.173   1.636   5.294  0.9140 -0.2230 -0.1814
18785THY    CM150408   1.153   1.738   5.399  0.5604 -0.2937 -0.2118
18785THY    HM150409   1.148   1.707   5.504 -2.5693  0.5830  2.7550
18785THY    HM250410   1.057   1.787   5.381 -0.4189 -0.0776 -1.9507
18785THY    HM350411   1.233   1.813   5.399 -0.7787  0.8454  1.2836
18785THY    CA650412   1.267   1.656   5.197 -0.2634  0.9478  0.0976
18785THY    HA650413   1.319   1.751   5.194  0.5966 -0.7025 -0.3877
18786THY      O50414   5.677   6.415   4.048  0.2952 -0.0209  0.0891
18786THY     HO50415   5.614   6.426   3.975 -0.2569  0.4255 -0.1081
18786THY    CA150416   5.621   6.474   4.159  0.1395  0.1569 -0.6049
18786THY    CA250417   5.697   6.543   4.258  0.9478  0.2593  0.1803
18786THY    CP150418   5.849   6.541   4.246 -0.1007 -0.0691 -0.2101
18786THY    HP150419   5.882   6.473   4.167 -0.2879 -2.4263  2.2719
18786THY    CP250420   5.906   6.488   4.373 -0.9797  0.5430 -0.9860
18786THY    HP250421   5.925   6.574   4.439  0.6865 -0.5395 -0.4772
18786THY    HP350422   6.000   6.435   4.359  0.5016  0.6296  1.4467
18786THY    HP450423   5.838   6.412   4.413 -0.8814 -3.5487 -3.5351
18786THY    CP350424   5.920   6.674   4.200  0.3052 -0.0667  0.1492
18786THY    HP550425   5.903   6.759   4.268  0.3774  0.8520 -0.5528
18786THY    HP650426   5.893   6.697   4.096 -0.3786  0.5044  2.1529
18786THY    HP750427   6.029   6.665   4.205  0.1951  1.6214 -0.6056
18786THY    CA350428   5.627   6.596   4.369  0.2989  0.0929 -1.0234
18786THY    HA350429   5.673   6.637   4.458 -0.4543  1.2070 -2.5163
18786THY    CA450430   5.489   6.595   4.371  1.5002  0.4571 -0.5102
18786THY    HA450431   5.434   6.630   4.458 -1.3618 -1.7138  0.8097
18786THY    CA550432   5.414   6.533   4.268  0.1483 -0.3453 -0.2470
18786THY    CM150433   5.263   6.522   4.293 -0.6777 -0.3820  0.5205
18786THY    HM150434   5.206   6.490   4.205 -0.0716  0.2688 -2.6057
18786THY    HM250435   5.226   6.617   4.334  1.1381 -0.4173  1.2786
18786THY    HM350436   5.254   6.455   4.379 -0.6425 -0.2340  0.7055
18786THY    CA650437   5.478   6.473   4.162  0.1911 -0.2272 -0.4063
18786THY    HA650438   5.425   6.419   4.084  1.5921 -1.0043 -0.7149
18787THY      O50439   0.426   7.408   2.909 -0.2822  0.9699 -0.2306
18787THY     HO50440   0.443   7.504   2.911 -1.1150 -3.0901  0.1951
18787THY    CA150441   0.351   7.397   2.796 -0.2046  0.0545  0.1611
18787THY    CA250442   0.284   7.277   2.771 -0.1125  0.0965 -0.5046
18787THY    CP150443   0.306   7.158   2.866  0.2058  0.0340 -0.0651
18787THY    HP150444   0.386   7.180   2.938 -0.9845  1.0418  1.1316
18787THY    CP250445   0.339   7.022   2.795 -0.2172  0.9621  0.2728
18787THY    HP250446   0.370   6.954   2.875 -1.0564  1.9785  1.0634
18787THY    HP350447   0.422   7.035   2.723 -0.5429  0.6028  0.3776
18787THY    HP450448   0.262   6.975   2.733  2.3833 -3.5126  1.2272
18787THY    CP350449   0.176   7.129   2.960 -0.8984  0.0637 -0.3099
18787THY    HP550450   0.087   7.098   2.904 -0.6643 -2.0917  2.5385
18787THY    HP650451   0.146   7.220   3.015 -0.4383 -0.9224  0.4548
18787THY    HP750452   0.200   7.055   3.037  1.8602 -1.8449 -1.5517
18787THY    CA350453   0.210   7.266   2.651 -1.1278 -0.1246 -0.3685
18787THY    HA350454   0.163   7.170   2.629  1.6365 -1.2698 -1.5813
18787THY    CA450455   0.194   7.378   2.570 -0.3145 -0.2796  0.1500
18787THY    HA450456   0.143   7.368   2.474  1.7835 -1.2975 -2.0691
18787THY    CA550457   0.257   7.498   2.603  0.1818 -0.1056  0.1220
18787THY    CM150458   0.251   7.612   2.507  0.3889  0.1823 -0.5735
18787THY    HM150459   0.269   7.707   2.558  0.0413 -0.4266 -0.1758
18787THY    HM250460   0.156   7.622   2.454  0.0114  0.9224 -0.2316
18787THY    HM350461   0.333   7.592   2.436 -0.5390 -1.7949  2.1104
18787THY    CA650462   0.343   7.502   2.708 -0.1202 -0.5619 -0.3888
18787THY    HA650463   0.397   7.593   2.732  0.5840 -2.0222 -0.4047
18788THY      O50464   8.419   6.067   3.263  0.4685  0.2807 -0.1655
18788THY     HO50465   8.494   6.006   3.263  0.6520  0.5006  0.0558
18788THY    CA150466   8.437   6.152   3.160 -0.0744 -0.2070 -0.2605
18788THY    CA250467   8.328   6.221   3.110 -0.3318  0.8692 -0.4412
18788THY    CP150468   8.188   6.210   3.178  0.5942 -0.4234  0.0214
18788THY    HP150469   8.175   6.119   3.238 -1.9556  0.6785  1.0185
18788THY    CP250470   8.065   6.228   3.089 -0.1908 -0.3617  0.3763
18788THY    HP250471   7.984   6.194   3.155  0.6783  0.7312  0.3616
18788THY    HP350472   8.067   6.164   3.000 -0.9942  1.0468 -1.7262
18788THY    HP450473   8.045   6.336   3.082  3.7885  1.4336  1.4443
18788THY    CP350474   8.191   6.317   3.290  0.1580 -0.2440  0.2574
18788THY    HP550475   8.270   6.298   3.363  0.3419 -0.3103  0.7633
18788THY    HP650476   8.100   6.309   3.352 -0.0944 -0.6949 -0.4527
18788THY    HP750477   8.198   6.417   3.247  2.2132 -2.2686 -0.6811
18788THY    CA350478   8.347   6.311   2.994 -0.7353 -0.5204 -0.4423
18788THY    HA350479   8.267   6.366   2.945 -0.4114 -0.5702 -0.0121
18788THY    CA450480   8.481   6.315   2.940  0.1867 -0.0814 -0.3094
18788THY    HA450481   8.490   6.387   2.859 -0.8086 -0.6275 -0.7755
18788THY    CA550482   8.580   6.229   2.982  1.0041 -0.3920 -0.0362
18788THY    CM150483   8.713   6.250   2.913  0.9266 -0.5079  0.6028
18788THY    HM150484   8.792   6.186   2.954  0.8191  1.6621  1.7568
18788THY    HM250485   8.746   6.352   2.940 -1.8229  0.3937  1.3456
18788THY    HM350486   8.702   6.232   2.806  2.2778 -0.1630 -2.9524
18788THY    CA650487   8.558   6.147   3.097 -0.8976  0.0025 -0.3084
18788THY    HA650488   8.640   6.086   3.133  0.6989  0.5783  2.0377
18789THY      O50489   4.093   3.989   5.044  0.0583 -0.6224 -0.2130
18789THY     HO50490   4.088   3.961   5.137  0.0044 -0.6714 -0.3622
18789THY    CA150491   4.079   3.879   4.968 -0.0710  0.2507  0.2426
18789THY    CA250492   4.084   3.871   4.829  0.6697  0.0312 -0.2792
18789THY    CP150493   4.101   3.992   4.748  0.1453 -0.1757 -0.0064
18789THY    HP150494   4.105   4.077   4.818 -1.0677 -1.7769  1.4239
18789THY    CP250495   3.978   4.027   4.664 -0.5018  0.3603 -0.4478
18789THY    HP250496   4.009   4.110   4.600  0.5851  1.2383 -0.1495
18789THY    HP350497   3.896   4.062   4.727 -0.7942 -0.5076  0.4791
18789THY    HP450498   3.945   3.936   4.612 -0.2947  0.3246 -0.5036
18789THY    CP350499   4.220   3.973   4.662  0.3107  0.1691  0.3467
18789THY    HP550500   4.268   4.058   4.614  0.2852  0.2873  0.4282
18789THY    HP650501   4.195   3.900   4.584  0.2849  1.3040 -0.8912
18789THY    HP750502   4.302   3.925   4.717  1.0858 -1.3038 -0.0892
18789THY    CA350503   4.075   3.737   4.772 -0.2468  0.3252  0.4211
18789THY    HA350504   4.087   3.725   4.665  1.5982  0.1380  2.9569
18789THY    CA450505   4.075   3.619   4.849 -0.0827  0.7521  0.4465
18789THY    HA450506   4.074   3.523   4.799 -1.4598  0.0503  0.7930
18789THY    CA550507   4.070   3.630   4.982 -0.0670  0.1034  1.2978
18789THY    CM150508   4.079   3.499   5.066 -0.0283  0.4544 -0.2310
18789THY    HM150509   4.175   3.504   5.118  0.0559  0.3600 -0.8229
18789THY    HM250510   4.086   3.405   5.011  3.2924  0.2227  0.0311
18789THY    HM350511   3.995   3.481   5.133 -0.2755  0.5144  1.0455
18789THY    CA650512   4.072   3.760   5.040  0.0175 -0.0500  0.5333
18789THY    HA650513   4.087   3.754   5.147 -0.1774 -0.0943 -1.2021
18790THY      O50514   8.213   3.131   5.022  0.3605 -1.0311  1.0302
18790THY     HO50515   8.240   3.080   4.943  2.0859  1.2697 -1.9069
18790THY    CA150516   8.107   3.210   4.996 -0.3365  0.3921 -0.2210
18790THY    CA250517   8.045   3.285   5.098 -0.3430  0.0867 -0.0366
18790THY    CP150518   8.086   3.254   5.245  0.0850  0.3123 -0.2316
18790THY    HP150519   8.193   3.236   5.255  0.4583 -1.2127  0.9309
18790THY    CP250520   8.008   3.131   5.301 -0.3665  0.3392 -0.7116
18790THY    HP250521   7.900   3.149   5.295 -0.6518 -1.2907 -2.6209
18790THY    HP350522   8.020   3.107   5.407 -1.9209  0.6558 -0.1709
18790THY    HP450523   8.040   3.042   5.245  2.8397 -1.4641  1.3894
18790THY    CP350524   8.051   3.376   5.337 -0.7426 -0.6683 -0.1120
18790THY    HP550525   8.121   3.371   5.422 -1.4986 -0.0771 -1.1876
18790THY    HP650526   7.952   3.374   5.383 -0.6195 -0.4249 -1.6597
18790THY    HP750527   8.066   3.474   5.291 -0.0566  2.5281  1.4090
18790THY    CA350528   7.949   3.383   5.064 -0.4922 -0.1511 -0.0054
18790THY    HA350529   7.897   3.436   5.143  0.5301  1.0573 -0.7474
18790THY    CA450530   7.918   3.407   4.929 -0.3662  0.0630 -1.1122
18790THY    HA450531   7.848   3.488   4.912 -0.5183  1.0742 -1.0189
18790THY    CA550532   7.971   3.329   4.826  0.1473 -0.2292 -0.3761
18790THY    CM150533   7.936   3.336   4.672  0.4793 -0.2706  0.5014
18790THY    HM150534   7.837   3.375   4.648  0.7528  0.5827  1.8125
18790THY    HM250535   7.951   3.244   4.616  0.8013  0.4809  0.0836
18790THY    HM350536   8.006   3.402   4.619  0.7043 -0.9268 -0.2420
18790THY    CA650537   8.065   3.222   4.862 -0.5976  0.7673  0.4527
18790THY    HA650538   8.118   3.166   4.786  0.0018 -0.6655  2.8111
18791THY      O50539   8.371   8.694   4.518  0.1636 -0.0257 -1.0601
18791THY     HO50540   8.363   8.635   4.595  0.1928  0.0726 -0.9375
18791THY    CA150541   8.502   8.733   4.506 -0.0335 -0.1036 -0.1693
18791THY    CA250542   8.555   8.784   4.390 -0.6575 -0.0804 -0.5585
18791THY    CP150543   8.479   8.792   4.263  0.1895  0.3914  0.0647
18791THY    HP150544   8.385   8.737   4.279  1.0786  0.9047 -1.3622
18791THY    CP250545   8.553   8.724   4.152 -0.7383  0.2432 -0.1677
18791THY    HP250546   8.483   8.709   4.070  1.2449 -0.9474 -4.6444
18791THY    HP350547   8.582   8.621   4.177  2.3419 -0.5976  0.3960
18791THY    HP450548   8.645   8.777   4.124  0.4535  1.2163 -1.5958
18791THY    CP350549   8.456   8.938   4.226 -0.1540 -0.4990  0.0729
18791THY    HP550550   8.540   8.988   4.177  1.5602 -1.6472 -3.6316
18791THY    HP650551   8.435   8.994   4.318 -0.8266 -0.9775  0.6340
18791THY    HP750552   8.374   8.946   4.153 -0.5868  0.0604  0.8390
18791THY    CA350553   8.696   8.823   4.397 -0.1448  0.4844  0.7951
18791THY    HA350554   8.737   8.883   4.316 -0.0767  0.5029  0.7720
18791THY    CA450555   8.772   8.811   4.509 -0.0672 -0.3149 -0.5502
18791THY    HA450556   8.877   8.838   4.503 -0.3161 -1.0186  0.2789
18791THY    CA550557   8.716   8.747   4.621  0.1538  0.4768  0.2144
18791THY    CM150558   8.813   8.720   4.736 -0.3594 -0.1936 -0.2988
18791THY    HM150559   8.822   8.803   4.807  0.4985  0.2928 -0.7900
18791THY    HM250560   8.916   8.714   4.699 -0.6118 -1.0592  0.5451
18791THY    HM350561   8.783   8.629   4.790  1.4992  4.7057  1.6217
18791THY    CA650562   8.584   8.703   4.616 -0.5389  0.8812 -0.9086
18791THY    HA650563   8.543   8.656   4.705 -2.6754 -1.5225 -4.0443
18792THY      O50564   0.585   8.223   5.621 -0.2081 -0.4479 -0.3608
18792THY     HO50565   0.677   8.245   5.600 -0.4725 -0.3476  0.8793
18792THY    CA150566   0.515   8.316   5.546  0.4545 -0.2678 -0.3407
18792THY    CA250567   0.401   8.376   5.596  1.1019 -0.0253 -0.3644
18792THY    CP150568   0.348   8.341   5.733  0.1464  0.1458  0.2472
18792THY    HP150569   0.390   8.245   5.764 -2.4411 -1.0400 -1.3842
18792THY    CP250570   0.199   8.310   5.726  0.3441 -0.6405 -0.1356
18792THY    HP250571   0.179   8.222   5.663 -4.3669  0.8655 -0.4051
18792THY    HP350572   0.140   8.396   5.693  0.6223  1.2840  0.8505
18792THY    HP450573   0.168   8.300   5.831  1.9502 -0.1394 -0.0942
18792THY    CP350574   0.386   8.443   5.839 -0.6849 -0.4483 -0.4721
18792THY    HP550575   0.335   8.539   5.824  1.2395  0.1713  0.6879
18792THY    HP650576   0.492   8.468   5.840 -0.7270  0.7526 -0.2460
18792THY    HP750577   0.350   8.407   5.936 -0.8249  0.0598  0.9797
18792THY    CA350578   0.348   8.480   5.513 -0.2228  0.2352  0.4110
18792THY    HA350579   0.261   8.541   5.537 -1.1119  0.6329 -0.9662
18792THY    CA450580   0.387   8.496   5.384 -0.7483  0.0526  0.1821
18792THY    HA450581   0.333   8.565   5.320  2.8662 -3.7993 -0.1729
18792THY    CA550582   0.505   8.429   5.331  0.8886  0.3401  1.0023
18792THY    CM150583   0.557   8.450   5.195  0.6125  0.0510  0.8725
18792THY    HM150584   0.526   8.378   5.119  0.6310  0.2392  0.6641
18792THY    HM250585   0.667   8.454   5.200  0.7748  1.4383 -2.1686
18792THY    HM350586   0.525   8.550   5.167  0.1448  2.0536  1.3173
18792THY    CA650587   0.572   8.347   5.422 -0.3688  0.1384 -0.2900
18792THY    HA650588   0.669   8.305   5.398 -0.5517  0.2270 -0.7647
18793THY      O50589   6.430   2.947   5.756 -0.7303 -0.1047  0.1120
18793THY     HO50590   6.415   2.939   5.661 -2.0071 -0.2548  2.8912
18793THY    CA150591   6.534   2.863   5.798 -0.0036  0.7406 -0.1539
18793THY    CA250592   6.595   2.882   5.923  0.2180  0.1948  0.0324
18793THY    CP150593   6.552   2.989   6.014 -0.7594  0.5275  0.1412
18793THY    HP150594   6.513   3.073   5.955  3.9499 -1.9298  0.9375
18793THY    CP250595   6.666   3.058   6.093 -0.2052 -0.7156  0.0833
18793THY    HP250596   6.657   3.166   6.110 -0.9890 -1.1786  0.0992
18793THY    HP350597   6.762   3.048   6.040  0.1057  0.1606 -2.0618
18793THY    HP450598   6.693   2.995   6.178  2.6367 -0.9092  0.8693
18793THY    CP350599   6.436   2.955   6.104 -0.2996 -0.4411  0.2305
18793THY    HP550600   6.470   2.867   6.160  0.5191 -0.5088  0.5012
18793THY    HP650601   6.359   2.926   6.032  0.1912 -0.8268 -0.1309
18793THY    HP750602   6.408   3.037   6.172 -0.1729 -0.5351  0.3508
18793THY    CA350603   6.683   2.784   5.967  0.1886 -0.5988 -0.3249
18793THY    HA350604   6.732   2.784   6.064  0.7357 -0.7996 -2.8125
18793THY    CA450605   6.722   2.685   5.873  0.0875 -0.2284  0.2120
18793THY    HA450606   6.793   2.611   5.906  0.1208 -1.3379 -0.2684
18793THY    CA550607   6.668   2.684   5.738  0.6038  0.7003 -0.2221
18793THY    CM150608   6.702   2.577   5.643 -0.4110  0.5020  0.2037
18793THY    HM150609   6.624   2.501   5.637  0.7599  1.4805 -1.1264
18793THY    HM250610   6.785   2.507   5.663 -2.2063  0.7234 -1.9876
18793THY    HM350611   6.719   2.635   5.552  2.3997 -0.3388 -1.7210
18793THY    CA650612   6.573   2.772   5.704  0.5578  0.1354 -0.4830
18793THY    HA650613   6.531   2.781   5.604 -0.0758  0.3984 -0.4864
18794THY      O50614   7.257   8.243   5.022  0.1493 -0.2063  0.0048
18794THY     HO50615   7.244   8.178   5.093 -2.8470 -0.1746  0.5153
18794THY    CA150616   7.175   8.351   5.061  0.0076 -0.2558  0.1219
18794THY    CA250617   7.186   8.477   5.003  0.6535  0.0430  0.7932
18794THY    CP150618   7.279   8.503   4.880 -0.0288  0.4600  0.1015
18794THY    HP150619   7.293   8.416   4.814  2.7433 -2.2325  2.3901
18794THY    CP250620   7.419   8.555   4.930 -0.0520 -0.5216 -0.6629
18794THY    HP250621   7.452   8.485   5.007  1.9581 -0.7488 -0.0324
18794THY    HP350622   7.412   8.653   4.979  7.5321  1.7834 -0.6214
18794THY    HP450623   7.497   8.562   4.852 -1.7389 -2.3682 -1.3726
18794THY    CP350624   7.217   8.606   4.784  0.7478 -0.3681 -0.8905
18794THY    HP550625   7.225   8.710   4.818 -0.7662  0.4458 -1.0113
18794THY    HP650626   7.112   8.581   4.762  0.7652 -0.3886 -0.9428
18794THY    HP750627   7.272   8.605   4.689  1.2844 -0.0816  0.1278
18794THY    CA350628   7.118   8.584   5.065 -0.4846  0.0853 -0.5483
18794THY    HA350629   7.117   8.683   5.019 -0.9330  1.2496  0.0026
18794THY    CA450630   7.048   8.561   5.187  0.1192  0.2306 -0.0368
18794THY    HA450631   6.990   8.644   5.227  0.5043 -0.0454  0.3641
18794THY    CA550632   7.039   8.430   5.234 -0.0085 -0.4300  0.4584
18794THY    CM150633   6.964   8.394   5.356 -0.2746  0.4807  0.3341
18794THY    HM150634   6.906   8.301   5.346  0.0410 -0.3916  0.2152
18794THY    HM250635   6.893   8.475   5.376  0.3994 -1.5556  1.5031
18794THY    HM350636   7.021   8.382   5.448  0.0592  0.3025  0.5303
18794THY    CA650637   7.109   8.324   5.177 -0.6399  0.2961  0.1385
18794THY    HA650638   7.103   8.228   5.226  0.6889 -2.5272 -1.5106
18795THY      O50639   3.609   0.690   3.263  0.7682  0.0709 -0.5852
18795THY     HO50640   3.547   0.746   3.313  1.2056  0.1069 -0.1309
18795THY    CA150641   3.686   0.628   3.350  0.0939  0.2616  0.2195
18795THY    CA250642   3.792   0.545   3.307 -0.4634 -0.5455 -0.4011
18795THY    CP150643   3.830   0.534   3.160 -0.1709  0.1221  0.0217
18795THY    HP150644   3.785   0.615   3.102 -0.8646 -0.2352 -0.6030
18795THY    CP250645   3.777   0.413   3.096  0.6191  0.5582 -0.0256
18795THY    HP250646   3.668   0.411   3.103  0.6519  1.8664  1.2373
18795THY    HP350647   3.804   0.315   3.136 -1.1096  4.9857  1.0717
18795THY    HP450648   3.807   0.412   2.990 -1.2146  0.0096  0.0052
18795THY    CP350649   3.980   0.553   3.146 -0.2689 -0.0793  0.3213
18795THY    HP550650   4.025   0.459   3.180 -1.9773  1.5586  0.0483
18795THY    HP650651   4.017   0.643   3.195  0.0854 -1.7521  1.1348
18795THY    HP750652   4.006   0.571   3.040 -2.7087 -1.1412 -1.8467
18795THY    CA350653   3.856   0.460   3.407 -0.0339 -0.0094  0.4312
18795THY    HA350654   3.937   0.393   3.379  1.3210 -1.0597  2.4212
18795THY    CA450655   3.814   0.472   3.541 -0.3626  0.0522 -0.2114
18795THY    HA450656   3.863   0.409   3.615 -0.2681  1.4332  1.4267
18795THY    CA550657   3.720   0.567   3.584 -0.6107  0.0775  0.1612
18795THY    CM150658   3.677   0.570   3.724  0.3900  1.1181  0.1529
18795THY    HM150659   3.646   0.672   3.748  0.1762  2.5382 -0.2222
18795THY    HM250660   3.757   0.549   3.796  0.1544  1.4496  0.3882
18795THY    HM350661   3.589   0.507   3.741 -0.7932 -0.7333  1.2288
18795THY    CA650662   3.651   0.638   3.483  0.2256 -0.2819  0.5346
18795THY    HA650663   3.580   0.714   3.515  0.2043 -0.1281  0.4493
18796THY      O50664   5.419   4.178   6.339  0.4442 -0.5700 -0.2291
18796THY     HO50665   5.345   4.130   6.299  1.1898 -1.9471 -0.2948
18796THY    CA150666   5.500   4.074   6.377 -0.1018 -0.3044 -0.0767
18796THY    CA250667   5.635   4.111   6.404  0.2667  0.6235 -0.0953
18796THY    CP150668   5.677   4.256   6.413 -0.0146 -0.1901  0.3141
18796THY    HP150669   5.615   4.325   6.355  1.1307  0.8436  2.3149
18796THY    CP250670   5.822   4.275   6.367  0.0737  0.0133  0.6972
18796THY    HP250671   5.839   4.382   6.349  0.5961  0.6045  0.7169
18796THY    HP350672   5.841   4.230   6.268 -0.4800 -0.1391  0.7984
18796THY    HP450673   5.898   4.251   6.442  0.5253  0.0237  2.0908
18796THY    CP350674   5.673   4.301   6.560  0.0706  0.5373  0.4044
18796THY    HP550675   5.707   4.406   6.568  1.2545 -0.7207  0.1412
18796THY    HP650676   5.742   4.242   6.622 -1.0481 -0.7739 -2.4445
18796THY    HP750677   5.575   4.298   6.608 -0.3738 -0.2572  1.5401
18796THY    CA350678   5.723   4.005   6.453  0.3161 -0.0947 -0.2104
18796THY    HA350679   5.822   4.023   6.493  0.9354 -2.2572  1.5630
18796THY    CA450680   5.677   3.873   6.437  0.2774  0.9268  1.1495
18796THY    HA450681   5.738   3.788   6.465 -2.4658 -1.3716 -1.8136
18796THY    CA550682   5.548   3.845   6.389 -0.4388  0.3922 -0.5038
18796THY    CM150683   5.506   3.701   6.372 -0.0262  0.5251  0.3803
18796THY    HM150684   5.420   3.677   6.436  0.8990  1.9417  0.7056
18796THY    HM250685   5.589   3.637   6.405  0.5965  1.3936  1.5832
18796THY    HM350686   5.477   3.685   6.268  0.3510  0.2128  1.5892
18796THY    CA650687   5.458   3.942   6.364  0.6420  0.6980 -0.4778
18796THY    HA650688   5.356   3.923   6.330  0.0918  0.6911  2.1903
18797THY      O50689   3.561   8.103   2.633 -0.7154 -0.2705 -0.7021
18797THY     HO50690   3.562   8.197   2.658 -1.7630 -2.3351 -0.0832
18797THY    CA150691   3.645   8.040   2.720 -0.1155  0.1022  0.6908
18797THY    CA250692   3.658   7.898   2.724  0.1328  0.1771  0.5329
18797THY    CP150693   3.573   7.813   2.623  0.0358  0.0294  0.0749
18797THY    HP150694   3.497   7.881   2.585  0.6307 -2.1405 -0.4025
18797THY    CP250695   3.506   7.691   2.687 -0.0774  0.2728 -0.4610
18797THY    HP250696   3.425   7.728   2.751  1.3858  1.9733 -0.1090
18797THY    HP350697   3.585   7.631   2.733  1.7248  1.1751  2.3912
18797THY    HP450698   3.467   7.636   2.600  0.1462  0.9824 -1.7753
18797THY    CP350699   3.657   7.773   2.512  0.2516  0.4739  0.2802
18797THY    HP550700   3.725   7.697   2.553  3.1061 -0.7054  2.0694
18797THY    HP650701   3.716   7.852   2.464  0.2374 -0.7645 -0.4332
18797THY    HP750702   3.605   7.726   2.427 -2.7882  0.4524  3.2636
18797THY    CA350703   3.750   7.842   2.812  0.4933  0.2545  0.5235
18797THY    HA350704   3.770   7.735   2.821 -1.3555  0.9512  0.2057
18797THY    CA450705   3.835   7.929   2.884 -0.5764 -0.2843  0.4440
18797THY    HA450706   3.924   7.890   2.933 -0.4359  0.7756  2.0162
18797THY    CA550707   3.832   8.065   2.861  0.1415  0.5832 -0.1313
18797THY    CM150708   3.936   8.149   2.933  0.1872  0.4024 -0.1096
18797THY    HM150709   3.910   8.255   2.934  1.1735 -1.5696  0.1812
18797THY    HM250710   4.038   8.149   2.895 -0.2466 -0.7984  0.7556
18797THY    HM350711   3.940   8.119   3.039  3.2141  1.1300  2.3775
18797THY    CA650712   3.738   8.122   2.777  0.5906  0.7487  0.2503
18797THY    HA650713   3.739   8.228   2.755  0.0724 -0.8579 -0.0418
18798THY      O50714   6.151   8.822   7.737 -0.2638  0.0057  0.0544
18798THY     HO50715   6.117   8.733   7.753 -1.1065 -2.5098 -0.1642
18798THY    CA150716   6.052   8.891   7.672 -0.1039 -0.1332 -0.4038
18798THY    CA250717   6.079   8.999   7.583  0.6877  0.2654  0.1642
18798THY    CP150718   6.225   9.044   7.559  0.1546  0.2288  0.1139
18798THY    HP150719   6.285   9.028   7.650 -1.4420  1.5387  1.2891
18798THY    CP250720   6.249   9.189   7.511 -0.3538 -0.5569  0.1473
18798THY    HP250721   6.354   9.216   7.522 -0.1121 -1.2880 -0.4660
18798THY    HP350722   6.195   9.258   7.576 -0.3981 -0.9044  0.4453
18798THY    HP450723   6.221   9.217   7.409  0.4167 -0.4705  1.3062
18798THY    CP350724   6.281   8.938   7.460 -0.4018 -0.7533  0.3746
18798THY    HP550725   6.242   8.836   7.466 -1.6074 -1.1457  0.8019
18798THY    HP650726   6.391   8.943   7.467 -0.3726 -1.5611  1.3020
18798THY    HP750727   6.252   8.971   7.359 -1.8272 -0.1969  0.8948
18798THY    CA350728   5.976   9.052   7.505  0.5069  0.1293  0.0679
18798THY    HA350729   5.984   9.130   7.431  0.2276 -0.0553 -0.0782
18798THY    CA450730   5.850   9.008   7.530 -0.3639 -0.2696 -0.1930
18798THY    HA450731   5.779   9.065   7.471 -0.1335 -0.8447 -0.4956
18798THY    CA550732   5.815   8.904   7.625  0.1594 -1.0292  0.4390
18798THY    CM150733   5.673   8.869   7.656  0.1850 -0.4886 -0.5072
18798THY    HM150734   5.603   8.919   7.588  0.2406 -2.7702 -3.2692
18798THY    HM250735   5.649   8.895   7.760 -1.9440 -1.6013  2.6805
18798THY    HM350736   5.664   8.760   7.657  0.7069 -0.6900 -0.5538
18798THY    CA650737   5.918   8.846   7.692 -0.6069 -0.6075  0.3122
18798THY    HA650738   5.901   8.768   7.766  0.6860 -1.8491 -1.2158
18799THY      O50739   0.601   2.505   4.122  0.0193  0.2477 -0.5006
18799THY     HO50740   0.540   2.479   4.052  0.3112 -1.4073  2.7798
18799THY    CA150741   0.569   2.433   4.241  0.5001  0.5013 -0.0147
18799THY    CA250742   0.617   2.465   4.368  0.2132 -0.5882 -0.1960
18799THY    CP150743   0.721   2.579   4.380  0.4827  0.7320 -0.7029
18799THY    HP150744   0.705   2.641   4.291  1.3879  0.6235 -0.5983
18799THY    CP250745   0.865   2.524   4.380 -0.0388  0.8644 -0.3004
18799THY    HP250746   0.867   2.471   4.475 -3.6379  0.0739 -2.2380
18799THY    HP350747   0.944   2.598   4.388 -2.0868 -0.0768  2.1374
18799THY    HP450748   0.894   2.458   4.297 -0.0094  2.1456 -1.9524
18799THY    CP350749   0.709   2.664   4.507  0.3745  0.3681 -0.3815
18799THY    HP550750   0.608   2.706   4.512  1.1278 -0.4142  1.6611
18799THY    HP650751   0.781   2.746   4.503 -1.3511  1.2641  1.2665
18799THY    HP750752   0.727   2.605   4.598  1.8429 -0.8102 -1.8443
18799THY    CA350753   0.578   2.387   4.477 -1.1591 -0.1885  0.2151
18799THY    HA350754   0.613   2.410   4.578  0.0667 -0.4418 -0.4340
18799THY    CA450755   0.497   2.279   4.454  0.2349 -0.9163 -0.1627
18799THY    HA450756   0.458   2.223   4.538  0.1652  0.8826  2.3997
18799THY    CA550757   0.447   2.254   4.329  0.1337 -0.1079  0.0762
18799THY    CM150758   0.341   2.143   4.307  0.3423 -0.4194  0.0960
18799THY    HM150759   0.392   2.054   4.267 -1.5255 -1.3572 -0.6127
18799THY    HM250760   0.271   2.192   4.239  1.6192 -0.3379  2.1643
18799THY    HM350761   0.276   2.124   4.393 -0.9656 -1.7145 -1.5764
18799THY    CA650762   0.492   2.321   4.219  0.3665 -0.1373 -0.5058
18799THY    HA650763   0.457   2.289   4.121 -0.7073 -0.0188  0.2378
18800THY      O50764   3.995   6.748   3.117  0.6732 -0.1104 -0.8184
18800THY     HO50765   3.961   6.673   3.170 -2.5284 -1.0292 -0.1701
18800THY    CA150766   4.131   6.749   3.124  0.9656 -0.6096  0.0594
18800THY    CA250767   4.193   6.857   3.179  0.1903 -0.2527  0.0585
18800THY    CP150768   4.106   6.962   3.248  0.2782  0.3246  0.0170
18800THY    HP150769   4.004   6.963   3.208 -0.6729  2.3613 -2.8285
18800THY    CP250770   4.150   7.100   3.198  0.1558  0.4046 -1.1052
18800THY    HP250771   4.162   7.106   3.089  0.2737  0.4455 -0.5280
18800THY    HP350772   4.243   7.137   3.243 -0.3947  0.3511  0.3995
18800THY    HP450773   4.080   7.178   3.229  0.7204 -1.6333  0.2785
18800THY    CP350774   4.102   6.939   3.397 -0.1073  0.1782  0.0785
18800THY    HP550775   4.038   7.017   3.441  0.5218  0.5003  0.4210
18800THY    HP650776   4.196   6.956   3.451 -2.1444  3.8231  0.8726
18800THY    HP750777   4.060   6.838   3.408  1.7158  1.3155 -0.6052
18800THY    CA350778   4.326   6.849   3.206 -0.1354  0.4393 -0.1134
18800THY    HA350779   4.382   6.921   3.265 -0.5324  1.1732 -0.3962
18800THY    CA450780   4.405   6.744   3.157 -0.5280 -0.4985  0.9688
18800THY    HA450781   4.510   6.735   3.183 -0.4001 -0.1200  3.0995
18800THY    CA550782   4.339   6.630   3.109  0.0202  0.3405 -0.5788
18800THY    CM150783   4.424   6.512   3.075  0.3891  0.1219  0.4368
18800THY    HM150784   4.376   6.422   3.034  0.6778  1.9553 -0.6110
18800THY    HM250785   4.463   6.462   3.165 -1.1973  0.3603 -0.4435
18800THY    HM350786   4.493   6.544   2.996 -1.5592 -1.5686  0.6942
18800THY    CA650787   4.201   6.638   3.089  0.2289 -0.1781  0.9488
18800THY    HA650788   4.142   6.553   3.057  0.6060 -0.0820  0.6433
18801THY      O50789   3.401   3.692   5.744  0.3442  0.4274 -0.4106
18801THY     HO50790   3.345   3.639   5.685  1.3674  0.3654 -1.4402
18801THY    CA150791   3.505   3.617   5.776 -0.2934 -0.1017  0.4803
18801THY    CA250792   3.618   3.676   5.822 -0.4680  0.1977  0.7649
18801THY    CP150793   3.625   3.826   5.826  0.2224  0.3144 -0.3138
18801THY    HP150794   3.577   3.862   5.735  0.2306  0.2161 -0.5485
18801THY    CP250795   3.766   3.887   5.836  0.0520  0.2411  0.1475
18801THY    HP250796   3.821   3.852   5.924  1.9767 -0.9453  0.0152
18801THY    HP350797   3.753   3.996   5.830 -1.3561 -0.2165 -0.0232
18801THY    HP450798   3.818   3.849   5.747  0.4357  0.4172  0.2587
18801THY    CP350799   3.536   3.887   5.934 -0.5209 -0.5355  0.0199
18801THY    HP550800   3.596   3.907   6.024 -1.3615 -0.1712  1.0174
18801THY    HP650801   3.463   3.814   5.971 -0.5576 -0.5628  0.0429
18801THY    HP750802   3.475   3.975   5.910 -3.0547 -0.1571 -1.5276
18801THY    CA350803   3.730   3.585   5.848  0.2137  0.0087  0.2034
18801THY    HA350804   3.830   3.622   5.871  0.0921 -0.7399  1.0408
18801THY    CA450805   3.719   3.446   5.839 -0.0385 -0.7077  0.2299
18801THY    HA450806   3.806   3.385   5.858  0.3106  1.1632  1.2464
18801THY    CA550807   3.594   3.387   5.808 -0.4431  0.2759 -0.4341
18801THY    CM150808   3.575   3.243   5.808  0.4003 -0.7931  0.8235
18801THY    HM150809   3.547   3.202   5.906  0.7300 -0.4324  1.4395
18801THY    HM250810   3.668   3.188   5.787  1.3653  0.9709  1.6888
18801THY    HM350811   3.501   3.220   5.731  0.7862 -1.3834  1.4980
18801THY    CA650812   3.484   3.475   5.779 -0.8057 -0.2444  0.5965
18801THY    HA650813   3.384   3.440   5.756 -0.9784  0.3196  0.6961
18802THY      O50814   1.071   7.228   4.585  0.1483 -0.8938  0.1690
18802THY     HO50815   1.098   7.265   4.499  0.9615 -0.8005 -0.1902
18802THY    CA150816   1.089   7.324   4.683 -0.8675  0.1751 -0.9572
18802THY    CA250817   1.023   7.322   4.806 -0.2329 -0.5129 -0.1236
18802THY    CP150818   0.917   7.212   4.829 -0.2032  0.0267  0.0688
18802THY    HP150819   0.925   7.134   4.752 -1.5032  0.6105 -0.6736
18802THY    CP250820   0.770   7.262   4.839 -0.3417  0.0500 -0.0703
18802THY    HP250821   0.761   7.320   4.932  0.0313 -0.1787  0.3643
18802THY    HP350822   0.704   7.177   4.853 -0.8575 -1.1101  0.1232
18802THY    HP450823   0.744   7.300   4.740 -0.5877  0.5214  1.0411
18802THY    CP350824   0.952   7.129   4.962  0.2005  0.7772  0.1730
18802THY    HP550825   0.918   7.025   4.954  1.1160  0.6735 -0.1280
18802THY    HP650826   0.906   7.181   5.047  2.4436  1.1469  1.6913
18802THY    HP750827   1.060   7.134   4.978  0.5576 -1.3576  0.0393
18802THY    CA350828   1.066   7.407   4.912  0.6764  0.4603  0.7480
18802THY    HA350829   1.017   7.398   5.009 -0.4032 -0.2674 -2.9787
18802THY    CA450830   1.174   7.502   4.889 -0.3796  0.0402  0.0382
18802THY    HA450831   1.206   7.558   4.976 -0.4288  0.0961 -0.0203
18802THY    CA550832   1.222   7.516   4.755 -0.3798  0.2842 -0.5051
18802THY    CM150833   1.323   7.618   4.720  0.5815  0.4233 -0.4198
18802THY    HM150834   1.285   7.683   4.640 -0.3355  0.4951 -0.8591
18802THY    HM250835   1.417   7.581   4.677  0.8689 -0.1737  0.9151
18802THY    HM350836   1.345   7.683   4.805 -1.4978  0.3084  0.5092
18802THY    CA650837   1.187   7.422   4.653 -0.3616  0.1039  0.4129
18802THY    HA650838   1.233   7.421   4.555 -1.7448 -0.6091 -1.6050
18803THY      O50839   9.460   1.188   4.333 -0.2344  0.7412 -0.4082
18803THY     HO50840   9.539   1.143   4.299  0.6217 -0.7308  2.0034
18803THY    CA150841   9.358   1.135   4.264  0.3233  0.2506  0.2897
18803THY    CA250842   9.222   1.173   4.282 -0.0367  0.4664 -0.1180
18803THY    CP150843   9.178   1.305   4.356  0.0437 -0.2277  0.6469
18803THY    HP150844   9.076   1.316   4.319 -0.4708  0.4070 -1.4496
18803THY    CP250845   9.239   1.436   4.309 -0.0478  0.3212  0.5433
18803THY    HP250846   9.195   1.521   4.363  1.2955 -0.3728  1.7345
18803THY    HP350847   9.211   1.447   4.204 -0.8044  0.5861  1.2345
18803THY    HP450848   9.349   1.433   4.308 -0.0345 -1.2594  0.6753
18803THY    CP350849   9.171   1.293   4.511 -0.4207  0.8996  0.8223
18803THY    HP550850   9.262   1.237   4.534 -0.2032 -1.5162  0.0463
18803THY    HP650851   9.086   1.232   4.545 -0.4746 -0.8321 -0.1501
18803THY    HP750852   9.164   1.390   4.562  0.3076  0.0724  1.3223
18803THY    CA350853   9.116   1.104   4.209  0.1662  0.1576  0.1754
18803THY    HA350854   9.014   1.142   4.218 -0.4033  1.5148 -1.5141
18803THY    CA450855   9.150   0.999   4.126 -0.3699 -0.0674 -0.5333
18803THY    HA450856   9.081   0.956   4.053 -0.3874 -0.6637  0.4894
18803THY    CA550857   9.279   0.946   4.128 -0.2070  0.2447 -0.8095
18803THY    CM150858   9.309   0.825   4.043  0.1429  0.1037  0.0402
18803THY    HM150859   9.236   0.809   3.963  0.1440  0.0915  0.0962
18803THY    HM250860   9.305   0.725   4.090  1.1590 -0.2118 -0.1613
18803THY    HM350861   9.407   0.836   3.994  0.3054  0.1444 -1.0262
18803THY    CA650862   9.381   1.017   4.192  0.7707 -0.3674  0.0643
18803THY    HA650863   9.483   0.983   4.186  0.6061 -0.5428 -0.4092
18804THY      O50864   6.307   1.723   5.886  0.1410  0.1274 -0.1019
18804THY     HO50865   6.303   1.717   5.789 -2.4309  0.1308  0.5531
18804THY    CA150866   6.280   1.599   5.928  0.8992  0.2077 -0.4328
18804THY    CA250867   6.204   1.580   6.050 -0.5322 -0.0438  0.2336
18804THY    CP150868   6.145   1.701   6.133 -0.6698 -0.0709 -0.1670
18804THY    HP150869   6.201   1.795   6.129 -0.9561  2.1764  0.1422
18804THY    CP250870   6.135   1.674   6.273  0.5632  0.3646 -0.6709
18804THY    HP250871   6.068   1.594   6.305  0.1665 -1.4059 -1.0813
18804THY    HP350872   6.101   1.767   6.320 -0.4782 -1.0196 -0.3250
18804THY    HP450873   6.237   1.650   6.306  1.0371  0.0876  0.8325
18804THY    CP350874   6.011   1.739   6.071  0.2793 -0.4227  0.3840
18804THY    HP550875   5.930   1.684   6.121 -0.1744 -1.9662 -0.4205
18804THY    HP650876   5.999   1.721   5.963 -0.9418 -0.6028  2.0723
18804THY    HP750877   6.004   1.847   6.087  3.6249  1.9079  0.4209
18804THY    CA350878   6.195   1.443   6.100 -0.6779 -0.4180  0.3553
18804THY    HA350879   6.135   1.417   6.187  0.7260  0.0831 -1.4053
18804THY    CA450880   6.257   1.336   6.022 -0.4655 -0.0213 -0.0950
18804THY    HA450881   6.251   1.232   6.052  0.7808 -0.1648 -0.2294
18804THY    CA550882   6.338   1.364   5.915  0.2283 -0.4594 -0.2477
18804THY    CM150883   6.403   1.248   5.837 -0.2156  0.8058  0.3451
18804THY    HM150884   6.465   1.190   5.906 -1.8358  2.2348  0.2406
18804THY    HM250885   6.468   1.277   5.753 -2.5049 -0.5794  1.7970
18804THY    HM350886   6.326   1.174   5.815 -0.9109  0.7380  1.0708
18804THY    CA650887   6.336   1.493   5.856  0.1329 -0.5910  0.3380
18804THY    HA650888   6.377   1.515   5.759 -0.5763 -1.4606 -1.8794
18805THY      O50889   5.847   9.007   2.875 -0.5532  0.4675  0.5165
18805THY     HO50890   5.787   8.937   2.907  1.2502  0.4642 -1.1188
18805THY    CA150891   5.771   9.119   2.851 -0.0380  0.0333 -0.2003
18805THY    CA250892   5.821   9.245   2.811 -0.5871 -0.3670 -1.0348
18805THY    CP150893   5.968   9.244   2.778 -0.0538  0.0191 -0.4284
18805THY    HP150894   6.000   9.145   2.744 -0.9627  1.9651 -1.4369
18805THY    CP250895   6.048   9.298   2.894 -0.4984  0.0157 -0.2602
18805THY    HP250896   6.013   9.399   2.920 -0.8815  0.1636 -0.4302
18805THY    HP350897   6.154   9.306   2.869 -0.8881 -1.1223  2.2122
18805THY    HP450898   6.053   9.238   2.986  1.0701  0.2025  0.0994
18805THY    CP350899   5.998   9.342   2.658  0.1089  0.5656 -0.5330
18805THY    HP550900   6.104   9.340   2.631 -0.2122 -0.8168 -0.1243
18805THY    HP650901   5.972   9.447   2.675 -0.7639  0.4735 -0.7235
18805THY    HP750902   5.943   9.303   2.571 -1.1203  0.8714  0.4580
18805THY    CA350903   5.735   9.352   2.779  0.3967 -0.0472  0.5197
18805THY    HA350904   5.780   9.441   2.737  1.6692  0.0298 -0.0723
18805THY    CA450905   5.594   9.330   2.797 -0.1027  0.2718  0.4957
18805THY    HA450906   5.528   9.414   2.775 -0.1283  2.1946  1.0201
18805THY    CA550907   5.543   9.206   2.838 -0.2743  0.8222  0.0735
18805THY    CM150908   5.396   9.179   2.828 -0.9037 -0.1743 -0.0886
18805THY    HM150909   5.343   9.261   2.777  2.0484 -0.1104  2.0293
18805THY    HM250910   5.358   9.182   2.930 -1.5751 -0.4137 -0.2334
18805THY    HM350911   5.382   9.074   2.800  1.2137  1.2425 -0.7998
18805THY    CA650912   5.632   9.105   2.868 -0.2148  0.4619 -0.1326
18805THY    HA650913   5.591   9.008   2.897 -0.2718  0.6287 -0.0586
18806THY      O50914   6.450   1.973   4.672 -0.0226  0.2118 -0.6255
18806THY     HO50915   6.353   1.978   4.684  0.0277  0.2488  0.7506
18806THY    CA150916   6.468   2.042   4.554 -0.2330 -0.4025 -0.3842
18806THY    CA250917   6.590   2.032   4.477  0.2622  0.5372  0.2791
18806THY    CP150918   6.706   1.950   4.526 -0.0124  0.2233  0.7467
18806THY    HP150919   6.666   1.872   4.591  1.0787 -0.9692 -0.8625
18806THY    CP250920   6.822   2.019   4.605  0.7889 -0.7503 -0.1021
18806THY    HP250921   6.881   2.097   4.555  0.8826  1.9706  1.6867
18806THY    HP350922   6.895   1.942   4.635 -0.0048  0.4887 -0.3983
18806THY    HP450923   6.777   2.068   4.692  0.2307 -1.5370  0.7960
18806THY    CP350924   6.778   1.893   4.399  0.5737  0.6995 -0.1481
18806THY    HP550925   6.860   1.957   4.364 -1.4175  0.1719  2.2261
18806THY    HP650926   6.716   1.866   4.313  0.5938  0.5888  0.1556
18806THY    HP750927   6.830   1.800   4.428 -1.0469 -0.0043 -1.3128
18806THY    CA350928   6.604   2.119   4.365  0.4224 -0.0687  0.1122
18806THY    HA350929   6.687   2.115   4.295 -1.3751 -2.3528  0.5730
18806THY    CA450930   6.492   2.190   4.325 -0.3564 -0.1204 -0.1108
18806THY    HA450931   6.505   2.257   4.240  1.2603 -0.0412 -0.2765
18806THY    CA550932   6.375   2.200   4.409  0.5579  0.0299  0.0538
18806THY    CM150933   6.262   2.288   4.354 -0.1971 -0.0318  0.4963
18806THY    HM150934   6.188   2.295   4.435  0.3202  0.6952 -1.8472
18806THY    HM250935   6.208   2.241   4.270  0.9939 -0.8916  0.6202
18806THY    HM350936   6.308   2.380   4.315  1.2738 -0.4386 -0.3889
18806THY    CA650937   6.360   2.120   4.520 -0.6390  0.3546 -1.2356
18806THY    HA650938   6.275   2.138   4.585  0.5654  1.3374  1.3543
18807THY      O50939   7.493   5.284   3.528 -0.1487 -0.2415  0.3312
18807THY     HO50940   7.577   5.302   3.572 -0.6276  0.6024  0.5577
18807THY    CA150941   7.413   5.238   3.627  0.5784  0.0873  0.2767
18807THY    CA250942   7.303   5.155   3.594 -0.2313  0.6110 -0.3146
18807THY    CP150943   7.291   5.094   3.457  0.0106  0.5847  1.0220
18807THY    HP150944   7.333   5.149   3.372 -0.4406 -1.1757 -1.1841
18807THY    CP250945   7.145   5.082   3.417 -0.3749  0.0571  0.5546
18807THY    HP250946   7.104   4.989   3.458  2.8303  0.4974 -0.7906
18807THY    HP350947   7.152   5.081   3.308 -0.4738 -0.0437  3.0711
18807THY    HP450948   7.085   5.171   3.443 -2.8959 -3.1739  0.0315
18807THY    CP350949   7.353   4.956   3.450  0.2754 -0.8184  0.3072
18807THY    HP550950   7.330   4.893   3.537  1.9815  0.1227  0.9187
18807THY    HP650951   7.462   4.972   3.452  0.4804  1.8250 -0.8415
18807THY    HP750952   7.322   4.905   3.359 -0.6614 -0.7815  0.7966
18807THY    CA350953   7.218   5.123   3.696 -0.9805  0.3918 -0.2706
18807THY    HA350954   7.126   5.071   3.672 -0.3911 -1.0599 -0.7099
18807THY    CA450955   7.246   5.167   3.826  0.7564 -0.4084  0.0866
18807THY    HA450956   7.179   5.131   3.903 -0.0697 -1.7344 -1.3593
18807THY    CA550957   7.344   5.260   3.854 -0.4227 -0.3499 -0.1161
18807THY    CM150958   7.361   5.323   3.989 -0.2009 -0.5907 -0.0554
18807THY    HM150959   7.459   5.366   4.011 -0.5140 -0.7709  0.7829
18807THY    HM250960   7.335   5.247   4.064 -2.2972  0.4043  1.5399
18807THY    HM350961   7.291   5.407   4.001  0.8388 -0.0537  0.7560
18807THY    CA650962   7.438   5.291   3.753 -0.1174  0.2658 -0.6724
18807THY    HA650963   7.512   5.368   3.769 -1.7173 -2.9880  1.8239
18808THY      O50964   4.062   6.840   1.887  0.3453  0.3499 -0.3468
18808THY     HO50965   4.022   6.920   1.926  0.1622  0.6881 -0.6008
18808THY    CA150966   4.054   6.739   1.981  0.2534  0.3768 -0.8177
18808THY    CA250967   4.090   6.610   1.951 -1.0518 -0.0016 -0.3926
18808THY    CP150968   4.118   6.566   1.807  0.0424  0.7333  0.6895
18808THY    HP150969   4.148   6.650   1.744 -0.7848  0.1884  0.5833
18808THY    CP250970   4.006   6.486   1.731  0.2704  0.3740 -0.4010
18808THY    HP250971   3.970   6.404   1.795  0.3946 -0.8411 -1.4268
18808THY    HP350972   4.024   6.444   1.631  0.3053 -0.0154  0.5166
18808THY    HP450973   3.920   6.554   1.732  0.3343  0.4354 -0.3213
18808THY    CP350974   4.250   6.494   1.808 -0.3917  0.5203 -0.1612
18808THY    HP550975   4.302   6.480   1.713  3.1115  2.2899 -0.1596
18808THY    HP650976   4.238   6.394   1.853  3.0560  2.1135  0.0118
18808THY    HP750977   4.320   6.553   1.868  0.2580 -1.2342  0.9167
18808THY    CA350978   4.071   6.513   2.051 -0.0873 -0.6235  0.2817
18808THY    HA350979   4.105   6.413   2.027  2.5360  1.2281  0.6390
18808THY    CA450980   4.016   6.548   2.179  0.3824  1.0551  0.6879
18808THY    HA450981   3.992   6.469   2.248  0.5988 -2.1433 -2.4212
18808THY    CA550982   3.979   6.682   2.201  0.1190 -0.1656 -0.4589
18808THY    CM150983   3.900   6.707   2.324 -0.1547 -1.3682 -0.0335
18808THY    HM150984   3.951   6.672   2.414 -1.3139 -0.9834 -0.7872
18808THY    HM250985   3.808   6.647   2.323  0.2136 -1.2000 -0.6038
18808THY    HM350986   3.880   6.813   2.340 -0.9670 -0.1131 -0.3550
18808THY    CA650987   4.003   6.776   2.102 -0.3853  1.0928  0.0212
18808THY    HA650988   3.970   6.878   2.112 -1.3143 -0.4202 -0.1106
18809THY      O50989   8.144   2.274   2.108  0.2722  0.3044  0.2849
18809THY     HO50990   8.059   2.259   2.063  1.4823 -2.3814  0.8366
18809THY    CA150991   8.130   2.221   2.230 -0.4008  0.0325  0.0455
18809THY    CA250992   8.182   2.284   2.339 -0.5499 -0.0633 -0.1288
18809THY    CP150993   8.274   2.411   2.326 -0.3572 -0.2590 -0.3278
18809THY    HP150994   8.333   2.399   2.234  1.1455  0.8741 -2.3807
18809THY    CP250995   8.391   2.419   2.433  0.4860 -0.4837  0.4476
18809THY    HP250996   8.470   2.487   2.400  0.7328 -0.9780 -0.0747
18809THY    HP350997   8.431   2.318   2.451  1.3897  1.8497  1.1542
18809THY    HP450998   8.350   2.451   2.529  2.0958  1.1729 -2.1088
18809THY    CP350999   8.188   2.533   2.308  0.0644 -0.1077  0.2383
18809THY    HP551000   8.103   2.517   2.242 -0.4195  0.3729  0.7970
18809THY    HP651001   8.255   2.601   2.254  0.6151 -0.7857 -0.8067
18809THY    HP751002   8.151   2.566   2.406  0.4094  1.2315 -2.9696
18809THY    CA351003   8.143   2.239   2.466  0.5157 -0.3057 -0.0171
18809THY    HA351004   8.187   2.288   2.553  1.9154 -0.5589 -0.7652
18809THY    CA451005   8.058   2.125   2.485  0.0541  0.2831 -0.1126
18809THY    HA451006   8.032   2.077   2.578 -0.3542 -0.9527 -2.4119
18809THY    CA551007   8.020   2.057   2.372  0.2271 -0.1544  1.1684
18809THY    CM151008   7.936   1.928   2.398 -0.0315  0.6885 -0.1466
18809THY    HM151009   7.885   1.918   2.495 -0.2794  0.3491 -3.4296
18809THY    HM251010   7.991   1.835   2.379  1.8618 -2.2660  1.4037
18809THY    HM351011   7.847   1.932   2.333  0.3718  0.1896  1.4009
18809THY    CA651012   8.044   2.115   2.248  0.7878  0.0098  0.6823
18809THY    HA651013   8.005   2.067   2.158 -0.4617  0.4733  0.8134
18810THY      O51014   5.767   0.380   6.323 -0.1894  0.1809 -0.1717
18810THY     HO51015   5.745   0.450   6.387 -1.9457 -0.5037 -0.0438
18810THY    CA151016   5.748   0.433   6.198 -0.4811  0.0772 -0.2145
18810THY    CA251017   5.836   0.404   6.086 -0.1658  0.1094  0.4514
18810THY    CP151018   5.976   0.344   6.106 -0.0803  0.1158  0.4755
18810THY    HP151019   5.978   0.303   6.208 -0.4804 -0.1033 -0.1110
18810THY    CP251020   6.078   0.459   6.109  0.4058 -0.0629 -0.7146
18810THY    HP251021   6.074   0.516   6.016 -2.3671  0.9431  0.9551
18810THY    HP351022   6.182   0.430   6.128  1.6530 -2.6387  1.6557
18810THY    HP451023   6.045   0.529   6.187 -1.8715 -0.2926 -1.4804
18810THY    CP351024   6.023   0.245   5.992  0.1631 -0.8401  0.2730
18810THY    HP551025   5.976   0.146   6.002 -0.8823  0.1485  0.8465
18810THY    HP651026   6.131   0.229   6.004  0.4100  2.0042  3.1512
18810THY    HP751027   5.998   0.278   5.891 -0.3860 -1.4476 -1.8453
18810THY    CA351028   5.798   0.463   5.956  0.0882 -0.2202 -0.2045
18810THY    HA351029   5.852   0.453   5.862 -2.0369 -1.6219  0.7605
18810THY    CA451030   5.681   0.535   5.937  0.5172 -0.3362  0.1059
18810THY    HA451031   5.645   0.570   5.840 -1.7911 -0.1358 -1.4634
18810THY    CA551032   5.598   0.565   6.050 -0.0968 -0.6817  0.1530
18810THY    CM151033   5.466   0.638   6.024  0.2602  0.1560  0.5581
18810THY    HM151034   5.447   0.648   5.917  0.4541  0.3253  3.6099
18810THY    HM251035   5.470   0.735   6.074  0.3883  1.4621 -0.0964
18810THY    HM351036   5.377   0.588   6.065  0.4195  1.3886  1.2441
18810THY    CA651037   5.630   0.507   6.170  0.6879  0.8245  0.1190
18810THY    HA651038   5.548   0.504   6.241 -1.4285 -1.5028 -1.4150
18811THY      O51039   3.927   7.609   4.118 -0.7764  0.2262  0.0422
18811THY     HO51040   3.936   7.684   4.057 -2.0732  0.1557  0.1749
18811THY    CA151041   4.036   7.606   4.188  0.0263  0.6498 -0.0802
18811THY    CA251042   4.085   7.483   4.232 -0.3630  0.1845  0.2072
18811THY    CP151043   4.011   7.351   4.225  0.1175 -0.1550  0.3438
18811THY    HP151044   3.904   7.366   4.241  0.3290  1.1241  0.6543
18811THY    CP251045   4.051   7.238   4.319  0.1661 -0.1214  0.4105
18811THY    HP251046   4.052   7.274   4.423  1.3315 -0.2076  0.6904
18811THY    HP351047   4.150   7.200   4.289  0.2655  2.2135 -1.3486
18811THY    HP451048   3.981   7.155   4.304  1.1015 -0.2741 -0.3678
18811THY    CP351049   4.011   7.297   4.086 -0.3960  0.4354 -0.1112
18811THY    HP551050   3.964   7.378   4.029 -1.2064 -0.6345 -1.3000
18811THY    HP651051   3.953   7.204   4.085  0.3901 -0.5081 -0.5997
18811THY    HP751052   4.111   7.282   4.044 -0.7119 -0.6159  0.6101
18811THY    CA351053   4.212   7.493   4.305 -0.1738 -0.0919  0.0946
18811THY    HA351054   4.253   7.402   4.347 -2.7725  2.3960 -0.0775
18811THY    CA451055   4.274   7.622   4.321 -0.5783  0.7702  0.7655
18811THY    HA451056   4.362   7.627   4.385 -0.1743  0.3598 -0.6488
18811THY    CA551057   4.223   7.739   4.258 -0.7702  0.9974  1.0483
18811THY    CM151058   4.288   7.872   4.254 -0.2683 -0.4864 -0.2320
18811THY    HM151059   4.398   7.865   4.260 -0.2520 -1.6668 -1.2895
18811THY    HM251060   4.259   7.925   4.346  2.0229 -0.2827  0.8046
18811THY    HM351061   4.271   7.936   4.167  2.8865 -0.8497  0.3122
18811THY    CA651062   4.100   7.728   4.197  0.1454 -0.0189 -0.0486
18811THY    HA651063   4.058   7.824   4.168 -0.1935  1.0763  0.1375
18812THY      O51064   0.849   6.734   6.705 -0.2247 -0.6272  0.0337
18812THY     HO51065   0.910   6.807   6.721 -0.5455  1.5509 -0.1214
18812THY    CA151066   0.927   6.656   6.631 -0.5238 -0.1708 -0.0151
18812THY    CA251067   0.893   6.567   6.528 -0.5688  0.0270  0.2525
18812THY    CP151068   0.751   6.549   6.482 -0.5042  0.2852  0.4652
18812THY    HP151069   0.687   6.628   6.522  0.7414 -0.6709  2.0012
18812THY    CP251070   0.701   6.416   6.533  0.4603 -0.5291  1.3081
18812THY    HP251071   0.711   6.418   6.642  0.2360 -0.4600 -0.0542
18812THY    HP351072   0.761   6.333   6.494  1.1956  0.6026  1.2906
18812THY    HP451073   0.596   6.401   6.505  0.5879 -0.3038 -0.2100
18812THY    CP351074   0.735   6.566   6.328  0.3070 -0.6124 -0.3258
18812THY    HP551075   0.795   6.495   6.270  0.5526  0.3530 -0.9219
18812THY    HP651076   0.750   6.670   6.294 -1.0578  0.7906  0.3807
18812THY    HP751077   0.630   6.541   6.309 -0.0739 -1.0700  1.4211
18812THY    CA351078   0.994   6.490   6.456 -0.3000  0.3861 -0.7857
18812THY    HA351079   0.961   6.424   6.376 -0.6544 -0.0318 -0.1077
18812THY    CA451080   1.131   6.508   6.489  0.0391  0.8323  0.0772
18812THY    HA451081   1.212   6.458   6.437 -0.7336  0.1150 -0.4719
18812THY    CA551082   1.164   6.593   6.595 -0.7032  0.7469 -0.2666
18812THY    CM151083   1.309   6.624   6.620 -0.2659  0.2841 -0.4031
18812THY    HM151084   1.377   6.605   6.536 -1.3045 -0.1099 -2.6580
18812THY    HM251085   1.345   6.563   6.704 -0.1131  1.8207  1.6831
18812THY    HM351086   1.317   6.727   6.657 -2.1253 -1.5014  0.4572
18812THY    CA651087   1.062   6.663   6.673  0.1589  0.0578  0.6669
18812THY    HA651088   1.090   6.735   6.749  1.3450 -0.1582  0.4566
18813THY      O51089   5.228   5.303   5.277  0.1150  0.3302  0.4622
18813THY     HO51090   5.252   5.374   5.215 -2.9346 -0.4560  0.9473
18813THY    CA151091   5.147   5.222   5.208  0.2309 -0.1077  0.9237
18813THY    CA251092   5.078   5.114   5.268  0.4814  0.7213  0.2617
18813THY    CP151093   5.086   5.081   5.418  0.1235  0.1991  0.2506
18813THY    HP151094   5.172   5.134   5.460 -0.3444  0.9821  0.4086
18813THY    CP251095   5.112   4.923   5.445  0.1916  0.0097 -0.4239
18813THY    HP251096   5.146   4.893   5.544  0.0217 -0.2705 -1.5920
18813THY    HP351097   5.204   4.891   5.396 -0.4928 -0.6145 -1.4947
18813THY    HP451098   5.023   4.864   5.418  0.2937 -0.2502 -0.4594
18813THY    CP351099   4.975   5.124   5.504  0.0875  0.5802  0.4655
18813THY    HP551100   4.927   5.219   5.477 -0.8505 -0.6803 -0.3262
18813THY    HP651101   5.006   5.134   5.608 -0.3363  0.6886  0.6907
18813THY    HP751102   4.901   5.044   5.494  2.0391 -0.6993 -1.2861
18813THY    CA351103   4.987   5.045   5.189 -0.0849  0.0051  1.3113
18813THY    HA351104   4.916   4.976   5.233 -0.5419  1.5497  2.7145
18813THY    CA451105   4.987   5.060   5.052 -0.5194 -0.8592 -0.3445
18813THY    HA451106   4.925   5.001   4.985  1.3881 -1.8369 -1.3495
18813THY    CA551107   5.068   5.166   4.995 -0.3073 -0.2033  1.4257
18813THY    CM151108   5.051   5.183   4.845 -0.4034  0.2634  0.0639
18813THY    HM151109   5.117   5.114   4.791 -1.9686 -2.3738  0.5074
18813THY    HM251110   5.086   5.285   4.826  0.9793  0.5942 -0.3131
18813THY    HM351111   4.951   5.161   4.808 -0.0463  0.9331 -3.1548
18813THY    CA651112   5.142   5.250   5.075  0.1404  0.1398 -0.0194
18813THY    HA651113   5.211   5.318   5.025  0.0928 -1.0104 -0.7832
18814THY      O51114   6.706   8.427   4.486 -0.1878 -0.7798  0.5489
18814THY     HO51115   6.736   8.397   4.398  0.9232 -0.1640 -0.2127
18814THY    CA151116   6.792   8.376   4.581 -0.2543 -0.1030 -0.3291
18814THY    CA251117   6.772   8.392   4.719  0.1222  0.5597  0.5306
18814THY    CP151118   6.660   8.479   4.770 -0.4301 -0.8460 -0.3631
18814THY    HP151119   6.608   8.540   4.695  0.0770  0.2002  1.4050
18814THY    CP251120   6.702   8.589   4.872 -0.5157 -0.8309  0.8880
18814THY    HP251121   6.621   8.663   4.872 -0.2975 -2.7773  1.1722
18814THY    HP351122   6.792   8.635   4.829 -0.4330 -0.2766  1.2617
18814THY    HP451123   6.725   8.539   4.967 -0.1816 -1.0477  0.6282
18814THY    CP351124   6.551   8.394   4.839  0.4011  0.8733  0.0216
18814THY    HP551125   6.484   8.452   4.903  0.8067  0.2706  1.1848
18814THY    HP651126   6.597   8.316   4.901  0.5384 -0.7604 -1.2535
18814THY    HP751127   6.493   8.345   4.760  3.9291 -1.5161 -0.6793
18814THY    CA351128   6.858   8.331   4.809 -0.0151 -0.4593 -0.4849
18814THY    HA351129   6.835   8.346   4.914  2.9917  0.1684  0.2785
18814THY    CA451130   6.969   8.258   4.767 -0.2843 -0.0584 -0.4878
18814THY    HA451131   7.042   8.216   4.837 -2.0583  1.1904 -1.6338
18814THY    CA551132   6.997   8.265   4.629 -0.2041  0.2819  0.5016
18814THY    CM151133   7.131   8.210   4.593 -0.1733 -0.1687  0.3940
18814THY    HM151134   7.148   8.216   4.485 -2.6982 -0.6428  0.1394
18814THY    HM251135   7.158   8.111   4.631 -0.3169  0.3376  0.5462
18814THY    HM351136   7.211   8.277   4.627  0.4291 -1.6964  0.4878
18814THY    CA651137   6.912   8.320   4.538 -0.2463  0.3015 -0.0292
18814THY    HA651138   6.945   8.328   4.435 -1.0538 -0.0094 -0.5748
18815THY      O51139   4.523   1.152   4.966 -0.0941  0.4267 -0.0997
18815THY     HO51140   4.435   1.162   4.926 -0.4044  0.3409 -2.5528
18815THY    CA151141   4.484   1.111   5.092 -0.1066  0.4630  0.9494
18815THY    CA251142   4.573   1.053   5.178  0.1652 -0.6292  0.5863
18815THY    CP151143   4.720   1.025   5.139 -0.7831 -0.4056  0.3328
18815THY    HP151144   4.722   0.965   5.048 -1.6948  0.2840 -0.7860
18815THY    CP251145   4.797   0.935   5.230  0.4924  0.5537 -0.6497
18815THY    HP251146   4.752   0.836   5.240 -0.6663 -2.3859 -0.5263
18815THY    HP351147   4.818   0.970   5.332  0.1941 -0.1932  1.9855
18815THY    HP451148   4.895   0.930   5.181  0.8211  0.8909  1.3051
18815THY    CP351149   4.810   1.154   5.124  0.7951 -1.0591 -0.3382
18815THY    HP551150   4.769   1.237   5.067 -0.9278  2.8291  1.7373
18815THY    HP651151   4.912   1.133   5.088  1.6590  1.5909 -1.1163
18815THY    HP751152   4.826   1.204   5.220 -0.4751 -0.8052 -0.3975
18815THY    CA351153   4.531   1.017   5.307  0.2899  0.4501 -0.0353
18815THY    HA351154   4.598   0.970   5.378  2.5049  0.0791  2.3412
18815THY    CA451155   4.390   1.036   5.339 -0.2082 -0.8538  0.4540
18815THY    HA451156   4.350   1.017   5.437 -1.5207 -1.4287  0.1819
18815THY    CA551157   4.293   1.082   5.240 -0.2755 -0.4808 -0.2341
18815THY    CM151158   4.143   1.094   5.266  0.5832  0.3899  0.2842
18815THY    HM151159   4.096   1.039   5.348 -1.1069  0.1295  1.2719
18815THY    HM251160   4.087   1.065   5.175  0.6977  0.9918 -2.0403
18815THY    HM351161   4.116   1.195   5.299 -0.0629  0.4059  0.1093
18815THY    CA651162   4.337   1.126   5.115 -0.3578 -0.0116  0.0534
18815THY    HA651163   4.265   1.172   5.046  0.9628 -1.0423  0.6534
18816THY      O51164   5.369   2.135   1.970  0.1588  0.0235 -0.1374
18816THY     HO51165   5.459   2.114   1.940  0.4551  2.5949 -3.5047
18816THY    CA151166   5.391   2.173   2.098  0.1893  0.2758  0.4745
18816THY    CA251167   5.315   2.110   2.195  0.2427 -1.2484 -0.0898
18816THY    CP151168   5.199   2.019   2.158 -0.2762 -0.4225  0.4097
18816THY    HP151169   5.162   2.057   2.062  0.2378 -0.0923  1.8517
18816THY    CP251170   5.076   2.034   2.260 -0.7197 -0.5193  0.8289
18816THY    HP251171   4.988   1.996   2.207 -0.6356  1.2756 -2.1077
18816THY    HP351172   5.064   2.141   2.280 -3.4376  0.4241  0.4162
18816THY    HP451173   5.108   1.973   2.345 -0.2162  0.2300  2.0937
18816THY    CP351174   5.245   1.869   2.141  0.1856 -0.6018 -0.6449
18816THY    HP551175   5.257   1.815   2.236  1.9810 -1.2647 -1.4868
18816THY    HP651176   5.343   1.867   2.092  1.0769  1.0143  0.6341
18816THY    HP751177   5.179   1.809   2.077  2.4524 -0.6825 -3.2590
18816THY    CA351178   5.340   2.144   2.334  0.0793  0.2155  0.1265
18816THY    HA351179   5.282   2.094   2.411 -1.2622 -0.6178  0.3676
18816THY    CA451180   5.453   2.229   2.359  0.2686 -0.0256  0.2612
18816THY    HA451181   5.482   2.255   2.460  1.4931 -0.6359  1.3516
18816THY    CA551182   5.514   2.296   2.259  0.3243  0.2918  0.1245
18816THY    CM151183   5.634   2.388   2.289  0.1983  0.0695 -0.5150
18816THY    HM151184   5.665   2.464   2.216  1.7931  0.1364 -1.0695
18816THY    HM251185   5.724   2.337   2.324  1.4177  1.2303  2.1865
18816THY    HM351186   5.608   2.446   2.379  0.4135 -0.7012  0.8311
18816THY    CA651187   5.489   2.262   2.131  0.5271  0.0586  0.9341
18816THY    HA651188   5.545   2.307   2.050  1.1644  0.5788  1.0896
18817THY      O51189   0.874   3.671   3.539 -0.5482 -0.1622 -0.3365
18817THY     HO51190   0.853   3.653   3.445 -1.7715 -0.0891  0.5688
18817THY    CA151191   1.003   3.670   3.564 -0.6759  0.8464 -0.1876
18817THY    CA251192   1.054   3.758   3.654  0.0586  1.1861 -0.1327
18817THY    CP151193   0.969   3.843   3.749  0.7288  0.2333 -0.1004
18817THY    HP151194   0.877   3.874   3.698  0.7299  0.5367  0.4112
18817THY    CP251195   1.024   3.981   3.775  0.5133  0.0639  1.2280
18817THY    HP251196   1.125   3.973   3.816  0.3274  0.1209 -2.0548
18817THY    HP351197   0.959   4.040   3.842 -0.9729  0.0874 -0.3570
18817THY    HP451198   1.024   4.042   3.684  1.1862  0.0928  1.2760
18817THY    CP351199   0.925   3.767   3.875  0.2031 -0.2528 -0.8041
18817THY    HP551200   0.868   3.837   3.937 -1.3378 -1.2608 -1.1036
18817THY    HP651201   1.009   3.728   3.933  2.6307 -1.3444  2.4208
18817THY    HP751202   0.860   3.681   3.853 -0.0525  1.4404 -1.0789
18817THY    CA351203   1.197   3.758   3.672  0.3474  0.5004 -0.2593
18817THY    HA351204   1.242   3.819   3.749  0.8599 -0.2614  0.3291
18817THY    CA451205   1.278   3.686   3.582 -0.1037  0.8061  0.2617
18817THY    HA451206   1.386   3.684   3.592  0.0667 -0.5381  1.3105
18817THY    CA551207   1.221   3.601   3.486 -0.1201  0.7136  0.0883
18817THY    CM151208   1.305   3.533   3.388  0.1966  0.1644  0.7951
18817THY    HM151209   1.349   3.443   3.432 -0.9663 -0.3199 -0.0247
18817THY    HM251210   1.386   3.604   3.364  1.0916 -0.4887 -0.4165
18817THY    HM351211   1.256   3.501   3.296  0.6963  0.6647 -1.6224
18817THY    CA651212   1.078   3.591   3.473  1.0852 -0.9093 -0.0066
18817THY    HA651213   1.026   3.531   3.398 -0.1669 -1.0922  1.2620
18818THY      O51214   4.464   7.350   6.537  0.6164  0.4228  0.2945
18818THY     HO51215   4.454   7.259   6.569 -0.5179  1.7599  0.8666
18818THY    CA151216   4.427   7.351   6.410 -0.0727 -0.2184 -0.0290
18818THY    CA251217   4.474   7.446   6.321  0.6740  0.5920  0.6427
18818THY    CP151218   4.568   7.554   6.357 -0.8632  0.4414 -0.1460
18818THY    HP151219   4.619   7.537   6.452 -0.1597  0.1631  0.3518
18818THY    CP251220   4.488   7.677   6.379  0.5018 -0.0343 -0.2847
18818THY    HP251221   4.541   7.769   6.408 -0.9713 -1.1983  0.9764
18818THY    HP351222   4.417   7.666   6.462 -0.9358 -0.9203  1.6871
18818THY    HP451223   4.431   7.711   6.292 -0.9640 -0.0120 -2.5031
18818THY    CP351224   4.673   7.592   6.252 -0.1535 -0.0471 -0.3712
18818THY    HP551225   4.713   7.498   6.211  3.7940 -0.3968  1.2499
18818THY    HP651226   4.739   7.661   6.306  0.5189 -0.2100 -0.8791
18818THY    HP751227   4.636   7.638   6.160 -1.1538 -1.2163 -3.3268
18818THY    CA351228   4.424   7.430   6.185  0.1462  0.1124  0.3675
18818THY    HA351229   4.446   7.512   6.117 -0.6811  0.3226  0.7748
18818THY    CA451230   4.324   7.334   6.147 -0.4354  0.5226 -0.3699
18818THY    HA451231   4.282   7.341   6.048 -0.4781  0.6079  0.8543
18818THY    CA551232   4.279   7.252   6.238 -0.0533  0.2084  0.5204
18818THY    CM151233   4.174   7.154   6.213  0.6915  0.4465  0.1342
18818THY    HM151234   4.089   7.191   6.272  0.6492  0.4226  0.0740
18818THY    HM251235   4.203   7.055   6.250 -1.7260  1.5083 -0.2459
18818THY    HM351236   4.147   7.147   6.107 -0.5788  0.6641  1.2108
18818THY    CA651237   4.327   7.264   6.368 -0.2415 -0.4831  0.2768
18818THY    HA651238   4.292   7.199   6.447 -0.6264  2.1031  3.3426
18819THY      O51239   0.659   6.702   7.264  0.0592 -0.3888 -0.6841
18819THY     HO51240   0.591   6.710   7.195 -0.7455  0.5575  1.7037
18819THY    CA151241   0.730   6.583   7.241 -0.0737 -0.4192 -0.7161
18819THY    CA251242   0.778   6.495   7.342  0.0519  0.6263  0.0418
18819THY    CP151243   0.719   6.515   7.481 -0.0860  0.4208 -0.9000
18819THY    HP151244   0.690   6.621   7.493  0.5205 -0.8160 -0.5779
18819THY    CP251245   0.816   6.478   7.591 -0.3744  0.2077 -0.0167
18819THY    HP251246   0.912   6.531   7.588  0.3180  0.2748 -1.2177
18819THY    HP351247   0.847   6.372   7.596  1.4437 -0.3391  0.4418
18819THY    HP451248   0.776   6.506   7.690  1.7562  0.6455  1.7972
18819THY    CP351249   0.598   6.433   7.507 -0.0140 -0.0604  0.2403
18819THY    HP551250   0.610   6.325   7.489 -2.7464 -2.5422  0.2245
18819THY    HP651251   0.524   6.474   7.438 -0.1316  0.2003  0.4673
18819THY    HP751252   0.552   6.445   7.606  0.4676  0.1624  0.2639
18819THY    CA351253   0.856   6.377   7.308  0.0870 -0.7765  0.3174
18819THY    HA351254   0.874   6.302   7.385 -1.3625  0.8241  1.5296
18819THY    CA451255   0.882   6.346   7.169  0.0476  0.1401  0.1878
18819THY    HA451256   0.924   6.252   7.137 -1.1451  1.7654 -0.9498
18819THY    CA551257   0.848   6.440   7.067  0.5154  0.1688 -0.3473
18819THY    CM151258   0.860   6.421   6.919 -0.1221  0.8471 -0.1654
18819THY    HM151259   0.876   6.321   6.879 -0.2949 -1.5692  0.7248
18819THY    HM251260   0.938   6.485   6.876  0.4491  1.5120 -0.3987
18819THY    HM351261   0.772   6.464   6.871 -1.0989  2.0411 -0.7662
18819THY    CA651262   0.775   6.556   7.110  0.8066  0.0591  0.1679
18819THY    HA651263   0.749   6.621   7.027  1.0182 -1.7509 -1.9488
18820THY      O51264   1.043   6.374   1.736 -0.4946  0.0810  0.0842
18820THY     HO51265   1.072   6.296   1.785 -2.9165  0.0361 -0.9321
18820THY    CA151266   0.910   6.370   1.761 -0.4701  0.1353  0.1797
18820THY    CA251267   0.819   6.476   1.750  0.1618  0.5476  0.4051
18820THY    CP151268   0.866   6.617   1.704 -0.0172  0.0109  0.1407
18820THY    HP151269   0.969   6.609   1.667  0.8068  0.5314  5.0034
18820THY    CP251270   0.888   6.712   1.823  0.4306 -0.3176  0.5146
18820THY    HP251271   0.953   6.667   1.899 -0.8710 -0.3697 -1.5880
18820THY    HP351272   0.796   6.715   1.883  0.9221  0.7207 -2.3105
18820THY    HP451273   0.937   6.804   1.790 -3.0678 -1.3842  2.1778
18820THY    CP351274   0.798   6.676   1.580  0.5546 -0.0949 -0.0652
18820THY    HP551275   0.858   6.751   1.527  0.6740 -1.4109 -1.0504
18820THY    HP651276   0.709   6.735   1.606  1.4873 -1.6354  2.1631
18820THY    HP751277   0.763   6.607   1.502 -0.0871  0.0149  0.1351
18820THY    CA351278   0.684   6.454   1.779  0.5122 -0.2481  0.3630
18820THY    HA351279   0.607   6.530   1.780  0.7159  2.7507  0.6644
18820THY    CA451280   0.649   6.326   1.813  0.1093 -0.0453 -0.5043
18820THY    HA451281   0.543   6.306   1.829  0.0932 -0.1132 -0.4753
18820THY    CA551282   0.741   6.221   1.818 -0.0113 -0.2658 -0.0997
18820THY    CM151283   0.690   6.081   1.863 -0.3925 -0.1260 -0.1363
18820THY    HM151284   0.776   6.013   1.872 -0.4763 -0.3444 -0.2724
18820THY    HM251285   0.635   6.039   1.778  0.5526 -2.1871  2.4896
18820THY    HM351286   0.643   6.094   1.961  1.1112  0.3197  2.6285
18820THY    CA651287   0.874   6.240   1.803  0.0676  0.3522  1.0836
18820THY    HA651288   0.941   6.155   1.802 -1.3236 -0.7737 -0.0493
18821THY      O51289   4.620   6.991   7.482 -0.3437 -0.4430  0.0172
18821THY     HO51290   4.705   7.031   7.508 -1.0662 -1.6515  2.5622
18821THY    CA151291   4.613   7.028   7.357  0.4507  0.4378 -0.2453
18821THY    CA251292   4.489   7.084   7.310  0.2461 -0.2558  1.5850
18821THY    CP151293   4.370   7.082   7.399  0.2413  0.7194  0.0541
18821THY    HP151294   4.387   7.037   7.498  2.5540 -1.0546 -3.4038
18821THY    CP251295   4.259   6.997   7.318  0.3191 -0.1585 -0.7833
18821THY    HP251296   4.160   6.986   7.363 -0.7937 -2.1902  0.2516
18821THY    HP351297   4.303   6.897   7.324  0.5579  1.2351 -0.6075
18821THY    HP451298   4.238   7.031   7.216  0.5414  0.7626  2.4911
18821THY    CP351299   4.314   7.229   7.402 -0.2464 -0.2545 -0.2111
18821THY    HP551300   4.234   7.240   7.476  0.7524  0.6126  1.7401
18821THY    HP651301   4.280   7.259   7.302  2.0690 -1.0877 -0.1547
18821THY    HP751302   4.389   7.305   7.428 -0.6557  2.1565 -0.5547
18821THY    CA351303   4.482   7.125   7.180 -0.2834 -0.4005  0.8284
18821THY    HA351304   4.386   7.157   7.139 -1.0085 -0.0178 -0.7639
18821THY    CA451305   4.590   7.104   7.095 -0.4319 -0.4075  0.7506
18821THY    HA451306   4.583   7.125   6.988  1.0587 -1.0338 -1.4986
18821THY    CA551307   4.714   7.070   7.144  0.3673  0.1954  0.1510
18821THY    CM151308   4.825   7.058   7.043 -0.4101  0.9440  0.1073
18821THY    HM151309   4.795   7.018   6.945 -1.9362  1.9264 -1.2719
18821THY    HM251310   4.910   7.001   7.081  0.5477  2.3416  2.3301
18821THY    HM351311   4.865   7.158   7.021 -0.9005  1.7171  0.4789
18821THY    CA651312   4.726   7.031   7.275 -0.1909 -0.2091  0.7242
18821THY    HA651313   4.822   7.003   7.318 -0.7544  0.8613  0.3725
18822THY      O51314   3.519   3.833   6.461  0.3063 -0.5802 -0.4352
18822THY     HO51315   3.423   3.843   6.475  0.7291  1.1018  2.0974
18822THY    CA151316   3.545   3.744   6.355  0.8748 -0.3943 -0.5469
18822THY    CA251317   3.671   3.744   6.288  0.5331 -0.3223 -0.1489
18822THY    CP151318   3.788   3.828   6.339  0.1005 -0.3844  0.6765
18822THY    HP151319   3.798   3.810   6.447  3.1849 -0.6702  0.1922
18822THY    CP251320   3.769   3.972   6.306 -0.3392  0.3276 -0.7703
18822THY    HP251321   3.863   4.028   6.313  0.1338 -0.6347 -1.4181
18822THY    HP351322   3.694   4.017   6.372  0.6651 -0.3373  2.1696
18822THY    HP451323   3.741   3.986   6.201 -1.2851  0.6431 -0.2022
18822THY    CP351324   3.924   3.772   6.289  0.2526 -0.4604  0.4707
18822THY    HP551325   4.009   3.810   6.347 -0.9778  2.8099 -1.3394
18822THY    HP651326   3.943   3.794   6.184 -1.2276 -1.4172 -2.3347
18822THY    HP751327   3.938   3.665   6.306  0.8973 -0.3607  0.5693
18822THY    CA351328   3.679   3.662   6.170 -0.3212 -0.6179  0.8236
18822THY    HA351329   3.770   3.662   6.111 -0.5337 -0.9523  0.4060
18822THY    CA451330   3.576   3.571   6.143 -0.0364 -0.1487  0.3194
18822THY    HA451331   3.589   3.505   6.057 -1.7588  1.3811 -2.1431
18822THY    CA551332   3.451   3.582   6.209 -0.2778  0.4937 -0.3631
18822THY    CM151333   3.338   3.499   6.155  0.0612  0.4996 -0.2454
18822THY    HM151334   3.372   3.440   6.070  2.9279  1.4317 -0.1337
18822THY    HM251335   3.255   3.563   6.123  0.7009 -1.1117 -0.1761
18822THY    HM351336   3.295   3.431   6.230 -2.9486 -1.9308 -1.1955
18822THY    CA651337   3.438   3.666   6.312 -0.1306  0.4022 -0.5930
18822THY    HA651338   3.344   3.659   6.367 -1.0012 -0.8246  0.7244
18823THY      O51339   5.053   5.790   7.724  0.0703 -0.4407  0.7202
18823THY     HO51340   5.104   5.795   7.807 -0.5713 -0.0717  1.5052
18823THY    CA151341   5.125   5.857   7.637 -0.3437  0.3850  0.6047
18823THY    CA251342   5.066   5.907   7.517  0.1344 -0.4147 -0.1399
18823THY    CP151343   4.923   5.865   7.480  0.3298 -0.1789 -0.1155
18823THY    HP151344   4.900   5.779   7.543 -1.1470  1.3222  1.2781
18823THY    CP251345   4.898   5.834   7.332  0.5609  0.0528 -0.0487
18823THY    HP251346   4.804   5.779   7.325  0.6919  0.9488 -0.3939
18823THY    HP351347   4.979   5.766   7.304  0.7031 -0.9613  0.5050
18823THY    HP451348   4.896   5.931   7.280  0.9744  0.2943  0.0932
18823THY    CP351349   4.829   5.973   7.540  0.2400 -0.5910  0.7485
18823THY    HP551350   4.729   5.962   7.497  0.3502 -1.2820  2.2542
18823THY    HP651351   4.860   6.075   7.519  1.5240 -0.0841  0.4854
18823THY    HP751352   4.827   5.967   7.650  0.6343 -0.6002  0.4051
18823THY    CA351353   5.140   5.988   7.429  0.0446  0.3863 -0.3895
18823THY    HA351354   5.101   6.011   7.331  1.8071 -0.1191  0.6220
18823THY    CA451355   5.273   6.019   7.460  0.8114 -0.1741 -0.8305
18823THY    HA451356   5.336   6.078   7.394  0.7618  0.9217  0.4814
18823THY    CA551357   5.336   5.966   7.572 -0.4628  0.2394  0.2848
18823THY    CM151358   5.488   5.984   7.588  0.0407 -0.5385 -0.3225
18823THY    HM151359   5.533   5.923   7.667 -0.0395  0.8661  1.3848
18823THY    HM251360   5.518   6.087   7.608  0.4035  0.4660 -0.6140
18823THY    HM351361   5.529   5.948   7.493  0.8806 -0.5403  0.5937
18823THY    CA651362   5.259   5.892   7.662  0.3052  0.4394 -0.4285
18823THY    HA651363   5.313   5.854   7.749 -0.6514  1.8902  1.3866
18824THY      O51364   4.652   2.614   4.044  0.6702 -0.3750 -0.0808
18824THY     HO51365   4.659   2.666   3.962  0.7055 -1.1791 -1.3170
18824THY    CA151366   4.556   2.673   4.120  0.0468 -0.1056  0.5171
18824THY    CA251367   4.460   2.598   4.188 -1.2152  0.2362 -0.3408
18824THY    CP151368   4.476   2.445   4.207 -0.9027 -0.0605  0.4265
18824THY    HP151369   4.583   2.423   4.216 -0.2610  1.8256  3.5993
18824THY    CP251370   4.426   2.350   4.098  0.4611 -0.5040 -0.5174
18824THY    HP251371   4.317   2.355   4.095  0.3458  2.4648  1.0164
18824THY    HP351372   4.444   2.243   4.116 -1.6724 -0.3382 -0.8884
18824THY    HP451373   4.469   2.370   3.999 -0.8128 -1.0587 -0.4624
18824THY    CP351374   4.422   2.393   4.347  0.7750 -0.4713  0.0435
18824THY    HP551375   4.484   2.440   4.425  0.5736  1.4026 -2.6089
18824THY    HP651376   4.426   2.284   4.354 -2.1954 -2.5180 -0.3118
18824THY    HP751377   4.319   2.422   4.367  0.9925 -1.3242  1.5128
18824THY    CA351378   4.347   2.665   4.244  0.1769  0.4165 -0.1922
18824THY    HA351379   4.278   2.618   4.313 -0.1687  1.3815  1.6227
18824THY    CA451380   4.351   2.805   4.235  0.6899  0.4450 -0.0448
18824THY    HA451381   4.271   2.849   4.294  2.2122  3.6668 -1.2671
18824THY    CA551382   4.452   2.876   4.168 -0.7745 -0.0792  0.1568
18824THY    CM151383   4.457   3.026   4.173  0.5122 -0.3826  0.0565
18824THY    HM151384   4.372   3.072   4.224  1.3612  2.6725 -1.4392
18824THY    HM251385   4.469   3.080   4.079 -1.3020  0.7545  2.6586
18824THY    HM351386   4.538   3.057   4.240 -1.4795  0.6752  3.5143
18824THY    CA651387   4.551   2.804   4.103 -0.6243 -0.1173 -0.7222
18824THY    HA651388   4.622   2.858   4.041 -1.1137 -0.3214 -0.3109
18825THY      O51389   3.637   0.457   5.092 -0.3812 -0.0823 -0.3007
18825THY     HO51390   3.599   0.409   5.167 -0.2659  0.8862  1.0685
18825THY    CA151391   3.716   0.560   5.135  0.6750  0.5592 -0.3420
18825THY    CA251392   3.770   0.649   5.041 -0.1082  0.9879 -0.5875
18825THY    CP151393   3.766   0.606   4.887 -0.1668 -0.2882 -0.2347
18825THY    HP151394   3.718   0.509   4.874  2.2292 -1.1124 -1.3738
18825THY    CP251395   3.900   0.592   4.825 -0.4898 -0.0880  0.6654
18825THY    HP251396   3.970   0.553   4.900 -2.3953  0.3754 -2.1544
18825THY    HP351397   3.926   0.695   4.797 -3.0690  0.7966  1.6638
18825THY    HP451398   3.898   0.529   4.735 -0.8926 -0.2506  0.9046
18825THY    CP351399   3.695   0.711   4.799 -0.2536 -0.2093 -0.3880
18825THY    HP551400   3.721   0.812   4.832 -2.2782 -0.4194  0.2483
18825THY    HP651401   3.586   0.718   4.807 -0.2095 -0.0038  0.1121
18825THY    HP751402   3.720   0.702   4.693  0.8209  0.1160 -1.6395
18825THY    CA351403   3.845   0.757   5.080 -0.4463 -0.4337 -0.0120
18825THY    HA351404   3.888   0.832   5.014 -0.2083  0.8974  1.0580
18825THY    CA451405   3.866   0.769   5.219 -0.0946 -0.4987 -0.4578
18825THY    HA451406   3.920   0.853   5.262 -2.0136  1.3325 -0.1093
18825THY    CA551407   3.814   0.684   5.312  0.4778 -0.3191  0.2785
18825THY    CM151408   3.843   0.711   5.458  0.0800 -0.8160  1.3499
18825THY    HM151409   3.758   0.750   5.513 -0.8648 -0.2366 -1.2991
18825THY    HM251410   3.931   0.777   5.463  1.2396  0.0945 -0.1917
18825THY    HM351411   3.871   0.619   5.511 -1.2580 -2.5221 -0.1342
18825THY    CA651412   3.737   0.577   5.269  0.0112  0.2713 -0.1422
18825THY    HA651413   3.705   0.500   5.338  0.7215 -0.2492 -0.9201
18826THY      O51414   1.087   9.391   1.684  0.0361 -0.7293  0.0524
18826THY     HO51415   1.040   9.475   1.673  1.2654 -1.0314  0.7122
18826THY    CA151416   1.025   9.328   1.786 -0.1422  0.0432  0.3592
18826THY    CA251417   1.040   9.192   1.804  0.0440 -0.2007  0.0278
18826THY    CP151418   1.142   9.111   1.725  0.2587  0.5330  0.2643
18826THY    HP151419   1.194   9.173   1.651 -0.2058  0.3593  0.4535
18826THY    CP251420   1.073   9.000   1.648  0.8350 -0.2407 -0.3096
18826THY    HP251421   0.980   9.039   1.606  0.4653 -2.3982 -3.1849
18826THY    HP351422   1.047   8.924   1.723  1.4810  1.4164  1.0520
18826THY    HP451423   1.133   8.967   1.562  1.3935  0.0591 -0.0950
18826THY    CP351424   1.254   9.052   1.821  0.1556 -0.2703  0.2503
18826THY    HP551425   1.351   9.023   1.779  0.9325  2.1943 -1.0419
18826THY    HP651426   1.225   8.958   1.869  1.4355 -0.7307 -0.4010
18826THY    HP751427   1.269   9.130   1.896  1.1208  0.5309 -0.6745
18826THY    CA351428   0.965   9.135   1.896 -0.1041 -0.3803 -0.2843
18826THY    HA351429   0.975   9.029   1.916 -2.5431  0.3703 -0.4291
18826THY    CA451430   0.879   9.206   1.978  0.0917 -0.3414  0.3170
18826THY    HA451431   0.821   9.154   2.053  2.6280  1.6363  0.1177
18826THY    CA551432   0.857   9.341   1.963  0.4408 -0.3035  0.0152
18826THY    CM151433   0.750   9.417   2.045 -0.3583  0.3850 -0.4564
18826THY    HM151434   0.663   9.434   1.980 -0.2677  0.6163  1.0516
18826THY    HM251435   0.789   9.518   2.060 -1.3217 -2.3158  0.4097
18826THY    HM351436   0.726   9.368   2.139  0.2627 -0.9800 -3.6016
18826THY    CA651437   0.928   9.400   1.858 -0.2575 -0.4416  0.0769
18826THY    HA651438   0.913   9.506   1.842  1.6426 -0.6846  0.3534
18827THY      O51439   7.557   0.891   7.076  0.3070 -0.2845  0.2944
18827THY     HO51440   7.550   0.796   7.099 -0.4738  1.6794  0.7702
18827THY    CA151441   7.439   0.937   7.027  0.2915 -0.0402 -0.5830
18827THY    CA251442   7.436   1.060   6.964 -0.7150 -0.1225 -0.6685
18827THY    CP151443   7.569   1.148   6.963 -0.0201 -0.4418  0.6319
18827THY    HP151444   7.656   1.084   6.983  0.0582 -3.5842 -0.4321
18827THY    CP251445   7.562   1.266   7.058 -0.2221  0.6331  0.2736
18827THY    HP251446   7.638   1.344   7.050 -1.2890 -1.3395  1.1990
18827THY    HP351447   7.563   1.234   7.163  0.0042  1.2650  2.2395
18827THY    HP451448   7.462   1.307   7.041 -1.1045 -0.1081 -2.0052
18827THY    CP351449   7.596   1.190   6.828 -0.0291 -0.4807 -0.3312
18827THY    HP551450   7.700   1.223   6.823 -0.1791  1.5382  0.6580
18827THY    HP651451   7.540   1.283   6.815  0.7855  0.0327  0.2496
18827THY    HP751452   7.575   1.119   6.748 -2.3787 -0.6445  0.4432
18827THY    CA351453   7.317   1.116   6.926 -0.3001  0.4813  0.3960
18827THY    HA351454   7.310   1.215   6.881 -1.2046 -0.9754 -0.3078
18827THY    CA451455   7.202   1.047   6.935 -0.1815  0.2353  1.1008
18827THY    HA451456   7.112   1.106   6.920 -1.4296  0.3529 -0.6613
18827THY    CA551457   7.204   0.916   6.990 -0.5905  0.5654  0.1794
18827THY    CM151458   7.078   0.839   6.989 -0.4758 -0.2661 -0.8064
18827THY    HM151459   7.042   0.817   6.888 -2.4668  0.4391 -1.0033
18827THY    HM251460   7.002   0.900   7.040  0.3452 -0.2479  0.2464
18827THY    HM351461   7.070   0.758   7.061  0.4204 -0.1450 -0.7977
18827THY    CA651462   7.321   0.864   7.036 -0.3254 -1.0388  0.3339
18827THY    HA651463   7.317   0.769   7.088  0.3634 -0.1212  0.7957
18828THY      O51464   5.609   3.054   4.099 -0.4584 -0.2148 -0.1479
18828THY     HO51465   5.575   3.092   4.016 -2.0546 -0.2215 -1.4774
18828THY    CA151466   5.654   2.929   4.067  0.3373  0.3772  0.3163
18828THY    CA251467   5.644   2.825   4.152 -0.5762 -1.2429  0.0103
18828THY    CP151468   5.604   2.842   4.298  0.6275 -0.2164  0.6822
18828THY    HP151469   5.562   2.941   4.319 -1.9370 -1.3261 -0.0942
18828THY    CP251470   5.725   2.810   4.391 -0.7330  0.9553  0.5040
18828THY    HP251471   5.708   2.840   4.495 -0.8290  0.9036  0.6341
18828THY    HP351472   5.807   2.876   4.359  1.5764  2.3087 -1.5597
18828THY    HP451473   5.748   2.704   4.379 -1.6456 -0.3216  0.4261
18828THY    CP351474   5.483   2.749   4.332  0.4842  0.4273 -0.3552
18828THY    HP551475   5.468   2.748   4.441 -1.9528  0.1592  0.9814
18828THY    HP651476   5.489   2.651   4.284 -3.0230 -0.9114 -0.0416
18828THY    HP751477   5.400   2.806   4.290  1.0053 -1.5660 -0.9947
18828THY    CA351478   5.681   2.697   4.114 -0.3341  0.5310  0.2310
18828THY    HA351479   5.680   2.612   4.182 -0.4464 -0.0539 -0.2437
18828THY    CA451480   5.698   2.669   3.980 -0.2890 -0.3365  0.2155
18828THY    HA451481   5.697   2.564   3.949 -2.3797 -3.1819  0.9502
18828THY    CA551482   5.712   2.776   3.887  0.3996 -0.0508  0.0392
18828THY    CM151483   5.744   2.761   3.743  0.2901 -0.5655  0.5303
18828THY    HM151484   5.661   2.782   3.675  0.4678 -1.1444 -0.5707
18828THY    HM251485   5.785   2.660   3.730 -0.7472  2.3517 -0.3797
18828THY    HM351486   5.822   2.835   3.720  1.3124  0.4520 -0.1949
18828THY    CA651487   5.682   2.907   3.931 -0.5371  0.7521  0.1015
18828THY    HA651488   5.692   2.989   3.861 -2.7851  1.4425  1.0302
18829THY      O51489   4.876   6.946   4.798  0.0288  0.2290 -0.7766
18829THY     HO51490   4.897   7.038   4.774 -0.5307  0.2289 -0.6487
18829THY    CA151491   4.977   6.918   4.879 -0.0558  0.3645 -0.2316
18829THY    CA251492   4.978   6.798   4.947  0.0209 -1.0591 -0.3276
18829THY    CP151493   4.850   6.705   4.946 -0.6562  0.0676 -0.6981
18829THY    HP151494   4.797   6.733   4.854  1.0518 -0.7431  0.0100
18829THY    CP251495   4.771   6.732   5.075  0.5009  0.6104 -0.1042
18829THY    HP251496   4.724   6.830   5.090  1.7497  1.5536  0.3704
18829THY    HP351497   4.842   6.724   5.158  1.2778  0.2892  2.4956
18829THY    HP451498   4.699   6.650   5.089 -0.7295 -0.3205  0.7865
18829THY    CP351499   4.886   6.558   4.931  0.0866  0.1817 -0.4040
18829THY    HP551500   4.798   6.496   4.914 -0.5524  2.0718 -0.0880
18829THY    HP651501   4.944   6.530   5.020  0.9660 -0.5642 -1.0260
18829THY    HP751502   4.955   6.552   4.846 -1.2148 -0.9050 -0.2496
18829THY    CA351503   5.086   6.765   5.033 -0.1633 -0.5777  0.5406
18829THY    HA351504   5.078   6.677   5.096  2.3421 -0.1910  0.5330
18829THY    CA451505   5.193   6.865   5.058 -0.1051  0.2937 -0.4766
18829THY    HA451506   5.270   6.844   5.131  0.1379 -0.6033 -3.0923
18829THY    CA551507   5.194   6.981   4.980  0.0230  0.0737  0.2114
18829THY    CM151508   5.313   7.070   4.987  0.6155 -0.6427 -0.0747
18829THY    HM151509   5.329   7.138   4.903  0.7454 -1.1619 -0.7276
18829THY    HM251510   5.406   7.016   5.008 -0.9846  2.1272 -2.0938
18829THY    HM351511   5.308   7.129   5.079 -1.0853 -1.1328  0.6087
18829THY    CA651512   5.085   7.009   4.895  0.0010 -0.7633 -0.4308
18829THY    HA651513   5.081   7.103   4.841  1.7259 -0.5736 -0.2145
18830THY      O51514   5.526   1.649   6.564  0.4956  0.4081 -0.0822
18830THY     HO51515   5.591   1.712   6.599  1.8748  0.7212 -1.6187
18830THY    CA151516   5.605   1.579   6.477 -0.3643  0.0263 -0.9844
18830THY    CA251517   5.568   1.563   6.337  0.1921  0.0065  0.1723
18830THY    CP151518   5.443   1.632   6.289 -0.2372 -0.3444 -0.2090
18830THY    HP151519   5.364   1.606   6.360  1.3342  0.4284 -3.2543
18830THY    CP251520   5.383   1.580   6.157 -0.4091  0.3233 -1.2234
18830THY    HP251521   5.303   1.647   6.123  2.2708 -0.9914  1.5688
18830THY    HP351522   5.338   1.482   6.176  1.5642  1.5961 -1.9449
18830THY    HP451523   5.461   1.581   6.079  0.1087  0.7179  2.4030
18830THY    CP351524   5.452   1.781   6.283  0.1593 -0.0785  0.4619
18830THY    HP551525   5.508   1.823   6.368  0.1599  0.8868 -1.3644
18830THY    HP651526   5.349   1.818   6.286  0.1128  0.2123  0.3091
18830THY    HP751527   5.502   1.813   6.191  0.5244 -0.0674 -0.0557
18830THY    CA351528   5.661   1.500   6.256 -0.4493 -0.0552 -0.1550
18830THY    HA351529   5.648   1.491   6.148  1.1896 -0.1971 -1.1327
18830THY    CA451530   5.782   1.446   6.312  0.5936  0.1291  0.2047
18830THY    HA451531   5.848   1.387   6.249 -0.5573 -0.7327 -0.2161
18830THY    CA551532   5.815   1.452   6.444  0.0684 -0.5208 -0.8762
18830THY    CM151533   5.930   1.386   6.513 -0.0885  0.2398 -0.5912
18830THY    HM151534   6.025   1.419   6.471  0.5159  0.2759 -2.1713
18830THY    HM251535   5.934   1.276   6.503  0.4573  2.3432 -0.7995
18830THY    HM351536   5.937   1.409   6.620  0.5103  0.1892 -0.5150
18830THY    CA651537   5.720   1.523   6.529  0.0520  0.4743  0.5492
18830THY    HA651538   5.739   1.525   6.636 -1.2236  0.7138  0.6527
18831THY      O51539   6.417   8.645   3.376  0.2643  0.3119 -0.2947
18831THY     HO51540   6.503   8.690   3.371 -0.1628 -0.0780  0.4878
18831THY    CA151541   6.335   8.702   3.284 -0.0245  1.0646 -1.3514
18831THY    CA251542   6.221   8.645   3.226  0.1449  0.1150 -0.2375
18831THY    CP151543   6.203   8.497   3.249 -0.0383  0.9673  0.3433
18831THY    HP151544   6.261   8.458   3.334  0.6425 -0.2365 -1.3637
18831THY    CP251545   6.244   8.410   3.125  0.1143  0.1503 -0.7354
18831THY    HP251546   6.188   8.425   3.031  1.8445 -0.9640 -1.0181
18831THY    HP351547   6.231   8.304   3.148 -0.5893 -0.4314 -0.7828
18831THY    HP451548   6.348   8.437   3.104 -0.2669  0.5828  1.2527
18831THY    CP351549   6.054   8.456   3.291 -0.4686  0.2735  0.4756
18831THY    HP551550   6.044   8.348   3.306 -1.6920 -1.9178  0.2503
18831THY    HP651551   5.984   8.471   3.209 -2.3717  1.8322  0.5105
18831THY    HP751552   6.015   8.505   3.381 -2.3585  0.1941 -0.7849
18831THY    CA351553   6.128   8.720   3.150 -0.3434  1.3065  0.2641
18831THY    HA351554   6.047   8.679   3.090  1.4231 -1.4814  0.5525
18831THY    CA451555   6.165   8.851   3.129  0.1266  0.4029 -0.0367
18831THY    HA451556   6.103   8.911   3.062 -0.3262 -1.3057 -2.2700
18831THY    CA551557   6.272   8.908   3.192 -0.3544  0.3586 -1.3768
18831THY    CM151558   6.298   9.053   3.171 -0.2944  0.2161  0.3011
18831THY    HM151559   6.202   9.099   3.147 -0.8191 -1.9404 -1.7218
18831THY    HM251560   6.378   9.072   3.098  0.1761  1.1111  1.9395
18831THY    HM351561   6.335   9.093   3.266 -0.1367  0.2172  0.1543
18831THY    CA651562   6.364   8.836   3.262  0.0193 -0.1906  0.0015
18831THY    HA651563   6.450   8.884   3.308  1.0557 -2.1180  0.1112
18832THY      O51564   1.707   0.778   3.773  0.1593 -0.2751 -0.3523
18832THY     HO51565   1.644   0.851   3.758 -0.6114 -0.5297 -1.0617
18832THY    CA151566   1.723   0.713   3.661 -0.5291 -0.3347 -0.5072
18832THY    CA251567   1.749   0.574   3.661  0.2577  0.1911  0.7176
18832THY    CP151568   1.770   0.495   3.792  0.3444  0.3027  0.7212
18832THY    HP151569   1.786   0.571   3.869 -0.6009 -0.2170  1.4723
18832THY    CP251570   1.888   0.399   3.788  0.7352 -0.4117  0.2869
18832THY    HP251571   1.974   0.455   3.749 -0.0594 -0.7005  1.3282
18832THY    HP351572   1.873   0.315   3.719 -0.7036 -0.4590  0.5551
18832THY    HP451573   1.904   0.337   3.877  1.2379 -0.2496  0.6449
18832THY    CP351574   1.646   0.418   3.824 -0.0437 -0.3186  0.4543
18832THY    HP551575   1.621   0.340   3.751 -0.5894  0.2705  0.0616
18832THY    HP651576   1.559   0.485   3.824  1.0892  2.5398  2.0765
18832THY    HP751577   1.652   0.370   3.922 -0.0079 -0.8206 -0.6077
18832THY    CA351578   1.779   0.511   3.540 -0.6264 -0.0603  0.3266
18832THY    HA351579   1.794   0.404   3.530 -1.2546  2.0748  0.0005
18832THY    CA451580   1.765   0.581   3.420  0.0459 -0.3945 -0.5410
18832THY    HA451581   1.790   0.536   3.324  0.3936 -1.3636  1.5903
18832THY    CA551582   1.724   0.711   3.421  0.1631  0.0821 -0.3351
18832THY    CM151583   1.709   0.786   3.294 -0.0241  0.1027 -0.2974
18832THY    HM151584   1.618   0.847   3.302  0.2192 -1.2220  0.2737
18832THY    HM251585   1.700   0.715   3.210 -0.9385  0.8465 -1.0929
18832THY    HM351586   1.795   0.853   3.286  0.4650  1.1824 -0.7734
18832THY    CA651587   1.701   0.780   3.542  0.5256 -0.0608  0.2416
18832THY    HA651588   1.678   0.886   3.540 -0.1855  0.9905  0.1228
18833THY      O51589   6.175   1.178   1.982  0.2913  0.4544  0.2693
18833THY     HO51590   6.085   1.143   1.987  1.4596  1.5242 -3.0028
18833THY    CA151591   6.169   1.294   2.049  0.0780 -0.2585  0.2474
18833THY    CA251592   6.275   1.374   2.089 -0.3750 -0.3623  0.5351
18833THY    CP151593   6.418   1.326   2.067 -1.1220  0.8397  0.1575
18833THY    HP151594   6.418   1.282   1.966  0.8675  1.7417 -2.1230
18833THY    CP251595   6.484   1.225   2.156 -0.2146 -0.1130  0.5921
18833THY    HP251596   6.428   1.131   2.152 -0.2097  1.8145  0.4845
18833THY    HP351597   6.486   1.261   2.259 -0.7358  0.1161 -0.0195
18833THY    HP451598   6.589   1.207   2.130  0.5626  1.4897  2.4905
18833THY    CP351599   6.528   1.442   2.055  0.6266 -0.7214 -0.2525
18833THY    HP551600   6.485   1.528   2.001 -2.9040  0.3303 -1.1684
18833THY    HP651601   6.615   1.407   1.999  1.9767  0.6104  0.8438
18833THY    HP751602   6.555   1.485   2.152  0.0087 -0.9622  0.7116
18833THY    CA351603   6.256   1.496   2.153 -0.2448 -0.4833 -0.3237
18833THY    HA351604   6.333   1.572   2.153  1.0118 -0.3400 -1.5727
18833THY    CA451605   6.122   1.534   2.178  0.0789 -0.3142 -0.4252
18833THY    HA451606   6.108   1.634   2.218  1.3477 -0.2452 -0.2498
18833THY    CA551607   6.012   1.457   2.136 -0.1575 -0.0948 -0.3388
18833THY    CM151608   5.870   1.510   2.148 -0.6845 -0.0594 -0.0108
18833THY    HM151609   5.854   1.577   2.234 -1.0333  1.4472 -1.9618
18833THY    HM251610   5.797   1.428   2.147 -1.5899 -0.4617  0.7700
18833THY    HM351611   5.839   1.561   2.055  2.0039 -2.2083 -1.9630
18833THY    CA651612   6.037   1.333   2.074 -0.1956  0.0101 -0.6813
18833THY    HA651613   5.951   1.268   2.063  1.0702 -1.3858 -2.2071
18834THY      O51614   4.205   5.631   5.863 -0.3927  0.0770 -0.0750
18834THY     HO51615   4.127   5.627   5.805 -1.2913  0.9810  2.6239
18834THY    CA151616   4.260   5.750   5.826 -0.0728 -0.3250  0.1865
18834THY    CA251617   4.372   5.802   5.893 -0.1568  0.3070  0.4349
18834THY    CP151618   4.451   5.713   5.991  0.5886 -0.1478  0.3408
18834THY    HP151619   4.400   5.624   6.027  1.9071  0.5402 -0.1613
18834THY    CP251620   4.456   5.788   6.119 -0.1345 -0.8780  0.4144
18834THY    HP251621   4.354   5.819   6.144  0.4551  2.0632  0.2764
18834THY    HP351622   4.517   5.877   6.102  1.0212 -1.3703 -0.4565
18834THY    HP451623   4.491   5.718   6.197 -2.6073 -0.0064  0.0343
18834THY    CP351624   4.579   5.658   5.929  0.4574 -0.7808  0.1360
18834THY    HP551625   4.632   5.594   6.000  0.5703 -1.8706 -1.0252
18834THY    HP651626   4.647   5.740   5.904 -1.2651 -2.6117  1.0986
18834THY    HP751627   4.563   5.596   5.840 -1.3834 -1.9533  2.1356
18834THY    CA351628   4.422   5.931   5.850  0.2479  0.1944 -0.0508
18834THY    HA351629   4.517   5.974   5.880  0.8754  0.2852 -1.4460
18834THY    CA451630   4.371   5.986   5.731  0.1459  1.0441 -0.7019
18834THY    HA451631   4.415   6.073   5.684  1.1797 -1.5092 -2.4874
18834THY    CA551632   4.260   5.928   5.664  0.2829  0.1631  0.1526
18834THY    CM151633   4.200   5.995   5.546 -0.5897  0.4378  0.1137
18834THY    HM151634   4.148   5.927   5.477 -0.9956  1.7546 -0.9644
18834THY    HM251635   4.279   6.035   5.482 -1.5463 -0.8087  0.0815
18834THY    HM351636   4.138   6.077   5.585  3.7298  3.0489  2.5027
18834THY    CA651637   4.202   5.811   5.720  0.3754 -0.5634  0.5060
18834THY    HA651638   4.117   5.766   5.671  0.2522  1.5663 -1.7596
18835THY      O51639   5.280   8.537   5.390  0.2287 -0.0454 -0.0273
18835THY     HO51640   5.373   8.557   5.410  0.3348 -1.4133  1.0268
18835THY    CA151641   5.262   8.579   5.259  0.3017 -0.6443 -0.3116
18835THY    CA251642   5.144   8.549   5.184 -0.9086  0.1138  0.3271
18835THY    CP151643   5.041   8.457   5.251  0.4648  0.7170  0.0970
18835THY    HP151644   5.035   8.482   5.358  0.2037  0.4326  1.3046
18835THY    CP251645   5.073   8.310   5.218  0.2601 -0.5456 -0.5809
18835THY    HP251646   5.171   8.271   5.250 -0.3552 -0.7995 -2.4217
18835THY    HP351647   5.059   8.301   5.109  3.5530 -1.2119  0.8207
18835THY    HP451648   4.999   8.248   5.269  0.8267 -0.6527 -1.3610
18835THY    CP351649   4.891   8.482   5.214  0.6371 -0.0976 -0.2897
18835THY    HP551650   4.851   8.583   5.230  1.5188  0.4744 -0.0232
18835THY    HP651651   4.825   8.416   5.271 -0.5184  0.4313  1.2466
18835THY    HP751652   4.887   8.452   5.109  1.6303 -0.0699 -0.5405
18835THY    CA351653   5.136   8.614   5.054 -0.1243 -0.2020  0.3545
18835THY    HA351654   5.048   8.595   4.992  1.1275 -2.2017  0.8150
18835THY    CA451655   5.233   8.709   5.014  0.0175 -0.1909 -0.0096
18835THY    HA451656   5.208   8.759   4.921 -0.0620 -0.3841 -0.4046
18835THY    CA551657   5.340   8.744   5.093 -0.2815  0.0413 -0.0049
18835THY    CM151658   5.439   8.860   5.068 -0.0656  0.4297 -0.0109
18835THY    HM151659   5.526   8.827   5.010  0.2278  1.6589 -1.5489
18835THY    HM251660   5.466   8.916   5.159  1.5676  0.0101 -0.0811
18835THY    HM351661   5.380   8.926   5.004 -0.2340 -2.9419 -3.1380
18835THY    CA651662   5.354   8.672   5.213  0.1027  0.2441 -0.6372
18835THY    HA651663   5.433   8.707   5.279  1.2244 -1.7853  0.8070
18836THY      O51664   7.812   2.091   4.773  0.2195 -0.0788  0.4914
18836THY     HO51665   7.817   2.000   4.739 -0.3028 -0.0507  0.4501
18836THY    CA151666   7.870   2.075   4.899  0.3413  0.0730 -0.3932
18836THY    CA251667   7.894   2.182   4.987  0.5675  0.4260 -0.1125
18836THY    CP151668   7.836   2.325   4.960 -0.1222 -0.5086 -0.5429
18836THY    HP151669   7.842   2.352   4.854  3.0844 -0.2029  0.4764
18836THY    CP251670   7.924   2.445   4.994  0.4257  0.7124  0.3093
18836THY    HP251671   8.015   2.446   4.931 -0.7083 -0.9927  0.6367
18836THY    HP351672   7.950   2.458   5.100  0.8399  0.8209 -1.2554
18836THY    HP451673   7.870   2.539   4.977  0.3497 -0.8552  0.0146
18836THY    CP351674   7.704   2.354   5.024 -0.0613  0.7283 -0.0094
18836THY    HP551675   7.657   2.430   4.961  2.9166  0.5813  1.8535
18836THY    HP651676   7.725   2.404   5.119 -0.9935  1.2618 -0.6162
18836THY    HP751677   7.645   2.262   5.033 -1.4210  0.4369  0.8090
18836THY    CA351678   7.966   2.158   5.107  1.1343 -0.6982  0.0340
18836THY    HA351679   7.984   2.237   5.179  1.0488 -0.2102 -0.3818
18836THY    CA451680   8.002   2.023   5.142 -0.2162 -0.0652 -0.3695
18836THY    HA451681   8.064   2.005   5.229 -1.2190  0.6370 -0.4596
18836THY    CA551682   7.979   1.921   5.044 -0.0658 -0.3333 -0.0999
18836THY    CM151683   8.009   1.773   5.073  0.0737  0.1074 -0.6256
18836THY    HM151684   8.085   1.729   5.006 -1.5827 -0.3756 -2.9354
18836THY    HM251685   7.920   1.711   5.057 -1.5421  0.3297  1.5558
18836THY    HM351686   8.037   1.755   5.178 -0.0430  0.2651  0.1073
18836THY    CA651687   7.912   1.945   4.929  0.5154 -0.1938 -0.7164
18836THY    HA651688   7.892   1.868   4.855 -1.8507 -2.6024  1.9851
18837THY      O51689   1.712   8.965   6.578 -0.4051 -0.3911  0.4653
18837THY     HO51690   1.679   9.010   6.658 -1.5712 -0.5130 -0.1311
18837THY    CA151691   1.816   8.880   6.611  0.3138  0.9071  0.1490
18837THY    CA251692   1.857   8.790   6.512 -0.3518  0.0890 -0.4558
18837THY    CP151693   1.789   8.770   6.372 -0.8204 -0.1008  0.6853
18837THY    HP151694   1.712   8.846   6.355  0.6733 -2.0073  1.8766
18837THY    CP251695   1.723   8.639   6.354  0.2104 -0.4846 -0.5130
18837THY    HP251696   1.634   8.636   6.417  0.7433  0.2395 -1.4693
18837THY    HP351697   1.785   8.552   6.378 -0.9999 -2.4474 -2.0041
18837THY    HP451698   1.676   8.640   6.255  2.6810 -1.7444 -0.3278
18837THY    CP351699   1.896   8.784   6.260  0.5069 -0.7649  0.0513
18837THY    HP551700   1.964   8.698   6.253 -0.0662  1.7845 -0.7043
18837THY    HP651701   1.955   8.871   6.288 -2.1484 -0.2474  1.8044
18837THY    HP751702   1.850   8.804   6.163 -1.3242 -0.0927 -0.5768
18837THY    CA351703   1.967   8.713   6.552  0.6389  0.2191 -0.4182
18837THY    HA351704   2.004   8.645   6.477 -0.9047 -1.6959  0.7499
18837THY    CA451705   2.032   8.727   6.671  0.2197  0.2175  0.2593
18837THY    HA451706   2.123   8.672   6.693  0.9200  1.4492  1.8342
18837THY    CA551707   1.984   8.811   6.765 -0.0964  0.0880  0.6388
18837THY    CM151708   2.047   8.823   6.904 -0.5116  0.3653  0.7151
18837THY    HM151709   1.987   8.760   6.970 -0.1531  0.3472  0.3542
18837THY    HM251710   2.057   8.928   6.934  2.3090  0.9204  0.3497
18837THY    HM351711   2.142   8.769   6.905 -1.6601 -0.4207 -1.4062
18837THY    CA651712   1.871   8.887   6.735 -0.2928  0.5167 -0.4038
18837THY    HA651713   1.825   8.957   6.805  0.7780 -2.1844  3.3412
18838THY      O51714   3.380   4.880   2.922  0.9725  0.1585  0.7202
18838THY     HO51715   3.413   4.950   2.863  0.7389 -2.3566 -1.1461
18838THY    CA151716   3.448   4.875   3.037 -0.1354 -0.0570  0.5819
18838THY    CA251717   3.384   4.839   3.151  0.6678  1.1063  0.2518
18838THY    CP151718   3.232   4.797   3.149  1.0995 -0.2118 -0.1458
18838THY    HP151719   3.184   4.805   3.051  1.2701 -0.2449  0.5257
18838THY    CP251720   3.153   4.881   3.253  0.5565  1.1579  0.3171
18838THY    HP251721   3.180   4.868   3.359  1.5926  0.7955 -0.5941
18838THY    HP351722   3.047   4.864   3.235  0.8753 -0.2504 -0.2977
18838THY    HP451723   3.174   4.989   3.246  0.1527  0.7155  0.3658
18838THY    CP351724   3.216   4.650   3.184 -0.0980  0.4725  0.1659
18838THY    HP551725   3.244   4.624   3.286 -3.0526  0.9754 -1.5666
18838THY    HP651726   3.269   4.592   3.108  0.6602  2.0765 -1.2944
18838THY    HP751727   3.112   4.616   3.172  0.0118  1.4108 -0.5394
18838THY    CA351728   3.459   4.831   3.272 -0.2332  0.5020 -0.8324
18838THY    HA351729   3.407   4.791   3.358  0.3288  2.4336  2.2541
18838THY    CA451730   3.594   4.870   3.269  0.2557  0.2739 -0.0378
18838THY    HA451731   3.648   4.870   3.362 -0.3251  0.6296 -0.8353
18838THY    CA551732   3.657   4.907   3.153  0.6787  0.0763  0.5732
18838THY    CM151733   3.800   4.950   3.150 -0.1211 -0.2375  0.5150
18838THY    HM151734   3.811   5.053   3.115  0.3163 -1.4381  0.0863
18838THY    HM251735   3.855   4.875   3.091  0.7223  0.5705  0.4907
18838THY    HM351736   3.830   4.944   3.255  0.1217 -0.3073  0.4832
18838THY    CA651737   3.588   4.908   3.034 -0.2371  0.0556 -0.0739
18838THY    HA651738   3.641   4.928   2.941  1.0059  1.1669  2.1285
18839THY      O51739   5.115   0.685   4.269  0.1004 -0.3056  0.3280
18839THY     HO51740   5.107   0.593   4.236  1.5072  0.8064 -0.2279
18839THY    CA151741   5.254   0.694   4.279  0.7652  0.3471 -1.2822
18839THY    CA251742   5.309   0.773   4.385  0.5647 -0.0753  0.0788
18839THY    CP151743   5.213   0.853   4.482 -0.9032  0.0956 -0.1024
18839THY    HP151744   5.150   0.907   4.410  0.1214 -1.3352 -0.7543
18839THY    CP251745   5.278   0.967   4.558 -0.4341  0.7793 -0.3065
18839THY    HP251746   5.342   0.936   4.641  0.0324  0.5793  0.1164
18839THY    HP351747   5.209   1.049   4.582  0.7617 -2.2566  1.7545
18839THY    HP451748   5.343   1.018   4.487 -0.3671  1.6278  0.8334
18839THY    CP351749   5.145   0.759   4.579 -0.6421  0.4832  0.1815
18839THY    HP551750   5.082   0.686   4.527 -0.3566 -0.6959  0.7496
18839THY    HP651751   5.077   0.821   4.640 -1.2686 -1.5961  1.6542
18839THY    HP751752   5.219   0.709   4.641 -0.1435 -0.6124 -0.4708
18839THY    CA351753   5.448   0.775   4.389 -0.4781 -0.1142 -0.8050
18839THY    HA351754   5.499   0.837   4.463  0.7968 -2.7881  1.5515
18839THY    CA451755   5.521   0.698   4.304 -0.9763  0.5086 -0.1030
18839THY    HA451756   5.629   0.694   4.310 -0.8635 -0.7940  0.4742
18839THY    CA551757   5.466   0.620   4.212 -0.0406  0.5978  0.2741
18839THY    CM151758   5.560   0.526   4.131  0.1640 -0.1286  0.6600
18839THY    HM151759   5.521   0.517   4.029 -0.8150  0.2089  0.9559
18839THY    HM251760   5.558   0.421   4.163 -0.5386  0.0101  0.7058
18839THY    HM351761   5.664   0.559   4.129 -0.5267 -2.8806  3.0926
18839THY    CA651762   5.327   0.621   4.192 -0.5409  0.2902 -0.4099
18839THY    HA651763   5.281   0.573   4.107 -1.6464  0.2367  0.6836
18840THY      O51764   5.886   4.857   4.737 -0.2152 -0.4214 -0.2209
18840THY     HO51765   5.913   4.792   4.803 -0.4302 -1.8139 -1.7842
18840THY    CA151766   6.009   4.894   4.690  0.0373  0.8461  0.1770
18840THY    CA251767   6.034   5.023   4.644 -0.1610 -0.1409 -0.2079
18840THY    CP151768   5.929   5.136   4.658 -0.4193 -0.8535  0.6740
18840THY    HP151769   5.839   5.095   4.707 -0.1280  1.1114  2.2374
18840THY    CP251770   5.875   5.169   4.524  0.5718  0.6149 -0.1059
18840THY    HP251771   5.874   5.083   4.456 -2.4669 -0.9313  0.9985
18840THY    HP351772   5.939   5.237   4.466 -0.4442 -0.0396  0.3131
18840THY    HP451773   5.777   5.218   4.529  0.7653 -2.3580  0.7830
18840THY    CP351774   5.979   5.261   4.721  0.3462 -0.0084 -0.3082
18840THY    HP551775   6.081   5.290   4.696  0.4741 -0.5420 -1.1872
18840THY    HP651776   5.971   5.240   4.829 -0.5949 -0.3442 -1.8638
18840THY    HP751777   5.906   5.342   4.717 -1.4158 -0.5290 -1.8473
18840THY    CA351778   6.158   5.051   4.579  0.3116  0.0313  0.2390
18840THY    HA351779   6.176   5.150   4.539 -1.2957 -0.8639  0.2033
18840THY    CA451780   6.259   4.960   4.591 -0.1934 -0.7131 -0.0236
18840THY    HA451781   6.360   4.982   4.556  0.5520 -0.3309 -2.5397
18840THY    CA551782   6.240   4.835   4.636  0.0761 -0.0720 -0.2925
18840THY    CM151783   6.352   4.735   4.637  0.1458 -0.4655  0.4984
18840THY    HM151784   6.404   4.727   4.541  1.6565  0.2712  0.9718
18840THY    HM251785   6.321   4.636   4.673 -0.5650 -1.1449  0.4729
18840THY    HM351786   6.424   4.769   4.712  2.0805 -2.3014  0.6562
18840THY    CA651787   6.110   4.802   4.684  0.2369 -0.8487  0.0629
18840THY    HA651788   6.085   4.703   4.721 -1.2995 -0.3658  0.5987
18841THY      O51789   9.269   4.096   5.293 -0.2392 -0.0110  0.2846
18841THY     HO51790   9.272   4.004   5.324  0.1556 -1.3507 -0.1795
18841THY    CA151791   9.141   4.133   5.285 -0.0834 -0.7109  0.0748
18841THY    CA251792   9.095   4.255   5.229  0.0293  0.5140  0.0322
18841THY    CP151793   9.203   4.349   5.181  0.7500  0.3184  0.1073
18841THY    HP151794   9.298   4.299   5.157  1.2484 -1.3956  1.7634
18841THY    CP251795   9.237   4.452   5.288  0.1720  0.0422  0.9264
18841THY    HP251796   9.143   4.484   5.335 -0.0976  1.2027 -1.3863
18841THY    HP351797   9.292   4.535   5.243 -0.5275  2.0000  2.5542
18841THY    HP451798   9.299   4.404   5.365  2.3615 -1.9596  0.4009
18841THY    CP351799   9.162   4.425   5.057 -0.1333  0.3019  0.3588
18841THY    HP551800   9.087   4.504   5.071 -0.2583  0.3410  0.2347
18841THY    HP651801   9.103   4.357   4.995 -0.9107  1.5618 -0.1615
18841THY    HP751802   9.245   4.456   4.993 -0.4640  1.1133  3.2173
18841THY    CA351803   8.956   4.271   5.200  0.1674 -0.3838 -0.1048
18841THY    HA351804   8.923   4.367   5.162 -0.5099 -0.7827 -0.4819
18841THY    CA451805   8.870   4.165   5.229  0.4274 -0.0177 -0.2973
18841THY    HA451806   8.763   4.183   5.217  0.1041  2.3412 -0.1964
18841THY    CA551807   8.917   4.054   5.301 -0.3233 -0.4795 -0.2806
18841THY    CM151808   8.813   3.945   5.342  0.3239 -0.4015 -0.2369
18841THY    HM151809   8.870   3.880   5.409 -1.5167  0.6062 -0.8818
18841THY    HM251810   8.774   3.896   5.252 -0.6597 -0.7807  1.1925
18841THY    HM351811   8.731   3.981   5.404 -1.1997 -2.0825 -0.6775
18841THY    CA651812   9.051   4.033   5.315  0.6614 -0.5035 -0.4907
18841THY    HA651813   9.082   3.937   5.354  0.5962 -2.5492 -1.3985
18842THY      O51814   7.524   3.958   7.662 -0.2860  0.3929 -0.4424
18842THY     HO51815   7.584   4.032   7.643  0.5225  2.9222 -0.3348
18842THY    CA151816   7.552   3.941   7.794  0.3101 -0.1874  0.6567
18842THY    CA251817   7.469   3.878   7.892  0.3683 -0.1184 -1.2614
18842THY    CP151818   7.320   3.865   7.862  0.3434 -0.3378 -0.9826
18842THY    HP151819   7.292   3.892   7.759  0.0799  0.1256  0.5899
18842THY    CP251820   7.248   3.979   7.949  0.3185  0.4219 -0.9456
18842THY    HP251821   7.276   3.965   8.054 -0.6905  0.8228 -0.0585
18842THY    HP351822   7.141   3.985   7.927  0.4053  0.2802  0.4856
18842THY    HP451823   7.292   4.075   7.919  1.5799  0.8917 -1.3542
18842THY    CP351824   7.259   3.726   7.893  0.4778  0.0654  0.2772
18842THY    HP551825   7.301   3.647   7.829 -0.8976 -0.9782  0.3583
18842THY    HP651826   7.153   3.728   7.864  0.5953 -0.5545 -1.3974
18842THY    HP751827   7.268   3.695   7.998 -0.1575  0.0811  0.1230
18842THY    CA351828   7.521   3.851   8.021  0.0342 -0.0984 -0.3739
18842THY    HA351829   7.457   3.797   8.090 -0.8335 -2.0437 -1.9747
18842THY    CA451830   7.647   3.880   8.047  0.2399 -0.2806 -0.0827
18842THY    HA451831   7.687   3.864   8.147 -0.3314  0.1841  1.2670
18842THY    CA551832   7.732   3.944   7.959 -0.2659  0.6620 -0.2696
18842THY    CM151833   7.871   3.982   8.001 -0.0428  0.0820 -1.0056
18842THY    HM151834   7.903   4.067   7.940 -1.2776 -0.2513 -0.7675
18842THY    HM251835   7.936   3.895   7.982  0.1914 -0.0516 -0.8036
18842THY    HM351836   7.875   4.009   8.107 -0.8569 -0.0205 -0.4729
18842THY    CA651837   7.683   3.974   7.837 -0.6278  0.5426 -0.1524
18842THY    HA651838   7.749   4.032   7.772 -0.2734 -0.0501 -1.1961
18843THY      O51839   3.959   7.886   2.592  0.0145 -0.5058 -0.3738
18843THY     HO51840   3.915   7.905   2.676 -0.5701 -0.5096 -1.6376
18843THY    CA151841   4.004   7.757   2.583  0.0918  0.0559  0.0134
18843THY    CA251842   4.037   7.711   2.453 -0.8978  0.0796 -0.4872
18843THY    CP151843   4.021   7.802   2.327  0.1385 -1.2809  0.4402
18843THY    HP151844   3.954   7.887   2.344  0.8138  0.6197  0.6206
18843THY    CP251845   3.964   7.728   2.202 -0.3689  0.7142  0.0353
18843THY    HP251846   3.869   7.675   2.216 -0.8018  1.4396  0.9926
18843THY    HP351847   4.034   7.654   2.160 -0.8104 -0.1509  0.0967
18843THY    HP451848   3.946   7.802   2.123 -1.0595  0.9950  0.1741
18843THY    CP351849   4.159   7.857   2.294  0.0199  0.5196  0.7109
18843THY    HP551850   4.224   7.770   2.273 -0.8658 -2.0823  0.5642
18843THY    HP651851   4.211   7.917   2.369 -0.2180  0.0422  1.5265
18843THY    HP751852   4.159   7.915   2.201 -1.1101  0.0338 -0.0246
18843THY    CA351853   4.116   7.585   2.447 -0.1520  0.6984 -0.5859
18843THY    HA351854   4.143   7.545   2.349  1.3697 -0.7390  3.4681
18843THY    CA451855   4.154   7.521   2.568 -0.2595  0.6152 -0.2551
18843THY    HA451856   4.208   7.427   2.561  0.4235 -1.4441  0.2284
18843THY    CA551857   4.117   7.574   2.694  0.4915  0.6846  0.1988
18843THY    CM151858   4.165   7.498   2.805 -1.4458  0.2131  0.0905
18843THY    HM151859   4.223   7.411   2.772 -0.0525  0.2996  0.9637
18843THY    HM251860   4.082   7.448   2.857 -0.7791  0.7958 -0.4270
18843THY    HM351861   4.223   7.565   2.869  0.7192 -1.1782 -0.3367
18843THY    CA651862   4.035   7.686   2.699  0.1480  0.1826  0.2229
18843THY    HA651863   4.005   7.729   2.794  1.1166 -0.1343  1.6932
18844THY      O51864   5.085   2.179   5.837  0.2014 -0.0525  0.3249
18844THY     HO51865   5.115   2.167   5.929  0.8026 -0.3264 -0.2850
18844THY    CA151866   5.045   2.307   5.820 -0.0513 -0.7142 -0.2231
18844THY    CA251867   4.999   2.351   5.696  1.1591 -0.6006 -0.9471
18844THY    CP151868   4.987   2.256   5.575 -0.6851 -0.1462  0.1493
18844THY    HP151869   5.083   2.204   5.586  0.2542  1.1897  2.0286
18844THY    CP251870   4.975   2.325   5.437 -0.3772  0.2282 -0.4784
18844THY    HP251871   4.881   2.381   5.434  1.2518  1.3235  2.5353
18844THY    HP351872   4.971   2.241   5.366  0.6131 -1.4743  0.8585
18844THY    HP451873   5.066   2.383   5.417 -0.0086 -0.7449 -1.3642
18844THY    CP351874   4.858   2.156   5.582 -0.4201  0.3669  0.1161
18844THY    HP551875   4.765   2.215   5.576  0.4075 -0.5631  1.3644
18844THY    HP651876   4.864   2.090   5.670 -4.4734  1.0200  0.3371
18844THY    HP751877   4.865   2.085   5.499 -1.2198  0.2445  0.1634
18844THY    CA351878   4.947   2.482   5.689 -0.3932  1.2883 -0.2096
18844THY    HA351879   4.895   2.527   5.605  0.4356  0.3308 -0.9922
18844THY    CA451880   4.969   2.566   5.792 -0.2064 -0.0137 -0.0466
18844THY    HA451881   4.922   2.663   5.788  0.5252  0.8413  0.3663
18844THY    CA551882   5.038   2.529   5.909  0.3166  0.2739  0.2704
18844THY    CM151883   5.049   2.639   6.019 -0.5351 -0.3328  0.8424
18844THY    HM151884   4.951   2.687   6.035  0.2122  0.2158  2.2467
18844THY    HM251885   5.130   2.712   6.009  0.0239  1.8558  0.5981
18844THY    HM351886   5.082   2.596   6.115  1.2538 -0.4446  1.8913
18844THY    CA651887   5.075   2.392   5.930 -0.0355  0.1361 -0.4162
18844THY    HA651888   5.124   2.363   6.023  0.1499 -0.2718 -1.4582
18845THY      O51889   8.739   4.492   7.426 -0.1880  0.3619  0.3939
18845THY     HO51890   8.696   4.528   7.506  0.2717  0.6192  0.3839
18845THY    CA151891   8.847   4.570   7.387 -0.3409  0.7540 -0.2668
18845THY    CA251892   8.978   4.527   7.412  0.2641  0.7666  0.3730
18845THY    CP151893   9.003   4.400   7.497 -0.0197  0.1329  0.9793
18845THY    HP151894   8.916   4.381   7.563 -0.5201  0.0889  2.9305
18845THY    CP251895   9.125   4.405   7.590  0.1070  0.2655  0.3574
18845THY    HP251896   9.157   4.309   7.633 -0.0942 -1.6247 -0.6139
18845THY    HP351897   9.108   4.478   7.670  3.5023  0.2620  1.3382
18845THY    HP451898   9.213   4.454   7.546 -0.0939  0.0511  0.5254
18845THY    CP351899   9.008   4.278   7.401 -0.6063 -0.2182 -0.9694
18845THY    HP551900   9.096   4.280   7.336 -1.2148 -1.0413  0.5563
18845THY    HP651901   8.926   4.286   7.329 -0.3347 -0.6833 -2.2027
18845THY    HP751902   9.002   4.180   7.450 -0.7885  3.1803  0.5962
18845THY    CA351903   9.081   4.583   7.339 -0.0218  0.3712 -0.0677
18845THY    HA351904   9.180   4.541   7.348 -0.4898  1.2438 -1.0419
18845THY    CA451905   9.049   4.692   7.252  0.0266 -0.0219  0.0232
18845THY    HA451906   9.129   4.733   7.191  0.2226  1.1315  1.4283
18845THY    CA551907   8.919   4.748   7.245  0.2824 -0.0110  1.1594
18845THY    CM151908   8.890   4.868   7.164  0.3828 -0.0297  0.7712
18845THY    HM151909   8.926   4.848   7.063  2.5101  1.1343 -1.8399
18845THY    HM251910   8.942   4.952   7.212 -1.0439  0.9622  1.1224
18845THY    HM351911   8.782   4.886   7.157  0.4977 -3.2727  0.8237
18845THY    CA651912   8.816   4.692   7.320  0.7764 -0.3389 -0.6549
18845THY    HA651913   8.716   4.732   7.314 -0.0530  2.1029 -2.1053
18846THY      O51914   1.251   3.741   7.414 -0.0449 -0.4179 -0.1577
18846THY     HO51915   1.253   3.780   7.503  1.3600 -0.3546 -0.3460
18846THY    CA151916   1.335   3.815   7.343  0.4697 -0.1830  0.1193
18846THY    CA251917   1.341   3.812   7.201 -0.7427  0.4929  0.2772
18846THY    CP151918   1.269   3.699   7.132  0.5949 -0.2309 -0.1683
18846THY    HP151919   1.245   3.619   7.204 -4.1640  0.2246  1.3061
18846THY    CP251920   1.349   3.637   7.018 -0.1305  1.0748 -0.8251
18846THY    HP251921   1.302   3.562   6.953 -0.4255  1.0300 -0.6027
18846THY    HP351922   1.436   3.589   7.064  0.4935  1.0863  0.2759
18846THY    HP451923   1.380   3.713   6.945 -1.2074  0.0820 -1.3007
18846THY    CP351924   1.135   3.750   7.078 -0.5795 -0.4319  0.0211
18846THY    HP551925   1.073   3.664   7.051 -1.8551  1.0309  0.4403
18846THY    HP651926   1.158   3.816   6.993  0.2058  0.4002  0.8594
18846THY    HP751927   1.073   3.807   7.149 -2.1855 -0.9463 -1.0069
18846THY    CA351928   1.426   3.900   7.133  0.2259  0.3985  0.1052
18846THY    HA351929   1.418   3.902   7.025  1.3440  0.3149  0.8441
18846THY    CA451930   1.494   4.000   7.203  0.7823 -0.7789 -0.1027
18846THY    HA451931   1.551   4.076   7.150  2.1931 -0.1726 -0.6985
18846THY    CA551932   1.483   4.010   7.345  0.3497 -0.0220 -0.2723
18846THY    CM151933   1.550   4.120   7.420 -0.0087  0.4051  0.2849
18846THY    HM151934   1.589   4.202   7.359  1.1826 -1.6160 -1.6868
18846THY    HM251935   1.634   4.083   7.481 -1.0746  0.8221 -1.5511
18846THY    HM351936   1.474   4.156   7.491  0.7474  3.5529 -3.6390
18846THY    CA651937   1.402   3.916   7.410  0.3972 -0.2404  0.1996
18846THY    HA651938   1.403   3.924   7.519  1.7179 -0.1792 -0.4509
18847THY      O51939   1.643   2.589   5.478  0.0090  0.1303 -0.3157
18847THY     HO51940   1.621   2.627   5.392 -2.3148  0.9493  0.3401
18847THY    CA151941   1.763   2.514   5.460  0.2170  0.2594  0.1795
18847THY    CA251942   1.840   2.474   5.572 -0.0483  0.0494  0.0850
18847THY    CP151943   1.795   2.514   5.714 -0.5470 -0.2655 -0.1408
18847THY    HP151944   1.688   2.537   5.712 -0.3623 -0.4543  0.7280
18847THY    CP251945   1.874   2.629   5.773 -0.2218  0.3904  0.7802
18847THY    HP251946   1.862   2.714   5.705  2.8528 -0.9851  0.2388
18847THY    HP351947   1.977   2.591   5.782 -0.7227 -0.4020 -0.8249
18847THY    HP451948   1.831   2.644   5.873 -3.2387 -0.7436  0.3713
18847THY    CP351949   1.814   2.398   5.804  0.5162 -0.1727 -0.0541
18847THY    HP551950   1.763   2.314   5.756 -0.9449 -0.3101  0.8802
18847THY    HP651951   1.760   2.419   5.897  0.2943 -0.1757 -0.5819
18847THY    HP751952   1.919   2.376   5.828  0.5092  2.3313  2.1054
18847THY    CA351953   1.960   2.410   5.540  0.4332  0.5876  0.0118
18847THY    HA351954   2.035   2.376   5.611  2.3405 -1.0241  0.6012
18847THY    CA451955   1.997   2.370   5.411  0.2273  0.0945  0.1738
18847THY    HA451956   2.089   2.316   5.390  0.2503 -3.0217  1.2399
18847THY    CA551957   1.914   2.409   5.304  0.2022 -0.5773  0.0764
18847THY    CM151958   1.929   2.363   5.165 -0.0545  0.5953  0.5767
18847THY    HM151959   2.013   2.292   5.159 -0.2484  0.2027  0.3787
18847THY    HM251960   1.949   2.446   5.097 -0.8342 -0.8943 -0.4122
18847THY    HM351961   1.842   2.310   5.125 -0.1316  0.5917  0.7078
18847THY    CA651962   1.800   2.484   5.331 -0.1486 -0.3771  0.6988
18847THY    HA651963   1.739   2.500   5.243  1.0025 -1.2537  0.4186
18848THY      O51964   3.146   1.450   4.806  0.0239 -0.5131 -0.3719
18848THY     HO51965   3.228   1.410   4.840  0.6464 -1.0696  0.4025
18848THY    CA151966   3.063   1.465   4.906 -0.2332 -0.4608 -0.6671
18848THY    CA251967   2.930   1.483   4.887  0.7243  0.1427  0.0822
18848THY    CP151968   2.881   1.521   4.744  0.1497  0.6190 -0.2049
18848THY    HP151969   2.965   1.559   4.684 -2.0095 -3.6339 -1.4974
18848THY    CP251970   2.778   1.633   4.744 -0.0577 -0.1559 -0.7108
18848THY    HP251971   2.783   1.677   4.644  0.3240 -0.1523 -0.7435
18848THY    HP351972   2.800   1.709   4.820  0.4902 -0.2302 -0.7918
18848THY    HP451973   2.675   1.600   4.760  0.3874  1.8930 -1.2809
18848THY    CP351974   2.826   1.404   4.664 -0.2490 -0.2538  0.2189
18848THY    HP551975   2.739   1.372   4.721  0.0580  0.4970  0.7006
18848THY    HP651976   2.901   1.324   4.664 -0.7159 -0.5797 -0.2278
18848THY    HP751977   2.802   1.419   4.557  1.2989 -0.5506  0.7525
18848THY    CA351978   2.838   1.478   5.001 -0.3493  0.7770 -0.3057
18848THY    HA351979   2.731   1.485   4.985 -0.1359 -0.7282 -0.0541
18848THY    CA451980   2.893   1.447   5.126  0.7529  0.3667  0.3149
18848THY    HA451981   2.839   1.439   5.220  0.5058  0.2798  0.9513
18848THY    CA551982   3.033   1.440   5.139 -0.7262 -0.2828  0.3019
18848THY    CM151983   3.083   1.429   5.274  0.0536 -0.0421  0.1708
18848THY    HM151984   3.054   1.507   5.345 -0.0830  1.3396 -1.1108
18848THY    HM251985   3.192   1.433   5.278  0.0461  0.0780  0.2424
18848THY    HM351986   3.041   1.332   5.305  0.2254  0.9793  0.4131
18848THY    CA651987   3.118   1.452   5.026 -0.2875  0.2763  0.6760
18848THY    HA651988   3.226   1.453   5.024 -0.2910 -1.7582  0.8506
18849THY      O51989   1.939   7.392   2.506  0.1273  0.2531 -0.0875
18849THY     HO51990   1.906   7.456   2.571 -3.1822 -2.2537  1.0356
18849THY    CA151991   1.921   7.265   2.548 -0.0262  0.1301  0.5691
18849THY    CA251992   1.988   7.156   2.491  0.2653  0.0189  0.3252
18849THY    CP151993   2.097   7.179   2.377  0.8213 -0.6657  0.3878
18849THY    HP151994   2.061   7.261   2.314 -2.0460 -0.6888 -0.7472
18849THY    CP251995   2.111   7.059   2.287  0.5195 -0.4513 -0.2485
18849THY    HP251996   2.019   7.044   2.230 -0.8917  1.3812  1.1270
18849THY    HP351997   2.124   6.967   2.346 -1.0366  0.9438  0.3883
18849THY    HP451998   2.183   7.075   2.205 -0.3717 -1.4970 -1.3414
18849THY    CP351999   2.232   7.209   2.444 -0.2652  0.1355  0.0864
18849THY    HP552000   2.242   7.142   2.530 -1.7098  0.5518  0.3705
18849THY    HP652001   2.226   7.310   2.487 -2.6215 -0.1831  0.1480
18849THY    HP752002   2.317   7.211   2.375 -0.6916 -0.4344  2.7966
18849THY    CA352003   1.955   7.023   2.537 -0.2767  0.2761  0.1026
18849THY    HA352004   2.011   6.936   2.505  0.0997 -0.7817  0.7174
18849THY    CA452005   1.867   7.012   2.646 -0.3852 -0.1947 -0.5733
18849THY    HA452006   1.853   6.914   2.691  0.0580  1.8474  0.2694
18849THY    CA552007   1.812   7.123   2.705 -0.1022 -0.1858 -0.0500
18849THY    CM152008   1.752   7.118   2.844 -0.3027 -0.0353 -0.3970
18849THY    HM152009   1.772   7.208   2.904  2.3092 -1.9739  0.4499
18849THY    HM252010   1.779   7.028   2.900 -0.0515  1.1842  0.4185
18849THY    HM352011   1.643   7.123   2.839 -0.1941 -1.7703  1.9063
18849THY    CA652012   1.835   7.248   2.653  0.2414 -0.0086 -0.0504
18849THY    HA652013   1.804   7.337   2.708  0.5704 -0.5619  0.4069
18850THY      O52014   3.756   2.565   7.193  0.4308  0.1380 -0.2873
18850THY     HO52015   3.737   2.660   7.196 -1.1917  0.2960 -0.5871
18850THY    CA152016   3.727   2.519   7.319  0.0485  0.7120  0.3835
18850THY    CA252017   3.715   2.384   7.345 -0.6921 -1.0187  0.4076
18850THY    CP152018   3.739   2.279   7.239  0.2371 -0.0100  0.3011
18850THY    HP152019   3.769   2.325   7.145  0.6064 -0.2906 -0.4960
18850THY    CP252020   3.613   2.205   7.194  0.2035 -0.3134  0.2814
18850THY    HP252021   3.566   2.158   7.281 -1.0670 -1.2017 -0.1277
18850THY    HP352022   3.636   2.130   7.117  1.2515 -0.4178  0.6859
18850THY    HP452023   3.544   2.281   7.157 -0.0722 -0.8817 -0.2452
18850THY    CP352024   3.849   2.179   7.269 -0.5369 -0.1570  0.5131
18850THY    HP552025   3.949   2.223   7.278 -0.1854  0.8993 -0.4344
18850THY    HP652026   3.861   2.112   7.183 -0.6168  0.2706 -0.0661
18850THY    HP752027   3.837   2.114   7.357 -0.1288  1.7848  2.8952
18850THY    CA352028   3.673   2.343   7.477 -0.0405  0.0242  0.1108
18850THY    HA352029   3.655   2.237   7.497  0.6723  0.9305  0.1522
18850THY    CA452030   3.649   2.436   7.576 -0.1442  0.6633  0.3862
18850THY    HA452031   3.612   2.400   7.672  1.2466  0.1218 -2.7519
18850THY    CA552032   3.669   2.571   7.550 -0.2681 -0.1332  0.7118
18850THY    CM152033   3.645   2.674   7.654  0.2726 -0.0065  0.2488
18850THY    HM152034   3.737   2.718   7.694 -0.1233 -0.9172  1.9738
18850THY    HM252035   3.599   2.632   7.745  1.2911  1.4585  2.1578
18850THY    HM352036   3.580   2.757   7.624 -1.3910 -1.6451 -1.5429
18850THY    CA652037   3.705   2.612   7.420  0.5972  0.1093  0.7379
18850THY    HA652038   3.712   2.720   7.404  1.3681 -1.4086  0.4904
18851THY      O52039   2.833   0.836   2.442  0.3206  0.2839  0.6750
18851THY     HO52040   2.767   0.785   2.493  1.1175  0.6291 -0.0218
18851THY    CA152041   2.766   0.920   2.360 -0.0276 -0.4675  0.7376
18851THY    CA252042   2.829   1.024   2.296 -0.5765 -0.2024  0.4687
18851THY    CP152043   2.979   1.055   2.302 -0.0697  0.1181  0.4211
18851THY    HP152044   3.036   0.976   2.352  3.3984 -2.7650  0.8082
18851THY    CP252045   3.007   1.200   2.350  0.4570  0.2400  0.6649
18851THY    HP252046   3.112   1.221   2.372  0.5054 -1.8993  3.2961
18851THY    HP352047   2.955   1.217   2.446 -1.8898 -1.0349  1.1681
18851THY    HP452048   2.970   1.277   2.281  0.3168  0.8415  1.1441
18851THY    CP352049   3.038   1.034   2.165 -0.3865  0.7508  0.4266
18851THY    HP552050   2.999   1.102   2.089  0.7465 -0.2455  0.0064
18851THY    HP652051   3.017   0.930   2.135  2.5049  0.9214 -0.2967
18851THY    HP752052   3.147   1.044   2.166 -0.2384 -0.7490 -0.7393
18851THY    CA352053   2.752   1.103   2.209 -0.1339 -0.0727 -0.4523
18851THY    HA352054   2.794   1.181   2.146 -3.4468 -0.0183  1.5760
18851THY    CA452055   2.616   1.069   2.190  0.6453 -0.7230 -0.0865
18851THY    HA452056   2.551   1.120   2.119  1.3404 -2.7975 -1.9150
18851THY    CA552057   2.555   0.962   2.258  0.4348  0.1311 -0.1781
18851THY    CM152058   2.401   0.936   2.234  0.2050 -0.0176  0.5499
18851THY    HM152059   2.381   0.868   2.150  0.3511  0.6947 -0.4027
18851THY    HM252060   2.345   1.025   2.204  0.5956 -0.8747  0.5185
18851THY    HM352061   2.345   0.894   2.319  1.1065  0.2403 -0.1639
18851THY    CA652062   2.636   0.881   2.340  0.0943  0.4090 -0.2156
18851THY    HA652063   2.591   0.792   2.385 -1.7513  2.0377  1.4472
18852THY      O52064   7.381   3.005   5.216 -0.1314 -0.2801 -0.3163
18852THY     HO52065   7.385   3.102   5.205 -1.3424 -1.0443 -0.3275
18852THY    CA152066   7.477   2.956   5.130  0.4066 -0.4122  0.1186
18852THY    CA252067   7.459   2.820   5.085  0.3610 -0.2387 -0.2090
18852THY    CP152068   7.329   2.747   5.099  0.7004 -0.0311  0.7535
18852THY    HP152069   7.251   2.817   5.131  0.5349  0.2209  0.4510
18852THY    CP252070   7.353   2.626   5.199  0.0740 -0.2071 -0.3438
18852THY    HP252071   7.439   2.564   5.173  0.4540  3.0881 -1.3734
18852THY    HP352072   7.270   2.554   5.197  0.6777  1.3491 -1.1357
18852THY    HP452073   7.377   2.652   5.303  1.8239 -0.8040  0.5587
18852THY    CP352074   7.279   2.685   4.965  0.4430  0.3409  0.0193
18852THY    HP552075   7.354   2.625   4.912 -0.4372 -2.4234  1.2266
18852THY    HP652076   7.242   2.771   4.909 -1.1994  1.5011  0.1190
18852THY    HP752077   7.188   2.626   4.982 -1.2988 -4.2364  1.0358
18852THY    CA352078   7.568   2.763   5.015  0.0812 -0.1416  0.5916
18852THY    HA352079   7.566   2.663   4.974  0.0814  0.6659  0.2554
18852THY    CA452080   7.680   2.840   4.991 -0.5168 -0.1752 -0.7366
18852THY    HA452081   7.762   2.782   4.949  0.4198 -0.9732  1.1024
18852THY    CA552082   7.689   2.977   5.024  0.4451  0.2109  0.0123
18852THY    CM152083   7.813   3.051   4.991 -0.8389  0.1793 -0.6208
18852THY    HM152084   7.908   3.015   5.032 -0.7168 -1.1108 -1.8274
18852THY    HM252085   7.806   3.156   5.021 -0.7547 -0.9352 -0.2867
18852THY    HM352086   7.827   3.066   4.884  0.0509  0.1029 -1.9105
18852THY    CA652087   7.584   3.032   5.097  0.6550 -0.3215 -0.4290
18852THY    HA652088   7.591   3.136   5.125 -0.2931  0.0471 -0.4578
18853THY      O52089   3.735   8.815   7.455 -0.0903 -0.3806  0.0632
18853THY     HO52090   3.821   8.776   7.433 -0.4573 -0.4804 -0.7078
18853THY    CA152091   3.745   8.819   7.596 -0.0330 -0.0960 -0.1281
18853THY    CA252092   3.635   8.862   7.676  1.0773  0.3772  0.6447
18853THY    CP152093   3.497   8.900   7.612 -1.0374  0.1593 -0.7398
18853THY    HP152094   3.515   8.912   7.504 -1.1588  0.2217  0.0202
18853THY    CP252095   3.446   9.041   7.659 -0.3145  0.2787 -0.6361
18853THY    HP252096   3.520   9.121   7.649  0.5647 -1.5169 -1.6102
18853THY    HP352097   3.405   9.031   7.760  0.1830  0.6834  1.1120
18853THY    HP452098   3.363   9.068   7.592  0.7971  0.2533  3.2778
18853THY    CP352099   3.390   8.777   7.626 -0.3187 -0.5231 -0.4123
18853THY    HP552100   3.426   8.682   7.585 -2.5046 -1.0454 -1.0634
18853THY    HP652101   3.298   8.811   7.578 -0.2196 -0.9304 -0.7047
18853THY    HP752102   3.370   8.775   7.733 -0.2250 -0.4562  1.1511
18853THY    CA352103   3.648   8.864   7.814 -0.1280  0.5693  0.8927
18853THY    HA352104   3.568   8.898   7.879 -0.6068  0.4794 -0.0447
18853THY    CA452105   3.769   8.836   7.870  0.0990 -0.1501 -0.0768
18853THY    HA452106   3.782   8.849   7.977 -0.7965 -0.2076  1.5991
18853THY    CA552107   3.886   8.800   7.797 -0.1455  0.3651 -0.0394
18853THY    CM152108   4.013   8.766   7.871 -0.2454 -0.4971 -0.6820
18853THY    HM152109   4.003   8.661   7.901 -0.2442 -2.2576 -1.2214
18853THY    HM252110   4.034   8.827   7.960  0.1558 -2.4091  2.1753
18853THY    HM352111   4.095   8.782   7.800  0.5782  0.7413  0.9145
18853THY    CA652112   3.874   8.791   7.655 -0.3538 -0.6560 -0.3151
18853THY    HA652113   3.959   8.752   7.600  0.4378 -0.0253  0.4943
18854THY      O52114   5.536   4.978   2.959  0.5399  0.0950 -0.5137
18854THY     HO52115   5.489   5.062   2.971  0.7589  1.4550 -0.5589
18854THY    CA152116   5.508   4.942   2.833 -0.1958  0.2259 -0.0910
18854THY    CA252117   5.545   4.824   2.772 -0.5759  0.0535 -0.5123
18854THY    CP152118   5.634   4.722   2.849  0.3917 -0.1670 -0.1533
18854THY    HP152119   5.678   4.743   2.947 -0.5155 -0.2005  2.2116
18854THY    CP252120   5.764   4.708   2.769  0.0413  0.0634 -0.8759
18854THY    HP252121   5.833   4.640   2.820 -0.0924  2.2563  0.5263
18854THY    HP352122   5.809   4.807   2.766 -1.1006 -2.7193 -0.3520
18854THY    HP452123   5.732   4.682   2.667  3.5419 -0.8149 -2.2383
18854THY    CP352124   5.563   4.579   2.864 -0.1020  0.0928 -0.8848
18854THY    HP552125   5.463   4.592   2.907  0.6113  1.6178 -0.1773
18854THY    HP652126   5.606   4.507   2.935 -2.0696  1.4369 -0.8279
18854THY    HP752127   5.558   4.524   2.769 -0.7069 -0.5957  0.3292
18854THY    CA352128   5.514   4.798   2.636 -0.1326 -0.7372  0.1816
18854THY    HA352129   5.547   4.712   2.578  0.7340 -3.3834  2.1849
18854THY    CA452130   5.436   4.890   2.563  0.1191  0.1273 -0.2119
18854THY    HA452131   5.394   4.880   2.463  0.6113 -0.2142  0.9733
18854THY    CA552132   5.399   5.008   2.625 -0.2378 -0.6559 -0.0819
18854THY    CM152133   5.309   5.100   2.554  0.9037  0.0498 -0.4688
18854THY    HM152134   5.218   5.045   2.526 -0.0258 -1.2449  1.5961
18854THY    HM252135   5.351   5.135   2.459  1.7792  0.3859 -0.5798
18854THY    HM352136   5.284   5.190   2.612  2.6514 -0.2767  0.2580
18854THY    CA652137   5.439   5.039   2.759  0.4667  0.5996 -0.2296
18854THY    HA652138   5.391   5.122   2.809 -1.4757  0.8981 -1.4691
18855THY      O52139   1.479   5.734   2.428  0.1227  0.1961  0.0693
18855THY     HO52140   1.393   5.688   2.428 -0.2651  0.0368  0.7872
18855THY    CA152141   1.503   5.781   2.305 -0.4386 -0.3050 -0.6615
18855THY    CA252142   1.565   5.912   2.287 -0.3403 -0.2441  0.4480
18855THY    CP152143   1.616   5.990   2.406  0.7483 -0.9560 -0.1465
18855THY    HP152144   1.625   5.923   2.493 -2.4285 -0.5552 -0.1889
18855THY    CP252145   1.535   6.113   2.450  0.2505  0.0224 -0.5024
18855THY    HP252146   1.451   6.080   2.511  1.2111  0.7578 -1.6782
18855THY    HP352147   1.505   6.164   2.358 -0.5918  0.8678  0.5772
18855THY    HP452148   1.593   6.183   2.512 -1.9176  0.5418  0.9248
18855THY    CP352149   1.761   6.032   2.371 -0.1249  0.3461 -0.4265
18855THY    HP552150   1.762   6.122   2.309  1.3099 -1.4020 -1.5783
18855THY    HP652151   1.808   5.951   2.314 -0.9339  1.1744 -1.5121
18855THY    HP752152   1.823   6.052   2.459  0.2026 -0.0963  0.6104
18855THY    CA352153   1.577   5.961   2.159  0.1564 -0.0137  0.0920
18855THY    HA352154   1.611   6.063   2.144 -2.4527 -0.7969  0.9333
18855THY    CA452155   1.542   5.880   2.051  0.2602 -0.6021 -0.1980
18855THY    HA452156   1.554   5.926   1.953  4.3505  0.1339  0.7602
18855THY    CA552157   1.494   5.746   2.072  0.1982  0.4922 -0.3384
18855THY    CM152158   1.450   5.668   1.956  0.5268 -0.0946  0.0114
18855THY    HM152159   1.413   5.568   1.979 -2.1328 -2.3381  0.3462
18855THY    HM252160   1.532   5.668   1.884  2.7987  2.2818  2.7578
18855THY    HM352161   1.364   5.712   1.904  1.2018 -0.1341  1.3387
18855THY    CA652162   1.475   5.699   2.202 -0.5186  1.0960 -0.4048
18855THY    HA652163   1.442   5.597   2.220 -0.3991  0.3672 -0.5770
18856THY      O52164   6.204   3.344   6.879  0.6865 -0.3165  0.0475
18856THY     HO52165   6.224   3.300   6.795 -0.4489 -0.6117  0.0767
18856THY    CA152166   6.098   3.432   6.860  0.1945 -0.2142  0.1972
18856THY    CA252167   6.020   3.482   6.965  0.4037  0.0114 -0.2476
18856THY    CP152168   6.032   3.427   7.103  0.1203 -0.5030 -0.5801
18856THY    HP152169   6.139   3.406   7.113  0.0041 -0.0804 -0.9994
18856THY    CP252170   5.964   3.297   7.128 -0.1414  0.3378 -0.1806
18856THY    HP252171   5.856   3.294   7.107  0.1841 -1.5122 -0.4138
18856THY    HP352172   5.981   3.280   7.235 -0.8498  0.4236 -0.4141
18856THY    HP452173   6.018   3.214   7.082  0.4180 -0.3208  0.5348
18856THY    CP352174   6.011   3.536   7.214 -0.3383  0.8026 -0.0346
18856THY    HP552175   5.902   3.543   7.221 -0.3916  0.5340 -0.5372
18856THY    HP652176   6.057   3.628   7.175  1.1605  2.3533 -0.0720
18856THY    HP752177   6.051   3.501   7.310  2.4324 -0.3198 -0.2505
18856THY    CA352178   5.907   3.560   6.944  0.1046  0.3502  0.4597
18856THY    HA352179   5.839   3.603   7.017 -0.5857  0.0352 -0.0760
18856THY    CA452180   5.893   3.598   6.809  0.2737 -0.0568 -0.1135
18856THY    HA452181   5.810   3.660   6.777  0.6100 -0.1106  0.3149
18856THY    CA552182   5.974   3.560   6.703  0.1421 -0.4813 -0.4941
18856THY    CM152183   5.954   3.617   6.570 -0.3102 -0.3784  0.1257
18856THY    HM152184   5.960   3.727   6.566  0.2066  0.7699  0.1538
18856THY    HM252185   5.855   3.589   6.533  0.2484 -2.0418  0.2600
18856THY    HM352186   6.029   3.578   6.501 -0.3810  0.3984 -1.4834
18856THY    CA652187   6.075   3.471   6.730  0.3363  0.8132 -0.1630
18856THY    HA652188   6.153   3.443   6.660  2.0415  1.2890  2.8822
18857THY      O52189   7.167   8.428   7.600  0.0074 -0.2208 -0.1639
18857THY     HO52190   7.210   8.405   7.515  1.6544  0.4448  0.3604
18857THY    CA152191   7.241   8.534   7.631 -0.7950  0.2339 -0.1109
18857THY    CA252192   7.260   8.570   7.762 -0.1573  0.5730 -0.7979
18857THY    CP152193   7.226   8.479   7.879  0.7931  0.3543 -0.6419
18857THY    HP152194   7.169   8.396   7.835  2.5125 -1.3760 -0.9704
18857THY    CP252195   7.137   8.557   7.977 -0.0066 -0.1236 -0.1536
18857THY    HP252196   7.060   8.616   7.927  0.8168  0.1069  1.1609
18857THY    HP352197   7.202   8.623   8.035 -0.4403  0.2471 -0.0495
18857THY    HP452198   7.089   8.492   8.051 -3.1469 -1.6858  0.1867
18857THY    CP352199   7.348   8.425   7.950 -0.4887 -0.1701 -0.3177
18857THY    HP552200   7.405   8.505   7.998 -0.1522 -2.1599  0.6957
18857THY    HP652201   7.414   8.371   7.880  1.1230  0.3472  0.9209
18857THY    HP752202   7.330   8.345   8.023 -2.1080 -1.5580 -1.2904
18857THY    CA352203   7.337   8.685   7.788 -0.3195 -0.4159  0.3713
18857THY    HA352204   7.354   8.727   7.887 -1.1705  0.2581 -0.8111
18857THY    CA452205   7.396   8.755   7.679  0.2418  0.2103  0.1484
18857THY    HA452206   7.452   8.847   7.694 -0.6254 -2.5727  1.2067
18857THY    CA552207   7.379   8.719   7.548  0.3512  0.2722 -0.0270
18857THY    CM152208   7.443   8.800   7.440  0.2372 -0.1768 -0.2918
18857THY    HM152209   7.471   8.735   7.357  0.3673 -0.2543 -0.1381
18857THY    HM252210   7.531   8.850   7.483 -0.0426  0.7368 -0.5612
18857THY    HM352211   7.371   8.871   7.398 -0.8583  3.4136  0.9223
18857THY    CA652212   7.305   8.600   7.526 -0.8049 -0.3782  0.6087
18857THY    HA652213   7.283   8.569   7.424 -0.4684 -0.1268 -0.5075
18858THY      O52214   2.062   7.726   5.817  0.2454  0.4711  0.2805
18858THY     HO52215   2.027   7.805   5.861  2.1203  0.0321  1.4096
18858THY    CA152216   2.072   7.629   5.915 -0.0092  0.4601 -0.9700
18858THY    CA252217   2.111   7.497   5.890  0.6626 -0.2019 -0.1095
18858THY    CP152218   2.109   7.440   5.755  0.6177  0.2248  0.0789
18858THY    HP152219   2.080   7.521   5.686 -1.8330  1.8921  0.7614
18858THY    CP252220   1.995   7.340   5.746 -0.2754 -0.3345  0.0332
18858THY    HP252221   1.904   7.391   5.779 -0.1744  1.0819 -0.6415
18858THY    HP352222   2.026   7.264   5.819 -1.5005 -0.1626 -0.3290
18858THY    HP452223   1.984   7.279   5.656 -1.3785  1.8599 -3.2879
18858THY    CP352224   2.242   7.365   5.719  0.3870 -0.2162  0.3355
18858THY    HP552225   2.317   7.432   5.761  0.5649 -0.0268  0.0182
18858THY    HP652226   2.249   7.343   5.612 -0.7053 -0.2020 -0.2098
18858THY    HP752227   2.249   7.269   5.771 -0.5540 -1.9560 -0.7317
18858THY    CA352228   2.138   7.410   5.999 -0.6988 -0.6813  0.3663
18858THY    HA352229   2.158   7.304   5.988 -1.0215  0.9125  0.1215
18858THY    CA452230   2.127   7.455   6.128 -0.1675  0.0386  0.1194
18858THY    HA452231   2.148   7.382   6.205  1.0032 -0.3692  0.0018
18858THY    CA552232   2.079   7.592   6.153 -0.8248  0.0402  0.3677
18858THY    CM152233   2.076   7.640   6.298  0.2655  0.5120  0.7922
18858THY    HM152234   2.078   7.750   6.297 -1.9102 -2.7535  0.9525
18858THY    HM252235   2.162   7.601   6.354  0.3620 -1.2268 -1.7196
18858THY    HM352236   1.984   7.609   6.348  0.1286  1.0182  1.9724
18858THY    CA652237   2.047   7.676   6.049  0.2115  0.3937  0.3021
18858THY    HA652238   2.017   7.779   6.068  2.3007  0.4278  0.9672
18859THY      O52239   7.512   3.945   4.015  0.2610 -0.2085  0.1323
18859THY     HO52240   7.449   3.954   3.942 -2.2886  1.5959 -1.4437
18859THY    CA152241   7.620   4.016   3.981  0.2384  0.3543 -0.0678
18859THY    CA252242   7.728   4.039   4.069  0.3168 -0.2457  0.9476
18859THY    CP152243   7.741   3.970   4.199 -0.2006 -1.1954 -0.0427
18859THY    HP152244   7.670   3.893   4.232 -2.1006  0.5232  2.2723
18859THY    CP252245   7.716   4.069   4.316 -0.1081  0.0471 -0.1659
18859THY    HP252246   7.788   4.152   4.325  0.0926  2.0675 -0.5102
18859THY    HP352247   7.723   4.027   4.417  1.8504  0.2878  0.6181
18859THY    HP452248   7.615   4.106   4.296  0.5997 -0.7447  1.4467
18859THY    CP352249   7.884   3.909   4.233  0.1537  0.2394  0.1203
18859THY    HP552250   7.908   3.830   4.162 -0.9956 -0.3229  0.2555
18859THY    HP652251   7.878   3.869   4.335  0.0411 -0.0458 -0.6051
18859THY    HP752252   7.965   3.983   4.231 -0.3041  0.7184  0.6466
18859THY    CA352253   7.827   4.126   4.024 -0.0412  0.4607  0.2226
18859THY    HA352254   7.912   4.154   4.086  0.0512  0.4728 -0.0879
18859THY    CA452255   7.821   4.190   3.897 -0.2240 -0.4451  0.1102
18859THY    HA452256   7.899   4.257   3.861 -0.0326  0.5460  0.4309
18859THY    CA552257   7.720   4.157   3.815 -0.0671 -0.3880 -0.2211
18859THY    CM152258   7.718   4.210   3.673  0.2369 -0.4685  0.0948
18859THY    HM152259   7.761   4.311   3.670 -1.2185  1.2190  0.8194
18859THY    HM252260   7.614   4.221   3.641 -0.3610  0.5275 -2.2384
18859THY    HM352261   7.777   4.148   3.604  1.5115  0.1945  0.5215
18859THY    CA652262   7.617   4.075   3.852  0.2343 -0.4561 -0.8835
18859THY    HA652263   7.538   4.052   3.781  0.3752 -0.1542 -2.3789
18860THY      O52264   4.084   1.537   7.618  0.3135  0.1334 -0.8632
18860THY     HO52265   4.160   1.595   7.603  0.9150  1.9532 -1.1220
18860THY    CA152266   4.136   1.432   7.697 -0.4753  0.4492  0.6965
18860THY    CA252267   4.052   1.343   7.776  0.7693 -0.1500  0.1425
18860THY    CP152268   3.896   1.356   7.770  0.0074  0.5041  0.0938
18860THY    HP152269   3.865   1.454   7.729  0.2058  0.5676  0.1833
18860THY    CP252270   3.835   1.325   7.905 -0.1687 -0.0202 -1.1021
18860THY    HP252271   3.828   1.217   7.922 -0.3208 -0.6783 -1.1969
18860THY    HP352272   3.734   1.366   7.920 -0.0781 -2.0470  0.0309
18860THY    HP452273   3.897   1.373   7.982 -0.8697 -0.0470 -0.1213
18860THY    CP352274   3.829   1.269   7.666 -0.1696 -0.3080 -0.2302
18860THY    HP552275   3.824   1.165   7.701 -2.0437 -0.3160 -0.1696
18860THY    HP652276   3.890   1.276   7.575  0.6290  0.0647 -1.7748
18860THY    HP752277   3.729   1.306   7.641  0.1503 -1.3151 -0.0217
18860THY    CA352278   4.108   1.232   7.841 -0.6290 -0.2114  0.4608
18860THY    HA352279   4.042   1.159   7.886  1.0910  0.2872 -0.8427
18860THY    CA452280   4.249   1.224   7.841  0.2822  0.1309  0.4397
18860THY    HA452281   4.294   1.149   7.906 -0.0164 -0.0830  0.0675
18860THY    CA552282   4.327   1.315   7.772  0.6325  0.0055 -0.0406
18860THY    CM152283   4.475   1.313   7.787  0.4272  0.5183  0.5250
18860THY    HM152284   4.532   1.307   7.694 -0.8760 -0.2365 -0.5288
18860THY    HM252285   4.506   1.224   7.844  2.0335  0.5274  1.0490
18860THY    HM352286   4.514   1.399   7.843 -1.2751  2.8695 -0.1255
18860THY    CA652287   4.275   1.419   7.700  0.0936 -0.0859 -0.3829
18860THY    HA652288   4.343   1.484   7.646  1.5508  1.2238 -0.7547
18861THY      O52289   7.416   4.069   3.332  0.5895 -0.4096 -0.3496
18861THY     HO52290   7.489   4.133   3.336  0.2407  0.0647  0.0247
18861THY    CA152291   7.461   3.951   3.374  0.3825 -0.0434 -0.0490
18861THY    CA252292   7.421   3.834   3.310 -0.2185  0.7695 -0.5969
18861THY    CP152293   7.309   3.832   3.206 -0.1084 -1.3025 -0.1861
18861THY    HP152294   7.294   3.934   3.171  1.1514  1.7990  1.1898
18861THY    CP252295   7.174   3.799   3.277 -0.3423 -0.2344 -0.0343
18861THY    HP252296   7.189   3.701   3.324 -1.2320  0.4179  0.1276
18861THY    HP352297   7.102   3.792   3.194 -0.8111 -0.0328  1.9530
18861THY    HP452298   7.144   3.877   3.348  3.0078  0.2961  0.9324
18861THY    CP352299   7.336   3.748   3.085  0.5233 -0.6025  0.5598
18861THY    HP552300   7.442   3.720   3.077  0.7389  1.1236  0.7798
18861THY    HP652301   7.294   3.789   2.992 -3.9170  1.1804  0.5837
18861THY    HP752302   7.293   3.648   3.101  3.5080 -0.2921 -0.7720
18861THY    CA352303   7.481   3.705   3.345 -0.2796  0.4028 -0.1411
18861THY    HA352304   7.449   3.611   3.300 -0.3443 -0.4794  0.2987
18861THY    CA452305   7.579   3.705   3.442  0.0107  0.3336 -0.0554
18861THY    HA452306   7.628   3.616   3.481  0.9776 -0.3019  0.1817
18861THY    CA552307   7.621   3.820   3.508  0.1802 -0.5924 -0.4833
18861THY    CM152308   7.744   3.809   3.597 -0.1323  0.5439 -0.3094
18861THY    HM152309   7.798   3.904   3.590 -1.8413  1.1439  0.7537
18861THY    HM252310   7.807   3.723   3.572 -1.3390  4.0377 -2.3923
18861THY    HM352311   7.719   3.824   3.703 -0.8370  0.0278  3.0557
18861THY    CA652312   7.556   3.947   3.474  0.2396 -0.6691 -0.1059
18861THY    HA652313   7.608   4.037   3.505 -1.5427 -1.5843  1.2967
18862THY      O52314   5.920   7.750   6.513  0.1264 -0.1282 -0.2396
18862THY     HO52315   5.826   7.725   6.515  0.6439  0.8600 -2.2658
18862THY    CA152316   5.949   7.792   6.384  0.1973 -0.5022  0.5268
18862THY    CA252317   6.077   7.807   6.336  0.0735  0.1802 -0.5097
18862THY    CP152318   6.190   7.778   6.434  0.5007  0.3027 -0.0291
18862THY    HP152319   6.165   7.740   6.533 -0.3302  0.0607 -0.1170
18862THY    CP252320   6.257   7.921   6.457  0.0655 -0.1342  0.7945
18862THY    HP252321   6.295   7.967   6.366  1.4827  0.1740  0.3021
18862THY    HP352322   6.337   7.906   6.530 -1.8102  1.8581 -0.1788
18862THY    HP452323   6.188   7.985   6.513 -1.0593 -0.0002 -0.4844
18862THY    CP352324   6.290   7.671   6.381 -0.2730 -0.1929 -0.5339
18862THY    HP552325   6.372   7.665   6.454  0.7599 -1.2970 -0.2711
18862THY    HP652326   6.342   7.712   6.293  0.2915  1.5227  2.7636
18862THY    HP752327   6.251   7.570   6.366 -1.8408 -1.4178  0.2222
18862THY    CA352328   6.101   7.852   6.207  0.3940  0.2069  0.1616
18862THY    HA352329   6.201   7.863   6.167  0.0676 -0.7302 -0.1916
18862THY    CA452330   5.990   7.890   6.122 -0.0159 -0.8602  0.5810
18862THY    HA452331   6.004   7.922   6.019  1.7009 -1.0402 -0.6083
18862THY    CA552332   5.865   7.881   6.170 -0.1596 -0.6051  0.4008
18862THY    CM152333   5.747   7.914   6.077 -0.0856 -0.5177 -0.1420
18862THY    HM152334   5.753   8.017   6.042  4.0160 -0.2662 -0.1128
18862THY    HM252335   5.653   7.913   6.132 -0.7293 -1.4298  2.5950
18862THY    HM352336   5.726   7.845   5.994 -0.1576 -0.3097 -0.3732
18862THY    CA652337   5.845   7.830   6.302  0.5419 -0.0780  0.4690
18862THY    HA652338   5.744   7.821   6.340  0.8543  0.2630 -2.7839
18863THY      O52339   5.501   0.495   3.061  0.5836  0.2850  0.2763
18863THY     HO52340   5.409   0.462   3.063  0.2661 -0.7805  1.0278
18863THY    CA152341   5.560   0.413   2.970 -0.4516  0.0893 -0.4813
18863THY    CA252342   5.579   0.448   2.841 -0.1754  0.1619 -0.2806
18863THY    CP152343   5.524   0.581   2.797 -0.3722 -0.5754  0.1828
18863THY    HP152344   5.550   0.644   2.884 -1.6962  0.1652 -0.2638
18863THY    CP252345   5.376   0.568   2.785  0.5721 -0.2263  0.0059
18863THY    HP252346   5.324   0.662   2.764  0.3650 -0.1813 -0.0989
18863THY    HP352347   5.330   0.541   2.880  1.7611  0.4261  0.2097
18863THY    HP452348   5.358   0.495   2.705 -1.7344 -0.8613  1.1955
18863THY    CP352349   5.599   0.652   2.682  0.5957 -0.1169  0.8244
18863THY    HP552350   5.552   0.750   2.673 -0.0333 -0.2009  0.5222
18863THY    HP652351   5.573   0.593   2.592 -1.0390  0.4419  0.6251
18863THY    HP752352   5.708   0.651   2.694  0.5795  0.7271  3.2855
18863THY    CA352353   5.660   0.369   2.756  0.4788 -0.6080  0.0767
18863THY    HA352354   5.670   0.396   2.652 -0.5350 -0.6855  0.2237
18863THY    CA452355   5.725   0.257   2.814  0.1206 -1.0335  0.0006
18863THY    HA452356   5.785   0.191   2.753  1.3167  1.5763 -1.4703
18863THY    CA552357   5.711   0.232   2.949 -0.3578  0.3950  0.4624
18863THY    CM152358   5.766   0.114   3.005 -0.5327  0.1825  0.0594
18863THY    HM152359   5.756   0.119   3.114 -1.2557  0.0776  1.8569
18863THY    HM252360   5.872   0.106   2.977 -0.8573 -1.2344  0.3932
18863THY    HM352361   5.703   0.031   2.971 -4.4680  1.1200  2.3947
18863THY    CA652362   5.626   0.305   3.027  0.4089 -0.5291  0.9271
18863THY    HA652363   5.600   0.281   3.130  0.0865 -1.4022 -3.1620
18864THY      O52364   8.903   5.957   3.243 -0.7490  0.3878  0.3423
18864THY     HO52365   8.936   5.900   3.171 -2.1517  0.2294 -0.3059
18864THY    CA152366   8.792   5.894   3.288  0.3939 -0.9220 -0.4002
18864THY    CA252367   8.720   5.949   3.401 -0.5259  0.4521 -0.5529
18864THY    CP152368   8.766   6.067   3.482 -0.0000  0.2519 -0.2886
18864THY    HP152369   8.873   6.078   3.463  0.1565  1.4873  0.5489
18864THY    CP252370   8.746   6.060   3.636 -0.3524 -0.7316 -0.7209
18864THY    HP252371   8.806   6.136   3.688 -0.6808  1.0249 -1.6247
18864THY    HP352372   8.767   5.968   3.691 -0.7006  1.1073  0.2603
18864THY    HP452373   8.640   6.076   3.657 -0.2167 -0.3281 -0.3459
18864THY    CP352374   8.708   6.201   3.426 -0.1842 -0.3684  0.3886
18864THY    HP552375   8.599   6.195   3.418 -0.0663 -1.0380 -1.6224
18864THY    HP652376   8.749   6.219   3.326 -1.8936 -0.9896  1.0053
18864THY    HP752377   8.717   6.287   3.493 -1.2263  1.3033 -0.7299
18864THY    CA352378   8.604   5.882   3.435  0.2290 -0.7374  0.1621
18864THY    HA352379   8.556   5.907   3.529 -1.2219 -1.0014 -1.4569
18864THY    CA452380   8.559   5.767   3.364 -0.0565  0.0972  0.2121
18864THY    HA452381   8.458   5.732   3.386 -1.4927 -0.0567  3.8337
18864THY    CA552382   8.631   5.722   3.252  0.1258  0.5495  0.0665
18864THY    CM152383   8.588   5.600   3.172  0.0296 -0.3468  0.0089
18864THY    HM152384   8.638   5.508   3.207 -1.2772  2.4660  0.2595
18864THY    HM252385   8.585   5.623   3.065  0.9686 -0.1743  1.0639
18864THY    HM352386   8.483   5.589   3.200  0.3054  0.8771  0.3357
18864THY    CA652387   8.743   5.786   3.212 -0.3203 -0.4839 -0.0317
18864THY    HA652388   8.793   5.748   3.124 -1.2548 -0.6541 -0.9001
18865THY      O52389   9.276   4.923   4.633  0.9676 -0.2372  0.2262
18865THY     HO52390   9.338   4.917   4.708 -0.1728  0.7990  0.8347
18865THY    CA152391   9.313   5.032   4.559 -0.8721  0.4333  0.5396
18865THY    CA252392   9.288   5.040   4.419  0.1614 -0.1636 -0.4228
18865THY    CP152393   9.235   4.921   4.335  0.3274  0.0339 -0.0270
18865THY    HP152394   9.160   4.869   4.396 -1.1198  1.4468  3.3988
18865THY    CP252395   9.345   4.824   4.291 -0.5005  0.4212  0.3866
18865THY    HP252396   9.324   4.748   4.215  0.3673 -1.4252  1.9121
18865THY    HP352397   9.392   4.777   4.378 -1.9785  0.8590 -0.3497
18865THY    HP452398   9.435   4.871   4.251 -0.3992 -0.7077 -0.7344
18865THY    CP352399   9.152   4.982   4.213  0.1253 -0.2856  0.7786
18865THY    HP552400   9.068   5.049   4.237 -0.3359  0.4328 -0.0347
18865THY    HP652401   9.104   4.898   4.162  1.6987  1.9697 -1.6368
18865THY    HP752402   9.217   5.031   4.140  0.2879  0.4956  1.7636
18865THY    CA352403   9.341   5.155   4.353 -0.2810  0.0133 -0.5783
18865THY    HA352404   9.347   5.153   4.244  1.9648  0.0936 -1.5045
18865THY    CA452405   9.407   5.257   4.428 -0.3561  0.2645 -0.0342
18865THY    HA452406   9.458   5.334   4.372 -1.5371 -0.0638  0.5322
18865THY    CA552407   9.429   5.245   4.566 -0.1966 -0.2745 -0.3015
18865THY    CM152408   9.516   5.348   4.632 -0.2181  0.5026  0.5400
18865THY    HM152409   9.582   5.290   4.698  0.5266  1.6766  2.6134
18865THY    HM252410   9.460   5.424   4.688  0.1914  0.1684  1.0924
18865THY    HM352411   9.575   5.401   4.556  0.6071  1.1663  0.6010
18865THY    CA652412   9.380   5.133   4.634  0.1686  0.0311 -0.2692
18865THY    HA652413   9.377   5.120   4.741  0.2452  0.0130 -0.4341
18866THY      O52414   0.446   8.141   6.595 -0.1082 -0.0857 -0.0304
18866THY     HO52415   0.383   8.068   6.583 -0.8506  0.2710  0.5426
18866THY    CA152416   0.460   8.212   6.476  0.2493 -0.2772 -0.0826
18866THY    CA252417   0.512   8.340   6.481  0.6358  0.2525  0.6157
18866THY    CP152418   0.556   8.413   6.605 -0.1844 -0.7091 -0.1660
18866THY    HP152419   0.520   8.365   6.698  0.1712 -0.9105 -0.8431
18866THY    CP252420   0.508   8.562   6.624  0.5582  0.0773  0.3723
18866THY    HP252421   0.474   8.582   6.727  3.1558  1.0266  0.3716
18866THY    HP352422   0.420   8.584   6.563  1.0759 -0.8804 -0.1473
18866THY    HP452423   0.587   8.635   6.603  0.6048 -4.2100 -0.6606
18866THY    CP352424   0.706   8.403   6.615 -0.0806 -0.6997 -0.2902
18866THY    HP552425   0.756   8.470   6.544 -0.2860 -0.7948 -0.2384
18866THY    HP652426   0.725   8.297   6.595 -2.3168 -1.5468 -0.5779
18866THY    HP752427   0.726   8.424   6.721  0.1477 -0.1884 -2.8372
18866THY    CA352428   0.520   8.405   6.356 -0.4500  0.2380 -0.4768
18866THY    HA352429   0.565   8.504   6.346 -2.9549  2.1092  0.9697
18866THY    CA452430   0.485   8.336   6.238 -0.2887  0.0227  0.5657
18866THY    HA452431   0.504   8.385   6.143 -1.3862 -0.2877  0.4092
18866THY    CA552432   0.428   8.207   6.242 -0.0264  0.0186 -0.1290
18866THY    CM152433   0.369   8.143   6.123  0.2103  0.2570 -0.2693
18866THY    HM152434   0.352   8.035   6.132  0.1582  0.5531 -0.2362
18866THY    HM252435   0.432   8.150   6.034 -0.7599 -0.4315 -0.0761
18866THY    HM352436   0.268   8.177   6.099  0.5477 -0.2995  0.3708
18866THY    CA652437   0.420   8.145   6.365 -0.1401 -0.0304  0.9611
18866THY    HA652438   0.378   8.045   6.376 -0.7380 -1.3167  1.0622
18867THY      O52439   2.120   5.024   4.491  0.1026  0.0306 -0.6942
18867THY     HO52440   2.032   5.048   4.527 -0.1498 -0.9874 -0.0014
18867THY    CA152441   2.196   4.983   4.600  0.4075  0.3747  0.3910
18867THY    CA252442   2.337   4.955   4.591  0.2483  0.1069  0.1869
18867THY    CP152443   2.413   4.982   4.469 -0.9938 -0.5141 -0.5099
18867THY    HP152444   2.352   4.949   4.384 -0.1382 -1.5179  0.4237
18867THY    CP252445   2.540   4.894   4.452 -0.3618 -0.4918 -0.0295
18867THY    HP252446   2.522   4.787   4.462 -1.9364 -2.2693  0.0096
18867THY    HP352447   2.619   4.936   4.515 -1.8381 -1.0062  3.9633
18867THY    HP452448   2.567   4.907   4.347 -0.3150 -0.5147 -0.3155
18867THY    CP352449   2.452   5.138   4.454  0.0702 -0.0855 -0.0453
18867THY    HP552450   2.489   5.162   4.354 -0.6293 -0.8553 -1.9613
18867THY    HP652451   2.528   5.161   4.529  1.2656 -1.1331 -0.4863
18867THY    HP752452   2.365   5.202   4.473  0.3034  0.4393  0.1115
18867THY    CA352453   2.392   4.910   4.716 -0.5355  0.1126 -0.1398
18867THY    HA352454   2.498   4.885   4.720 -0.6373  0.4065 -0.5265
18867THY    CA452455   2.315   4.891   4.836  0.2701 -0.1077 -0.5361
18867THY    HA452456   2.362   4.856   4.928 -0.5930  0.7336  0.4449
18867THY    CA552457   2.182   4.944   4.834 -0.5013  0.3528  0.2939
18867THY    CM152458   2.093   4.933   4.961 -0.4725  0.0260  0.2423
18867THY    HM152459   2.010   4.869   4.929 -0.5695 -1.7459  1.1893
18867THY    HM252460   2.063   5.035   4.989  0.9708  0.3973  0.5877
18867THY    HM352461   2.152   4.889   5.041 -0.4197 -0.2997 -0.2834
18867THY    CA652462   2.128   4.985   4.719  0.2771  0.2917  0.5565
18867THY    HA652463   2.025   5.016   4.726 -0.0408 -0.7204 -0.2430
18868THY      O52464   3.631   5.643   6.227  0.4217 -0.3706 -0.0852
18868THY     HO52465   3.678   5.714   6.273  0.9197  1.3129 -1.4364
18868THY    CA152466   3.729   5.547   6.203 -0.4678 -0.6781  0.0807
18868THY    CA252467   3.691   5.411   6.174  0.7915 -0.4053  0.2060
18868THY    CP152468   3.540   5.381   6.151  0.1680 -0.5709 -0.2181
18868THY    HP152469   3.482   5.432   6.229  0.6518  0.7619 -1.6416
18868THY    CP252470   3.500   5.234   6.153  0.1041  0.6304  0.1335
18868THY    HP252471   3.510   5.192   6.052 -1.8386  1.4931 -2.7202
18868THY    HP352472   3.394   5.225   6.179  0.7014  3.8769  1.3518
18868THY    HP452473   3.544   5.156   6.216 -0.8311 -1.1103 -1.8889
18868THY    CP352474   3.501   5.433   6.016  0.5270 -0.1367 -0.3713
18868THY    HP552475   3.409   5.383   5.985  0.9984  1.0476 -2.0855
18868THY    HP652476   3.578   5.398   5.947  0.0933 -1.1629  0.6631
18868THY    HP752477   3.495   5.542   6.008 -0.4365 -0.5118 -0.4505
18868THY    CA352478   3.789   5.314   6.155 -0.8009 -0.6480  0.3078
18868THY    HA352479   3.768   5.214   6.117  2.6183 -0.8824 -0.4259
18868THY    CA452480   3.924   5.348   6.160 -0.6329 -0.1149 -0.2393
18868THY    HA452481   4.003   5.275   6.146 -0.8194  0.6443 -0.5931
18868THY    CA552482   3.958   5.477   6.194  0.1340 -0.4681 -1.0716
18868THY    CM152483   4.100   5.525   6.199  1.0256  0.2304  0.3471
18868THY    HM152484   4.129   5.585   6.112 -2.1601 -0.2446  1.3857
18868THY    HM252485   4.160   5.433   6.197  0.3034 -1.3978 -0.1274
18868THY    HM352486   4.139   5.589   6.279  0.9643 -0.6946  1.5819
18868THY    CA652487   3.864   5.582   6.214 -0.5948 -0.1683  0.3358
18868THY    HA652488   3.896   5.686   6.219 -0.3679 -1.2574  0.3272
18869THY      O52489   5.973   7.813   6.804 -0.0495  0.2014  0.4418
18869THY     HO52490   5.940   7.821   6.712 -1.3435  0.6921  1.1898
18869THY    CA152491   6.078   7.901   6.816  1.4491 -0.1590 -0.0694
18869THY    CA252492   6.206   7.864   6.827 -0.2169 -0.0488 -0.3035
18869THY    CP152493   6.238   7.717   6.854  0.1366  0.2651 -0.5644
18869THY    HP152494   6.166   7.659   6.796 -1.5619 -0.6053  2.2053
18869THY    CP252495   6.223   7.686   7.009 -0.0221  0.4248 -0.6043
18869THY    HP252496   6.126   7.716   7.048 -0.2782 -1.7993  1.9157
18869THY    HP352497   6.302   7.746   7.056  0.1198 -0.1982 -0.2948
18869THY    HP452498   6.226   7.577   7.019  1.6026 -2.5665 -0.9576
18869THY    CP352499   6.379   7.681   6.807  0.1341  0.7454 -0.4615
18869THY    HP552500   6.466   7.736   6.844 -1.1687  3.1894  0.0689
18869THY    HP652501   6.385   7.702   6.699  0.5020  0.4936 -1.7958
18869THY    HP752502   6.401   7.576   6.829  0.6475  0.5882 -0.3908
18869THY    CA352503   6.307   7.960   6.812  0.0267 -0.0490  0.3178
18869THY    HA352504   6.414   7.939   6.807  0.2005 -1.2304  1.3439
18869THY    CA452505   6.266   8.094   6.783 -0.5361  0.3000  0.0214
18869THY    HA452506   6.337   8.175   6.794  1.7351 -2.4505 -1.4453
18869THY    CA552507   6.127   8.129   6.788 -0.0716  0.1554 -0.1711
18869THY    CM152508   6.077   8.269   6.779 -0.4736  0.2224  0.6695
18869THY    HM152509   5.971   8.284   6.803 -0.4546  0.6259  0.1879
18869THY    HM252510   6.097   8.294   6.674  1.0074  0.2528 -0.2609
18869THY    HM352511   6.138   8.342   6.833 -1.1960  0.3199  1.2030
18869THY    CA652512   6.035   8.032   6.813 -0.0552 -0.1384 -0.3876
18869THY    HA652513   5.930   8.057   6.810 -0.0392 -1.7090 -0.3614
18870THY      O52514   5.552   5.521   3.839  0.1961 -0.1331  0.1847
18870THY     HO52515   5.504   5.586   3.893 -2.0673 -1.5176 -0.2132
18870THY    CA152516   5.582   5.421   3.923  0.5809  0.4736 -0.6042
18870THY    CA252517   5.695   5.335   3.898  0.3305  0.4210 -0.8299
18870THY    CP152518   5.772   5.331   3.768  0.6543  0.5149 -0.0436
18870THY    HP152519   5.758   5.417   3.702 -0.4068  0.6374 -0.1095
18870THY    CP252520   5.728   5.209   3.677 -0.1404  0.0978 -0.2500
18870THY    HP252521   5.774   5.212   3.577 -0.7270 -0.1857 -0.5388
18870THY    HP352522   5.620   5.195   3.662  0.0268 -1.9368  0.2981
18870THY    HP452523   5.765   5.118   3.725 -1.5612  0.7163 -0.5285
18870THY    CP352524   5.925   5.318   3.787  0.2342  0.4945  0.1190
18870THY    HP552525   5.956   5.398   3.855 -1.6480  3.0998 -1.2398
18870THY    HP652526   5.965   5.335   3.686 -1.6440  0.0704  2.8324
18870THY    HP752527   5.954   5.217   3.818 -0.2338 -0.3627 -0.2875
18870THY    CA352528   5.723   5.242   4.001 -0.7004  0.0190  0.1994
18870THY    HA352529   5.805   5.172   3.985 -0.7650 -0.5155  0.2471
18870THY    CA452530   5.657   5.237   4.126 -0.8629  0.4886 -0.1368
18870THY    HA452531   5.696   5.173   4.204 -0.9923 -0.3414 -1.2577
18870THY    CA552532   5.564   5.339   4.152 -0.1679  0.6838  0.1217
18870THY    CM152533   5.497   5.331   4.292 -0.1589  0.6719  0.0698
18870THY    HM152534   5.433   5.417   4.314  0.4596 -0.1340  0.7568
18870THY    HM252535   5.583   5.318   4.358  1.3001 -0.9455  1.0647
18870THY    HM352536   5.430   5.244   4.297  1.3499  4.4057 -1.0659
18870THY    CA652537   5.529   5.428   4.051 -0.3111 -0.0082  0.0528
18870THY    HA652538   5.452   5.504   4.062 -0.5188 -2.7814  0.3410
18871THY      O52539   8.323   1.765   7.095 -0.5174  0.0382 -0.2205
18871THY     HO52540   8.364   1.681   7.123  0.1438 -1.4179 -0.4218
18871THY    CA152541   8.266   1.746   6.974 -0.2959 -0.0424 -0.3624
18871THY    CA252542   8.194   1.847   6.908  0.5479  0.5432  0.4160
18871THY    CP152543   8.176   1.985   6.966  0.1069 -0.0204  0.5639
18871THY    HP152544   8.176   1.973   7.075 -2.6701  0.0091  0.1466
18871THY    CP252545   8.034   2.046   6.943 -0.2598 -0.0338 -0.1796
18871THY    HP252546   7.957   1.970   6.957 -0.6017 -0.3543  0.1065
18871THY    HP352547   8.022   2.098   6.847  0.4114 -0.5008 -0.8671
18871THY    HP452548   8.020   2.112   7.029 -1.3350  0.7323 -1.3666
18871THY    CP352549   8.293   2.079   6.937 -0.4991 -0.4097  1.1183
18871THY    HP552550   8.271   2.169   6.878  0.4149 -1.2487  0.8040
18871THY    HP652551   8.368   2.027   6.878 -0.6356 -0.9054  1.4764
18871THY    HP752552   8.349   2.106   7.028 -2.0777  0.7627  0.6031
18871THY    CA352553   8.134   1.820   6.780  0.1733 -0.1064  0.7111
18871THY    HA352554   8.069   1.888   6.726 -1.2715 -0.2002 -0.6888
18871THY    CA452555   8.138   1.689   6.736  0.1716  0.4165  0.2817
18871THY    HA452556   8.082   1.659   6.648  0.5522  0.2133  0.1535
18871THY    CA552557   8.209   1.588   6.805  0.2926 -0.8965  0.3457
18871THY    CM152558   8.209   1.441   6.761  0.1415 -0.1801  0.0204
18871THY    HM152559   8.238   1.438   6.656  2.6583  0.4694 -0.2684
18871THY    HM252560   8.105   1.408   6.776  0.1673  3.5821  1.1467
18871THY    HM352561   8.270   1.370   6.818  0.0774  2.3643  1.8838
18871THY    CA652562   8.275   1.618   6.923  0.2266 -0.5098 -0.0478
18871THY    HA652563   8.323   1.532   6.969  2.3005  1.9527  2.2760
18872THY      O52564   3.473   1.997   3.819 -0.0349  0.0883  0.1711
18872THY     HO52565   3.493   2.089   3.843 -2.5844  1.1303  0.5480
18872THY    CA152566   3.338   1.996   3.802 -0.2213 -0.1121 -0.5160
18872THY    CA252567   3.254   1.909   3.866  0.4075 -0.3204  0.4362
18872THY    CP152568   3.310   1.814   3.973 -0.2818  0.1836 -0.6798
18872THY    HP152569   3.417   1.804   3.953  0.0730 -0.4883  3.0357
18872THY    CP252570   3.234   1.683   3.990  0.2808 -0.4088 -0.0402
18872THY    HP252571   3.247   1.623   3.900 -1.5630 -1.1466  0.5780
18872THY    HP352572   3.125   1.693   3.999  0.3116  2.2397 -1.3695
18872THY    HP452573   3.270   1.623   4.074 -0.9465 -1.3471 -2.1842
18872THY    CP352574   3.294   1.892   4.101 -0.3169  0.1965 -0.3938
18872THY    HP552575   3.316   1.834   4.191 -0.5844  0.9614  0.6513
18872THY    HP652576   3.189   1.918   4.122  0.0281  0.0094  1.2806
18872THY    HP752577   3.354   1.983   4.108 -1.7440 -3.6119  1.0292
18872THY    CA352578   3.116   1.914   3.850 -0.0975 -0.3334 -0.9006
18872THY    HA352579   3.043   1.870   3.917 -0.4034  0.7877  1.2007
18872THY    CA452580   3.063   2.013   3.760 -0.0889  0.9088  0.5757
18872THY    HA452581   2.956   2.025   3.743 -0.1871 -0.0807 -1.3785
18872THY    CA552582   3.153   2.099   3.689 -0.0221 -0.4435  0.2061
18872THY    CM152583   3.107   2.205   3.603 -0.5547  0.8487  0.3836
18872THY    HM152584   3.121   2.300   3.656 -1.0671  1.1985  0.2684
18872THY    HM252585   3.002   2.196   3.574  0.0702 -0.9710 -2.2043
18872THY    HM352586   3.177   2.226   3.521 -0.8388  1.2861  3.4590
18872THY    CA652587   3.284   2.088   3.712 -0.5684  0.5548  0.4006
18872THY    HA652588   3.350   2.168   3.680  1.3174  2.0799 -0.4496
18873THY      O52589   3.755   4.084   7.886  0.6552 -0.5929  0.6086
18873THY     HO52590   3.825   4.050   7.944 -0.5051 -0.9135 -2.6387
18873THY    CA152591   3.753   4.214   7.887  0.0484  0.4416 -0.1672
18873THY    CA252592   3.658   4.287   7.808 -0.8278 -0.0145 -0.2733
18873THY    CP152593   3.552   4.214   7.718  0.0234  0.0785 -0.0221
18873THY    HP152594   3.582   4.114   7.684 -0.5338 -0.9373  0.1400
18873THY    CP252595   3.529   4.281   7.587 -0.7038  0.5814 -0.4367
18873THY    HP252596   3.457   4.363   7.595 -1.3172 -2.2247 -0.6173
18873THY    HP352597   3.471   4.219   7.518 -0.4691  0.1787 -0.2140
18873THY    HP452598   3.616   4.319   7.532 -1.7838 -0.7582  0.1707
18873THY    CP352599   3.423   4.177   7.784 -0.2332  0.0096  0.6641
18873THY    HP552600   3.450   4.120   7.873 -1.0333  1.2995  2.2153
18873THY    HP652601   3.360   4.115   7.719 -0.8634 -0.1287  1.4243
18873THY    HP752602   3.375   4.270   7.816 -0.5232 -0.1839  0.5817
18873THY    CA352603   3.683   4.429   7.801  0.4568 -0.0179  0.2877
18873THY    HA352604   3.616   4.493   7.745  0.2790  0.0114  0.1305
18873THY    CA452605   3.791   4.484   7.867  0.0465  0.5239 -0.1440
18873THY    HA452606   3.812   4.590   7.866 -0.1923  0.8367 -0.0909
18873THY    CA552607   3.881   4.410   7.949 -0.3609 -0.2867 -0.4218
18873THY    CM152608   3.991   4.480   8.031  0.3992  0.1850  0.0474
18873THY    HM152609   3.973   4.469   8.139 -0.1141 -0.0355 -1.4643
18873THY    HM252610   4.015   4.587   8.018  1.4656  1.0700 -0.0600
18873THY    HM352611   4.080   4.417   8.030  0.6653 -1.1693  0.4205
18873THY    CA652612   3.857   4.278   7.966  0.2421  0.4235  0.2670
18873THY    HA652613   3.929   4.228   8.029  0.8207 -0.0391  0.5059
18874THY      O52614   2.075   7.147   7.101 -0.1911  0.0286  0.1323
18874THY     HO52615   2.079   7.155   7.005  0.8943  0.1861  2.4939
18874THY    CA152616   2.033   7.265   7.154  0.2883  0.0985 -0.3694
18874THY    CA252617   1.982   7.272   7.289  0.5446 -0.5474 -1.0925
18874THY    CP152618   1.980   7.155   7.386  0.7203  0.6735 -0.0019
18874THY    HP152619   2.028   7.069   7.339  0.0865 -1.2479  0.6346
18874THY    CP252620   1.834   7.119   7.412  0.1496  0.0369 -0.3595
18874THY    HP252621   1.780   7.092   7.320 -0.1102  0.6393 -1.9724
18874THY    HP352622   1.779   7.209   7.444 -2.3531 -0.5719 -1.5787
18874THY    HP452623   1.831   7.036   7.482  0.6055  0.8245  0.2732
18874THY    CP352624   2.035   7.188   7.529 -0.0183  0.5981 -0.0681
18874THY    HP552625   2.034   7.098   7.591 -0.5631 -0.3103 -0.6938
18874THY    HP652626   1.983   7.269   7.582  0.8473  0.9040  0.3053
18874THY    HP752627   2.136   7.233   7.530 -0.3621  1.1975  0.7289
18874THY    CA352628   1.930   7.398   7.329 -0.0487  0.2735 -0.4660
18874THY    HA352629   1.887   7.414   7.427 -0.0441  0.2977 -0.5993
18874THY    CA452630   1.942   7.512   7.234  0.0050  0.0658  0.1133
18874THY    HA452631   1.904   7.609   7.266 -0.6059  0.9014 -0.3917
18874THY    CA552632   2.001   7.501   7.111  0.3694  0.1253  0.0326
18874THY    CM152633   2.002   7.621   7.023 -0.2626  0.3401 -0.1932
18874THY    HM152634   1.901   7.662   7.010  0.0281  1.5330  0.9421
18874THY    HM252635   2.057   7.606   6.929  0.3476  0.9445 -2.0194
18874THY    HM352636   2.050   7.708   7.069  1.5651 -1.8295  0.0271
18874THY    CA652637   2.036   7.375   7.066  0.5979  0.6598  0.3275
18874THY    HA652638   2.066   7.364   6.962  0.3215  0.6213 -0.0897
18875THY      O52639   4.855   8.165   7.516  0.0308 -0.6555 -0.2026
18875THY     HO52640   4.799   8.239   7.487  1.7030  1.9695  2.3042
18875THY    CA152641   4.786   8.050   7.484  0.2434  0.4423 -0.3209
18875THY    CA252642   4.861   7.928   7.479 -0.5257 -0.7480 -0.1795
18875THY    CP152643   5.001   7.919   7.540 -0.1594 -0.0240  0.5595
18875THY    HP152644   5.022   8.022   7.570 -1.5245  0.5546  0.6800
18875THY    CP252645   5.093   7.894   7.419  0.2550 -0.2355  0.7138
18875THY    HP252646   5.078   7.980   7.353  2.5995 -0.3882  1.0481
18875THY    HP352647   5.053   7.806   7.367 -1.0217  0.9455  0.5582
18875THY    HP452648   5.196   7.883   7.454  0.1783 -0.3419 -0.5273
18875THY    CP352649   5.024   7.825   7.654 -0.2049 -0.7408  0.1489
18875THY    HP552650   4.950   7.834   7.734  0.3219 -0.2628  0.2688
18875THY    HP652651   5.120   7.863   7.690  0.1497  0.4674 -1.7522
18875THY    HP752652   5.035   7.718   7.629  0.7611  1.8993 -0.4472
18875THY    CA352653   4.789   7.816   7.435 -1.0231 -0.2310  0.0704
18875THY    HA352654   4.845   7.723   7.427 -0.6580 -0.7567  0.3270
18875THY    CA452655   4.658   7.829   7.388 -0.0260 -0.4416 -0.1407
18875THY    HA452656   4.614   7.737   7.351  1.6239  1.4267 -1.7845
18875THY    CA552657   4.595   7.950   7.386  0.7793 -0.2060  0.2721
18875THY    CM152658   4.451   7.966   7.332 -0.6717  0.3759  0.4983
18875THY    HM152659   4.390   8.038   7.388  0.4916  0.3256  1.5585
18875THY    HM252660   4.403   7.868   7.329 -1.6869 -2.0739  0.9899
18875THY    HM352661   4.444   7.997   7.227 -2.6275  0.8230  1.7117
18875THY    CA652662   4.661   8.065   7.425  0.0749  0.2529  0.4065
18875THY    HA652663   4.609   8.160   7.431  1.1303 -1.7936  1.1758
18876THY      O52664   9.155   3.568   5.573  0.4998 -0.0301 -0.2167
18876THY     HO52665   9.173   3.636   5.640 -1.1735  0.4950 -0.2385
18876THY    CA152666   9.197   3.626   5.456  0.0106  1.1819 -0.8077
18876THY    CA252667   9.125   3.622   5.338  0.1456 -0.1563  0.2608
18876THY    CP152668   8.989   3.545   5.336  0.5881 -0.3812  0.6178
18876THY    HP152669   8.939   3.559   5.432  0.1212 -0.3972 -0.7871
18876THY    CP252670   9.010   3.392   5.329 -0.2031 -0.1241 -0.1560
18876THY    HP252671   9.086   3.356   5.258  2.1534  2.4505 -0.6286
18876THY    HP352672   8.915   3.345   5.302  0.2467  1.3137 -2.0021
18876THY    HP452673   9.032   3.365   5.433  2.2343  0.3539  3.1443
18876THY    CP352674   8.904   3.590   5.215 -0.1677 -1.1169  0.6456
18876THY    HP552675   8.950   3.559   5.120  1.0733  0.0482 -1.2478
18876THY    HP652676   8.903   3.699   5.219 -1.4344 -0.4912  0.6348
18876THY    HP752677   8.800   3.557   5.229 -0.5065  0.7749  2.3442
18876THY    CA352678   9.179   3.685   5.232  0.1080 -0.4529 -0.3295
18876THY    HA352679   9.141   3.669   5.132  1.4618 -1.5100  2.4144
18876THY    CA452680   9.301   3.762   5.240  0.2416  0.4194  0.2020
18876THY    HA452681   9.339   3.818   5.155 -2.5823  0.8563  3.0447
18876THY    CA552682   9.365   3.773   5.360 -0.1201  0.3891  0.6170
18876THY    CM152683   9.486   3.864   5.382  0.6841 -0.5841 -0.2070
18876THY    HM152684   9.464   3.952   5.444 -0.6133 -0.0202 -0.8984
18876THY    HM252685   9.514   3.887   5.279 -1.4176 -1.7723 -2.5401
18876THY    HM352686   9.558   3.801   5.436 -1.0867  1.4895 -0.5948
18876THY    CA652687   9.315   3.693   5.466 -0.5781  0.1836  0.6608
18876THY    HA652688   9.376   3.687   5.555 -0.9512  0.4503  0.7771
18877THY      O52689   1.801   4.806   4.361  0.4218  0.4346  0.0564
18877THY     HO52690   1.881   4.790   4.308 -1.6496 -2.4084 -1.8197
18877THY    CA152691   1.722   4.724   4.298  0.2052 -0.0748  0.2679
18877THY    CA252692   1.588   4.702   4.340 -0.1979 -0.6984  0.4518
18877THY    CP152693   1.532   4.777   4.463  0.2922  0.5864 -0.1592
18877THY    HP152694   1.621   4.809   4.519  0.4068 -0.3312  1.2211
18877THY    CP252695   1.439   4.700   4.552  0.3969  0.0019 -0.0002
18877THY    HP252696   1.352   4.664   4.495 -0.4494  0.3799  1.3959
18877THY    HP352697   1.406   4.766   4.633  1.0703  0.3103 -0.0329
18877THY    HP452698   1.495   4.618   4.598 -0.1628  2.1990  0.7867
18877THY    CP352699   1.462   4.907   4.417 -0.3306  0.1046 -0.3364
18877THY    HP552700   1.367   4.890   4.365 -0.1935 -0.4951  0.6129
18877THY    HP652701   1.536   4.964   4.358  0.3506 -1.0750 -2.3402
18877THY    HP752702   1.432   4.976   4.497  0.7113  0.6076 -0.4517
18877THY    CA352703   1.503   4.609   4.270  0.1673  0.0127  0.1883
18877THY    HA352704   1.399   4.598   4.298  0.2662  0.2523 -0.1319
18877THY    CA452705   1.562   4.543   4.159 -0.0507 -0.3968 -0.2825
18877THY    HA452706   1.502   4.472   4.104 -1.1673 -0.7147  0.8638
18877THY    CA552707   1.696   4.554   4.127 -0.2924 -0.0827  0.4223
18877THY    CM152708   1.751   4.471   4.013  0.1032  0.3184 -0.2255
18877THY    HM152709   1.826   4.522   3.951 -2.1421 -2.4751 -0.0592
18877THY    HM252710   1.680   4.449   3.932  0.2817 -0.4989  1.9625
18877THY    HM352711   1.786   4.372   4.044  0.2009  1.0905  0.0465
18877THY    CA652712   1.777   4.648   4.191 -0.2182 -0.2717  0.3800
18877THY    HA652713   1.878   4.668   4.156 -0.8621 -1.2866  2.0793
18878THY      O52714   6.851   5.861   3.687 -0.9309 -0.7595  0.3874
18878THY     HO52715   6.855   5.871   3.591  0.3037 -0.7585  0.1201
18878THY    CA152716   6.943   5.765   3.720 -0.1128  0.2753  0.3034
18878THY    CA252717   6.995   5.750   3.850 -0.0382  0.2624  1.1768
18878THY    CP152718   6.935   5.822   3.966  0.5662  0.2457  0.1020
18878THY    HP152719   6.834   5.855   3.939 -0.3322  2.7570 -0.3569
18878THY    CP252720   7.024   5.940   3.999 -0.9355 -0.0369  0.9928
18878THY    HP252721   6.991   5.992   4.089 -0.6026  0.1507  0.8815
18878THY    HP352722   7.045   6.000   3.909  0.8930 -0.3119  0.0381
18878THY    HP452723   7.119   5.899   4.035 -2.1735  1.8265 -0.3672
18878THY    CP352724   6.921   5.751   4.099 -0.1216  0.7569  0.4531
18878THY    HP552725   6.862   5.806   4.172  0.4004  0.8352  0.9222
18878THY    HP652726   7.016   5.714   4.140  0.5431 -1.6637 -0.8130
18878THY    HP752727   6.868   5.658   4.076  0.7253  1.9721 -0.3636
18878THY    CA352728   7.102   5.651   3.869 -0.6043 -0.2504  0.5614
18878THY    HA352729   7.153   5.642   3.964  3.4351 -2.2760 -0.1834
18878THY    CA452730   7.155   5.585   3.756 -0.2521 -0.2292 -0.1831
18878THY    HA452731   7.244   5.524   3.766  0.5878 -2.2754  0.6176
18878THY    CA552732   7.107   5.611   3.629  0.7982  0.2013  0.5555
18878THY    CM152733   7.171   5.541   3.518  0.2567  0.5776  0.3901
18878THY    HM152734   7.192   5.610   3.435  0.0310  2.5122  2.9075
18878THY    HM252735   7.101   5.470   3.472  0.2642 -0.6546  1.1419
18878THY    HM352736   7.255   5.482   3.555  0.4896 -1.2978 -0.5280
18878THY    CA652737   7.005   5.705   3.604  0.4361  0.7542 -0.6091
18878THY    HA652738   6.976   5.717   3.500 -1.5609  1.3932  0.7569
18879THY      O52739   0.899   5.830   2.344 -0.3348 -0.3339  0.1338
18879THY     HO52740   0.862   5.772   2.275  0.8662  0.3261 -1.5205
18879THY    CA152741   1.004   5.765   2.411  0.4328 -0.1035  0.2636
18879THY    CA252742   1.086   5.820   2.512  0.5768  0.1385  0.2266
18879THY    CP152743   1.067   5.962   2.560 -0.4934  0.3918  0.2624
18879THY    HP152744   0.960   5.986   2.562 -0.6847  1.9968 -0.5701
18879THY    CP252745   1.144   6.053   2.468  0.1178  0.8206  0.1086
18879THY    HP252746   1.160   6.149   2.517  2.2827  0.1009  0.1679
18879THY    HP352747   1.090   6.064   2.373  2.1243 -0.5044 -0.7921
18879THY    HP452748   1.246   6.019   2.445  0.3608 -0.3745  1.5388
18879THY    CP352749   1.119   5.989   2.704  0.0454  0.8873 -0.2471
18879THY    HP552750   1.062   5.919   2.766  1.3041  2.8178  0.3768
18879THY    HP652751   1.091   6.094   2.718  1.0289  1.2133 -0.0176
18879THY    HP752752   1.228   5.986   2.710  0.1678 -0.9614 -0.4890
18879THY    CA352753   1.190   5.734   2.560  0.7850  0.4749 -0.3937
18879THY    HA352754   1.250   5.769   2.644  1.5085  0.3772 -1.3475
18879THY    CA452755   1.222   5.613   2.508  0.0185 -0.2889  0.2949
18879THY    HA452756   1.295   5.548   2.556 -1.4401  1.3484 -0.2203
18879THY    CA552757   1.143   5.563   2.415  0.3451  0.1864  0.4680
18879THY    CM152758   1.177   5.427   2.350 -0.0502 -0.0914  0.1892
18879THY    HM152759   1.272   5.398   2.396  0.1298  0.7011  1.9525
18879THY    HM252760   1.194   5.443   2.243 -2.1236 -0.1242  2.9676
18879THY    HM352761   1.092   5.358   2.358  2.1451 -2.8750 -3.2232
18879THY    CA652762   1.039   5.639   2.358  0.4969  0.0172  0.5874
18879THY    HA652763   0.979   5.586   2.285  3.9376 -1.1785 -2.0108
18880THY      O52764   6.389   5.874   5.720  0.4137  0.0681  0.0767
18880THY     HO52765   6.349   5.962   5.708 -0.9677 -1.5523 -0.7111
18880THY    CA152766   6.391   5.834   5.855  0.5726  0.2181 -0.2533
18880THY    CA252767   6.418   5.707   5.892 -0.3629  1.0754 -0.0677
18880THY    CP152768   6.443   5.596   5.794 -0.0143  0.0709  0.2922
18880THY    HP152769   6.435   5.627   5.689 -0.9807  0.6087  1.9954
18880THY    CP252770   6.340   5.477   5.815  0.4296  0.2463 -0.1324
18880THY    HP252771   6.364   5.401   5.739  0.2741  0.1461 -0.0803
18880THY    HP352772   6.244   5.527   5.802 -0.1871  2.6011 -0.6086
18880THY    HP452773   6.339   5.429   5.913  3.8550  0.6924  0.4825
18880THY    CP352774   6.580   5.538   5.815 -0.3055 -0.2428  0.4731
18880THY    HP552775   6.598   5.458   5.742 -1.6688 -0.2819  0.1675
18880THY    HP652776   6.593   5.503   5.918 -0.0102 -1.2136 -2.5768
18880THY    HP752777   6.663   5.607   5.800  0.1802 -1.2974 -0.3205
18880THY    CA352778   6.428   5.679   6.026  0.1258 -0.0043  0.6955
18880THY    HA352779   6.451   5.581   6.067 -1.6770  4.6370  1.9319
18880THY    CA452780   6.422   5.782   6.115  0.0552  0.5656  0.1991
18880THY    HA452781   6.435   5.762   6.220  1.3211  0.6484  1.3305
18880THY    CA552782   6.392   5.911   6.082  0.2406 -0.1125 -0.2976
18880THY    CM152783   6.383   6.011   6.186  0.5792  0.5400  0.0196
18880THY    HM152784   6.476   6.005   6.244 -0.1682  2.0164  1.5408
18880THY    HM252785   6.300   5.982   6.252 -0.8356 -1.7192 -1.3683
18880THY    HM352786   6.373   6.110   6.140  0.2245 -1.4970 -0.9338
18880THY    CA652787   6.378   5.936   5.949 -0.4684 -0.1533 -0.3014
18880THY    HA652788   6.363   6.038   5.917  1.1236  1.6894  0.5799
18881THY      O52789   7.041   8.397   2.870  0.2164 -0.0390 -0.5925
18881THY     HO52790   7.132   8.431   2.878 -0.6236 -0.0273  1.8344
18881THY    CA152791   7.054   8.261   2.880 -0.2542 -0.0176 -0.0366
18881THY    CA252792   6.947   8.176   2.862  0.7680  0.3403  0.2697
18881THY    CP152793   6.802   8.233   2.827 -0.3279 -0.0190  0.3283
18881THY    HP152794   6.818   8.336   2.795  1.7461 -1.9465 -0.5086
18881THY    CP252795   6.722   8.233   2.957 -0.1069 -0.7414  0.8966
18881THY    HP252796   6.615   8.253   2.947 -0.1822  0.1067  0.9896
18881THY    HP352797   6.762   8.303   3.031  1.9273  0.6476 -1.5192
18881THY    HP452798   6.723   8.128   2.992 -0.3860  1.6303  1.6123
18881THY    CP352799   6.734   8.152   2.722 -0.8120 -0.8395 -0.3802
18881THY    HP552800   6.670   8.229   2.677 -0.0538  0.4385  1.0362
18881THY    HP652801   6.689   8.057   2.755  1.9540 -1.5268 -2.0556
18881THY    HP752802   6.814   8.128   2.650 -0.5410 -0.8595  0.5380
18881THY    CA352803   6.973   8.034   2.873 -0.3956  0.1282 -0.4073
18881THY    HA352804   6.894   7.964   2.851 -1.2892 -0.0365  0.6337
18881THY    CA452805   7.104   7.993   2.911  0.5858  0.7031  0.0647
18881THY    HA452806   7.121   7.886   2.917 -0.5418  2.5625 -0.0417
18881THY    CA552807   7.203   8.079   2.938  0.0804 -0.6627 -0.2744
18881THY    CM152808   7.337   8.036   2.985  0.0385  0.3774 -0.7670
18881THY    HM152809   7.351   7.928   2.967  1.3492 -0.6573 -0.4432
18881THY    HM252810   7.358   8.063   3.089 -2.2099  0.6050  0.3094
18881THY    HM352811   7.419   8.071   2.922 -0.0364 -0.2138 -1.6076
18881THY    CA652812   7.177   8.216   2.921 -0.3458  0.3027  0.3627
18881THY    HA652813   7.259   8.282   2.948  1.5248 -0.9615 -1.3511
18882THY      O52814   1.030   8.657   3.033  0.1341 -0.5887  0.9234
18882THY     HO52815   1.013   8.739   3.083 -1.0713  1.7923 -0.6983
18882THY    CA152816   1.147   8.678   2.968  0.2085  0.3954  0.2015
18882THY    CA252817   1.206   8.588   2.870 -0.1610 -1.1126  0.1399
18882THY    CP152818   1.126   8.468   2.840 -0.1511 -0.0558 -0.1588
18882THY    HP152819   1.025   8.489   2.877 -0.1496  1.6383 -2.6683
18882THY    CP252820   1.186   8.340   2.907 -0.2005 -0.0282  0.5194
18882THY    HP252821   1.286   8.324   2.865 -0.4090 -0.8053  1.1780
18882THY    HP352822   1.128   8.256   2.867 -1.5557 -0.9310  1.8367
18882THY    HP452823   1.187   8.346   3.016  1.9983 -0.0238  0.8206
18882THY    CP352824   1.119   8.455   2.682 -0.2773 -0.1456 -1.0790
18882THY    HP552825   1.041   8.386   2.650 -1.2493 -0.6246  0.2040
18882THY    HP652826   1.207   8.409   2.635 -0.9310 -1.7050 -0.8156
18882THY    HP752827   1.120   8.556   2.639  1.5905 -0.0193 -0.9996
18882THY    CA352828   1.326   8.624   2.800 -0.4611  0.5792 -0.1191
18882THY    HA352829   1.365   8.566   2.717 -0.5195  0.6469 -0.2567
18882THY    CA452830   1.400   8.735   2.844  0.4510  0.2875 -0.2588
18882THY    HA452831   1.495   8.761   2.798  0.4111  1.3103  1.9030
18882THY    CA552832   1.347   8.815   2.947 -0.3628  0.5499  0.4342
18882THY    CM152833   1.419   8.939   2.989 -0.6792 -0.2568 -0.1395
18882THY    HM152834   1.524   8.907   2.986 -0.7406 -1.3367 -0.2581
18882THY    HM252835   1.385   8.964   3.090 -0.6544 -0.4762  0.7946
18882THY    HM352836   1.401   9.023   2.921 -1.8690 -1.1567 -1.0860
18882THY    CA652837   1.221   8.791   3.003  0.8172  0.0692 -0.3838
18882THY    HA652838   1.179   8.866   3.070  0.8721 -1.3794  0.9852
18883THY      O52839   0.670   8.759   3.237 -0.2301  0.3377 -0.2981
18883THY     HO52840   0.645   8.687   3.176 -0.7007  1.6355 -1.2593
18883THY    CA152841   0.564   8.771   3.321 -0.0514  0.7303  0.7381
18883THY    CA252842   0.521   8.894   3.376 -1.5181 -0.0719  0.8509
18883THY    CP152843   0.577   9.026   3.323  0.3338 -0.5144 -0.7583
18883THY    HP152844   0.661   9.014   3.253  1.0877  0.0905  0.6694
18883THY    CP252845   0.632   9.116   3.440 -0.2968  0.9897 -0.3107
18883THY    HP252846   0.713   9.051   3.477  1.9080 -1.5151  0.8274
18883THY    HP352847   0.549   9.141   3.507 -1.4496  1.0773 -3.8169
18883THY    HP452848   0.674   9.213   3.413  0.2119  1.4886 -0.3828
18883THY    CP352849   0.474   9.109   3.241  0.6501 -0.3455 -0.9695
18883THY    HP552850   0.382   9.131   3.297  1.4970  0.8991 -0.5368
18883THY    HP652851   0.435   9.049   3.157 -0.8618 -1.9984  2.0803
18883THY    HP752852   0.513   9.201   3.195  1.8801  0.9522 -0.8131
18883THY    CA352853   0.420   8.896   3.465  0.8597 -0.2678  0.4771
18883THY    HA352854   0.370   8.983   3.507 -1.6445 -0.3143 -0.8251
18883THY    CA452855   0.354   8.776   3.501  0.4272 -0.4072  0.0259
18883THY    HA452856   0.268   8.774   3.568 -0.1768 -1.0984  1.5259
18883THY    CA552857   0.392   8.656   3.448 -0.2691 -0.3994  0.5750
18883THY    CM152858   0.325   8.531   3.488 -0.1297 -0.4291 -0.4453
18883THY    HM152859   0.340   8.492   3.589 -0.4779 -0.3395 -0.3557
18883THY    HM252860   0.350   8.443   3.427  2.0428  1.5452 -1.3064
18883THY    HM352861   0.220   8.540   3.458  0.5474 -3.3539 -1.0317
18883THY    CA652862   0.493   8.655   3.355 -0.1745 -0.2099 -0.1060
18883THY    HA652863   0.522   8.555   3.321 -0.7764  2.1071 -1.1299
18884THY      O52864   8.850   1.509   2.325  0.0840 -0.2797  0.7563
18884THY     HO52865   8.830   1.418   2.298  3.0116  0.4185 -0.1847
18884THY    CA152866   8.949   1.548   2.241 -0.3645 -0.5831 -0.3301
18884THY    CA252867   8.948   1.677   2.180  0.3667 -0.2248  0.3831
18884THY    CP152868   8.823   1.770   2.212 -0.2305 -0.3685  0.5249
18884THY    HP152869   8.794   1.764   2.318  0.5295  0.1510  3.8925
18884THY    CP252870   8.705   1.731   2.122 -0.5145 -1.1140 -0.6015
18884THY    HP252871   8.718   1.756   2.016  0.2115 -0.7352  0.7635
18884THY    HP352872   8.622   1.801   2.139 -0.1442 -1.2610 -0.1176
18884THY    HP452873   8.664   1.631   2.142 -2.2636  1.2916  0.4826
18884THY    CP352874   8.853   1.922   2.199 -0.5663 -0.5472 -1.2847
18884THY    HP552875   8.884   1.943   2.096 -1.5449 -0.4271  1.0291
18884THY    HP652876   8.929   1.959   2.268  0.3127 -1.6995 -0.8581
18884THY    HP752877   8.756   1.974   2.201 -0.5304  0.4727 -1.2521
18884THY    CA352878   9.045   1.715   2.087  0.2214 -0.1935  0.7320
18884THY    HA352879   9.030   1.802   2.024  0.9769 -1.3387  0.0673
18884THY    CA452880   9.156   1.626   2.066 -0.2694 -0.0102 -0.4179
18884THY    HA452881   9.236   1.661   2.001 -1.1962  0.1562  2.1807
18884THY    CA552882   9.161   1.501   2.128  0.0147  0.8979 -0.1037
18884THY    CM152883   9.268   1.402   2.091 -0.1556  0.5628 -0.0907
18884THY    HM152884   9.247   1.368   1.989  0.1504 -0.4072  2.4531
18884THY    HM252885   9.296   1.329   2.168 -2.3675  0.6526 -0.9142
18884THY    HM352886   9.357   1.466   2.081 -0.2138  2.3471  0.3225
18884THY    CA652887   9.057   1.464   2.209  0.6941  0.3558  0.9301
18884THY    HA652888   9.063   1.370   2.264 -0.7826  1.2071  1.2881
18885THY      O52889   4.742   7.423   6.644 -0.2116 -0.2895 -0.4441
18885THY     HO52890   4.667   7.483   6.656  0.4207  0.6028  0.1960
18885THY    CA152891   4.857   7.495   6.635 -0.4099  0.1813 -0.8017
18885THY    CA252892   4.928   7.555   6.740  0.7632 -0.0503  0.1576
18885THY    CP152893   4.859   7.548   6.866 -0.1632 -1.2579 -0.7560
18885THY    HP152894   4.751   7.567   6.863  0.1214  1.4179  2.0271
18885THY    CP252895   4.912   7.651   6.974 -0.2986  0.2447  0.3773
18885THY    HP252896   4.849   7.661   7.063  0.0888  0.3835  1.9644
18885THY    HP352897   4.915   7.754   6.937  0.6320  1.6125  0.8728
18885THY    HP452898   5.017   7.627   6.996 -0.4534  1.3424  0.6200
18885THY    CP352899   4.876   7.413   6.932  0.1160 -0.8111  0.5610
18885THY    HP552900   4.812   7.349   6.870 -0.3513 -1.2857  1.4684
18885THY    HP652901   4.820   7.406   7.026 -0.9702 -1.4736 -0.0885
18885THY    HP752902   4.977   7.388   6.965 -0.6986 -0.4322 -2.6848
18885THY    CA352903   5.055   7.606   6.721 -0.2130  0.1476 -0.0741
18885THY    HA352904   5.114   7.648   6.801 -1.7379  1.0144  0.4939
18885THY    CA452905   5.106   7.617   6.590  0.3111  0.8196 -0.0347
18885THY    HA452906   5.206   7.657   6.576  0.9774  2.2516 -1.1538
18885THY    CA552907   5.036   7.564   6.479 -0.3860 -0.2147  0.1071
18885THY    CM152908   5.080   7.563   6.341  0.5112 -0.0709  0.1188
18885THY    HM152909   5.186   7.545   6.316  1.1491 -1.0146  4.1430
18885THY    HM252910   5.079   7.668   6.310  3.3317  0.9722  0.5427
18885THY    HM352911   5.016   7.514   6.267  1.2630 -1.9219  1.7849
18885THY    CA652912   4.912   7.504   6.506 -0.0034  0.1756 -0.0194
18885THY    HA652913   4.854   7.455   6.429 -1.1071  0.8298  0.2223
18886THY      O52914   3.406   6.211   1.960  0.1703 -0.4087 -0.0358
18886THY     HO52915   3.345   6.136   1.974  0.4251  0.8045 -0.0292
18886THY    CA152916   3.534   6.169   1.942  0.0485  0.2165  1.5294
18886THY    CA252917   3.644   6.250   1.927  0.0080  0.7027  0.6192
18886THY    CP152918   3.636   6.405   1.917 -0.2416  0.1523  0.7910
18886THY    HP152919   3.540   6.425   1.965 -1.6342 -1.2799 -1.9192
18886THY    CP252920   3.627   6.450   1.764  0.3734 -1.0058  0.6148
18886THY    HP252921   3.562   6.384   1.706  0.8642 -2.6624  1.5331
18886THY    HP352922   3.728   6.433   1.723  1.0593  0.1835  1.6023
18886THY    HP452923   3.599   6.555   1.755 -1.0242  1.2126  0.4857
18886THY    CP352924   3.739   6.485   1.994 -0.0366  0.9018 -0.4650
18886THY    HP552925   3.731   6.459   2.100  2.7645  1.3238  0.0717
18886THY    HP652926   3.728   6.593   1.979  0.9207  1.4945 -0.2730
18886THY    HP752927   3.837   6.458   1.952 -0.5350 -0.5656 -0.1221
18886THY    CA352928   3.777   6.196   1.928 -0.6058 -0.6502  0.4339
18886THY    HA352929   3.865   6.259   1.918 -0.8818 -2.1361  0.6300
18886THY    CA452930   3.783   6.053   1.933  0.4989  0.0096  0.0473
18886THY    HA452931   3.884   6.011   1.932  1.1397 -0.2958  1.5206
18886THY    CA552932   3.672   5.974   1.944 -0.2211 -0.4077 -0.4249
18886THY    CM152933   3.686   5.824   1.949  0.2736  0.4739 -0.3177
18886THY    HM152934   3.789   5.796   1.972  1.1889 -1.5441  1.1705
18886THY    HM252935   3.673   5.779   1.849  2.2626  0.5273 -1.0962
18886THY    HM352936   3.621   5.773   2.021 -3.1072 -2.5666 -0.7805
18886THY    CA652937   3.547   6.028   1.953  0.2401  0.3440 -0.1305
18886THY    HA652938   3.457   5.968   1.960 -0.1273 -1.7067  0.1228
18887THY      O52939   6.484   3.382   6.740 -0.2851  0.1746 -0.3920
18887THY     HO52940   6.547   3.313   6.766  1.4839 -0.6140  0.8369
18887THY    CA152941   6.541   3.429   6.626 -0.0946  0.2207 -0.0960
18887THY    CA252942   6.514   3.564   6.586 -0.7138 -0.4588 -0.0732
18887THY    CP152943   6.406   3.644   6.662 -0.3182  0.2371  0.0969
18887THY    HP152944   6.331   3.572   6.697  0.2089  1.1382 -0.0329
18887THY    CP252945   6.337   3.748   6.569  0.4922 -0.3287  1.2379
18887THY    HP252946   6.407   3.830   6.546  3.4665  1.0335 -0.7545
18887THY    HP352947   6.252   3.785   6.628  0.8660 -0.3717  2.1918
18887THY    HP452948   6.288   3.700   6.484 -2.3790  1.5455  0.5538
18887THY    CP352949   6.482   3.722   6.782  0.8990  0.1367 -0.2227
18887THY    HP552950   6.550   3.653   6.834  1.9698 -0.2501  0.5202
18887THY    HP652951   6.407   3.764   6.849  3.3782  2.1804  1.1930
18887THY    HP752952   6.531   3.809   6.737 -1.5168  0.4390  1.4033
18887THY    CA352953   6.574   3.613   6.473  0.7927 -0.2427  0.0666
18887THY    HA352954   6.561   3.714   6.437  2.3651 -0.3129  0.2751
18887THY    CA452955   6.674   3.531   6.409 -0.8589  0.0317  0.0127
18887THY    HA452956   6.735   3.564   6.326 -0.1303 -0.0569 -1.5242
18887THY    CA552957   6.706   3.402   6.448  0.4357  0.4365 -0.5367
18887THY    CM152958   6.807   3.326   6.369  0.1708 -0.3999  0.1434
18887THY    HM152959   6.794   3.347   6.262 -0.4466 -0.4442 -0.4244
18887THY    HM252960   6.775   3.222   6.367 -1.2335 -0.4879  0.5515
18887THY    HM352961   6.911   3.335   6.400  0.8386 -2.2070 -0.9077
18887THY    CA652962   6.637   3.351   6.554  0.6223  0.1562  0.5204
18887THY    HA652963   6.650   3.246   6.579  0.5990 -2.1377 -0.0827
18888THY      O52964   8.358   7.410   6.907 -0.0850  0.4038  0.0925
18888THY     HO52965   8.262   7.426   6.907  0.0792 -1.3960  1.3435
18888THY    CA152966   8.400   7.478   7.012 -0.4361  0.9621 -0.3774
18888THY    CA252967   8.540   7.495   7.042  0.7716 -0.4597  1.1695
18888THY    CP152968   8.645   7.417   6.960  0.2413 -0.4044 -0.5603
18888THY    HP152969   8.598   7.363   6.877 -0.3790  0.8618 -2.0442
18888THY    CP252970   8.714   7.306   7.027 -0.2395  0.5096 -0.3057
18888THY    HP252971   8.768   7.247   6.952  0.3651  0.1443  0.6806
18888THY    HP352972   8.653   7.239   7.090 -1.0784 -0.7421 -0.7562
18888THY    HP452973   8.793   7.346   7.092  2.3630 -2.1332 -0.8098
18888THY    CP352974   8.748   7.514   6.900 -0.5543  0.0999  0.0430
18888THY    HP552975   8.693   7.592   6.845  1.9302  1.8144  3.2654
18888THY    HP652976   8.823   7.471   6.832 -1.7048 -0.7706 -0.6459
18888THY    HP752977   8.795   7.578   6.975 -0.8137  0.1604  0.1627
18888THY    CA352978   8.572   7.572   7.154 -0.4628 -0.1457 -0.1918
18888THY    HA352979   8.676   7.585   7.181 -0.5069  0.2230 -0.5823
18888THY    CA452980   8.476   7.630   7.233  0.5656  0.2614  0.1736
18888THY    HA452981   8.509   7.699   7.310 -0.5586 -0.1333  1.1947
18888THY    CA552982   8.336   7.602   7.210 -0.4034 -0.0901  0.6974
18888THY    CM152983   8.233   7.647   7.314  0.6584 -0.2506 -0.3060
18888THY    HM152984   8.185   7.565   7.369 -1.0336  0.4121  1.0803
18888THY    HM252985   8.159   7.718   7.274  0.2186  2.7403  1.0482
18888THY    HM352986   8.288   7.700   7.393  0.3235  0.5408 -1.1148
18888THY    CA652987   8.303   7.522   7.093  0.8637 -0.3832 -0.2262
18888THY    HA652988   8.201   7.489   7.081  0.4934  1.4315  0.1192
18889THY      O52989   6.928   3.610   1.772  0.3382  0.0542 -0.4467
18889THY     HO52990   6.981   3.619   1.692 -2.7415 -1.9323  3.8415
18889THY    CA152991   7.015   3.585   1.876  0.4762 -0.6816 -0.4306
18889THY    CA252992   6.996   3.630   2.014 -1.1600  0.5750 -0.1205
18889THY    CP152993   6.871   3.701   2.059  0.2090 -0.6018 -0.0789
18889THY    HP152994   6.831   3.758   1.975 -1.5358 -1.3989 -2.3613
18889THY    CP252995   6.894   3.802   2.169 -0.2360 -0.0363  0.1618
18889THY    HP252996   6.802   3.862   2.181  0.1060 -0.1312  0.7142
18889THY    HP352997   6.976   3.861   2.126 -0.2400 -0.5447 -0.1974
18889THY    HP452998   6.931   3.759   2.262  1.2546 -0.0152  1.4062
18889THY    CP352999   6.774   3.600   2.114 -0.1540  0.3951 -0.3686
18889THY    HP553000   6.820   3.547   2.198  0.1615  0.2159 -0.3865
18889THY    HP653001   6.738   3.524   2.044 -0.0946 -0.0747  0.0295
18889THY    HP753002   6.688   3.656   2.153 -0.0792 -0.7879  0.6250
18889THY    CA353003   7.102   3.603   2.104 -0.3733  0.3631  0.1543
18889THY    HA353004   7.099   3.637   2.207  0.6664  0.0641  1.1879
18889THY    CA453005   7.218   3.531   2.062  0.6915  0.6705  0.3043
18889THY    HA453006   7.305   3.509   2.123  0.4503  1.2314  0.8760
18889THY    CA553007   7.226   3.482   1.933 -0.1500  0.0948  0.2043
18889THY    CM153008   7.335   3.393   1.892 -1.0580  1.0538 -0.0096
18889THY    HM153009   7.385   3.429   1.801 -1.4770  0.2792 -1.2994
18889THY    HM253010   7.293   3.296   1.864  1.8389 -2.9719 -0.3813
18889THY    HM353011   7.413   3.377   1.967 -2.1389  2.0723 -0.6195
18889THY    CA653012   7.132   3.518   1.844  0.3705  0.2009 -0.8846
18889THY    HA653013   7.139   3.488   1.740  0.5207  0.0767 -0.4223
18890THY      O53014   3.453   7.874   6.656  0.2437 -0.2823 -0.2790
18890THY     HO53015   3.378   7.933   6.678  1.0540 -1.5627  1.3233
18890THY    CA153016   3.419   7.818   6.538  0.0610 -0.2662  0.1188
18890THY    CA253017   3.520   7.758   6.454  0.2339  0.0124  0.5086
18890THY    CP153018   3.670   7.762   6.488  0.4414  0.0355  0.7048
18890THY    HP153019   3.679   7.760   6.597  3.1914 -0.1159  1.3037
18890THY    CP253020   3.731   7.890   6.437  0.0231  0.3084 -0.4671
18890THY    HP253021   3.830   7.909   6.481  0.7904 -2.1672  2.1394
18890THY    HP353022   3.665   7.976   6.454  0.6326 -1.6683  0.4644
18890THY    HP453023   3.751   7.885   6.329  1.8893  0.4562  1.8047
18890THY    CP353024   3.751   7.636   6.445 -0.0421  0.4719 -0.3062
18890THY    HP553025   3.756   7.620   6.337 -0.1854  0.4029  0.0888
18890THY    HP653026   3.720   7.547   6.500 -1.0289 -0.6328 -0.6688
18890THY    HP753027   3.857   7.652   6.468 -0.0596  0.6114 -0.3973
18890THY    CA353028   3.480   7.710   6.327 -0.3902  0.1397 -0.4794
18890THY    HA353029   3.550   7.684   6.248  0.4419  0.7293 -0.0957
18890THY    CA453030   3.344   7.709   6.293 -0.9898  0.0210  0.0198
18890THY    HA453031   3.310   7.677   6.195 -0.4957 -0.4833  0.9840
18890THY    CA553032   3.246   7.770   6.374 -0.2968 -0.9341 -0.1452
18890THY    CM153033   3.105   7.785   6.318  0.3586  0.6125 -0.1374
18890THY    HM153034   3.088   7.706   6.244  1.7543  0.0284  0.0648
18890THY    HM253035   3.099   7.881   6.264 -0.8210 -1.0099 -1.0784
18890THY    HM353036   3.034   7.782   6.401 -2.2765 -1.5100 -3.1551
18890THY    CA653037   3.289   7.825   6.494  0.2705  0.2122  0.5545
18890THY    HA653038   3.220   7.882   6.556  0.0948 -0.7223  1.3968
18891THY      O53039   0.263   6.925   4.624  0.0626 -0.2031 -0.1626
18891THY     HO53040   0.297   6.875   4.700 -0.9804  1.3691  1.3791
18891THY    CA153041   0.375   6.964   4.562  0.4863 -0.3495 -0.5311
18891THY    CA253042   0.364   7.049   4.450  0.6680 -0.0858  0.6216
18891THY    CP153043   0.230   7.114   4.412  0.4092 -0.0885 -0.1289
18891THY    HP153044   0.167   7.129   4.501 -2.3334 -1.5507 -2.2131
18891THY    CP253045   0.144   7.020   4.324  0.0777  0.4174 -0.3304
18891THY    HP253046   0.044   7.063   4.315  0.4849  2.2130  1.1193
18891THY    HP353047   0.116   6.926   4.374  0.0815  0.9647 -0.0432
18891THY    HP453048   0.186   7.000   4.224 -0.7359 -0.6412  2.6731
18891THY    CP353049   0.245   7.249   4.352 -0.2097  0.0020 -0.2987
18891THY    HP553050   0.141   7.281   4.349 -1.8155  1.7509 -4.5963
18891THY    HP653051   0.286   7.241   4.250  1.6741  0.5104  1.7246
18891THY    HP753052   0.305   7.310   4.421 -0.1791 -0.3159  0.0383
18891THY    CA353053   0.486   7.107   4.397 -0.6180 -0.1989 -0.2965
18891THY    HA353054   0.474   7.179   4.317 -2.1555 -2.3832 -2.7652
18891THY    CA453055   0.612   7.071   4.448 -0.4253  0.2311  0.2128
18891THY    HA453056   0.698   7.121   4.405  2.4953  1.8054 -3.0435
18891THY    CA553057   0.615   6.982   4.555  0.4337  0.0888 -0.2194
18891THY    CM153058   0.746   6.937   4.614 -0.1735  0.6349  0.2801
18891THY    HM153059   0.821   7.017   4.605 -0.7907 -0.1777  0.7823
18891THY    HM253060   0.797   6.868   4.547  2.0969 -1.4731  3.6702
18891THY    HM353061   0.756   6.903   4.718  1.2646 -0.1817 -2.0431
18891THY    CA653062   0.499   6.929   4.614 -0.7914  0.5448  0.5759
18891THY    HA653063   0.499   6.863   4.700 -0.2391 -0.6556 -1.0318
18892THY      O53064   7.397   5.984   5.412 -0.0372  0.0053 -0.0527
18892THY     HO53065   7.388   6.019   5.502 -0.8603  1.1263 -2.8638
18892THY    CA153066   7.458   6.067   5.330  0.1302  0.4786 -0.7608
18892THY    CA253067   7.481   6.034   5.196 -0.4064  0.3237 -0.2024
18892THY    CP153068   7.444   5.896   5.145  0.3381  0.3161 -0.3651
18892THY    HP153069   7.359   5.855   5.201  0.5389 -0.2602 -1.6247
18892THY    CP253070   7.566   5.805   5.152 -0.4303  0.1628  0.3856
18892THY    HP253071   7.650   5.865   5.114 -1.6512 -3.4037  0.0497
18892THY    HP353072   7.560   5.706   5.106 -2.7204 -0.3320  0.7137
18892THY    HP453073   7.591   5.787   5.257  1.7468 -0.5710 -1.3862
18892THY    CP353074   7.387   5.891   4.998 -0.0246 -0.0064 -0.3003
18892THY    HP553075   7.326   5.803   4.972 -1.5516 -0.0168  0.7305
18892THY    HP653076   7.465   5.895   4.921 -0.1364 -0.1425 -0.7038
18892THY    HP753077   7.309   5.968   4.994 -0.9567  0.1158 -1.2081
18892THY    CA353078   7.544   6.127   5.112  0.2709  0.7565 -0.7628
18892THY    HA353079   7.563   6.115   5.006  1.3189  0.7536  0.6645
18892THY    CA453080   7.575   6.257   5.166 -0.3222  0.1378 -0.0151
18892THY    HA453081   7.633   6.338   5.122  0.5166  2.1774  0.5557
18892THY    CA553082   7.558   6.286   5.297  0.1945  0.0074  0.6072
18892THY    CM153083   7.616   6.416   5.353  0.4900 -0.9281  0.0404
18892THY    HM153084   7.607   6.410   5.462 -0.1039 -1.0456 -2.4018
18892THY    HM253085   7.578   6.503   5.299 -0.0311 -1.0551 -0.2596
18892THY    HM353086   7.725   6.409   5.340  0.3249 -1.8916 -1.1694
18892THY    CA653087   7.500   6.192   5.383 -0.0346 -0.1242  0.3154
18892THY    HA653088   7.474   6.226   5.483 -0.5823 -1.0995  2.9578
18893THY      O53089   1.103   0.987   5.535  0.0669 -0.2309 -0.2115
18893THY     HO53090   1.028   0.924   5.535 -0.2483  3.7866 -0.1054
18893THY    CA153091   1.031   1.103   5.520  0.0815 -0.2766 -0.1592
18893THY    CA253092   1.080   1.223   5.572  0.2939 -0.1217 -0.2150
18893THY    CP153093   1.230   1.224   5.618 -0.3517 -0.2047 -0.5715
18893THY    HP153094   1.287   1.139   5.579  1.4147  0.4977  0.2395
18893THY    CP253095   1.244   1.225   5.771  0.5866 -0.1199  0.4262
18893THY    HP253096   1.350   1.215   5.796  0.6931 -0.8368 -0.3213
18893THY    HP353097   1.186   1.143   5.816  0.6852 -0.8070 -0.0271
18893THY    HP453098   1.197   1.318   5.804 -0.3353  0.1631 -0.1155
18893THY    CP353099   1.294   1.349   5.558  0.5417  0.6889  1.1376
18893THY    HP553100   1.403   1.355   5.567  0.5735  1.9257 -0.4904
18893THY    HP653101   1.256   1.434   5.616 -0.8932  1.4994 -0.0175
18893THY    HP753102   1.255   1.361   5.456  1.9577  0.0202  0.3616
18893THY    CA353103   1.001   1.343   5.566 -0.6949  0.2253  0.7194
18893THY    HA353104   1.046   1.440   5.589 -0.6156  1.4402  0.4187
18893THY    CA453105   0.874   1.333   5.505  0.0690  0.3874  0.2649
18893THY    HA453106   0.805   1.416   5.497 -0.4142  1.9891  0.0608
18893THY    CA553107   0.820   1.211   5.457 -0.1546  0.2454 -0.7255
18893THY    CM153108   0.688   1.219   5.385 -0.4826  0.2697  0.5289
18893THY    HM153109   0.618   1.154   5.438  0.5719  1.4027  0.2905
18893THY    HM253110   0.706   1.187   5.281 -1.4680 -0.2844  1.6783
18893THY    HM353111   0.644   1.319   5.373 -0.7695  1.8739  0.6073
18893THY    CA653112   0.903   1.098   5.471  0.4993 -0.1492  0.2930
18893THY    HA653113   0.872   1.000   5.435  2.4135  0.9344 -0.7752
18894THY      O53114   1.754   8.898   3.229 -0.0372  0.1546 -0.1127
18894THY     HO53115   1.734   8.839   3.304 -0.8439 -0.5960 -0.8025
18894THY    CA153116   1.652   8.980   3.241 -0.7520  0.5352 -0.2999
18894THY    CA253117   1.666   9.111   3.195 -0.6718  0.1383 -0.0738
18894THY    CP153118   1.783   9.148   3.101 -0.5409 -0.1002 -0.3203
18894THY    HP153119   1.873   9.098   3.138 -0.1020 -1.6617 -0.7114
18894THY    CP253120   1.812   9.296   3.107 -0.0821 -0.6066  0.2439
18894THY    HP253121   1.792   9.341   3.205  2.4599 -0.0293  0.2560
18894THY    HP353122   1.761   9.347   3.024 -2.8025  0.4117 -0.6716
18894THY    HP453123   1.919   9.312   3.090 -0.2287 -1.6356  0.2272
18894THY    CP353124   1.764   9.097   2.954 -0.2120 -0.7797 -0.2748
18894THY    HP553125   1.680   9.161   2.924 -0.4141  1.7156  0.7759
18894THY    HP653126   1.731   8.993   2.951  0.2910  1.5937 -0.5748
18894THY    HP753127   1.853   9.117   2.894  1.7819  1.6892 -1.1537
18894THY    CA353128   1.554   9.197   3.201  0.0321  1.0330  0.2226
18894THY    HA353129   1.553   9.293   3.151  1.4832 -1.2620 -0.8479
18894THY    CA453130   1.439   9.163   3.276 -0.5753  0.2557 -0.2899
18894THY    HA453131   1.361   9.238   3.284  0.2924  1.5309  0.5073
18894THY    CA553132   1.432   9.038   3.339 -0.3191  0.6198 -0.7373
18894THY    CM153133   1.307   8.998   3.413 -0.1377 -0.3056  0.1605
18894THY    HM153134   1.227   8.962   3.347 -0.4628  1.4128 -2.5980
18894THY    HM253135   1.272   9.084   3.471 -1.2325  0.9542 -1.0801
18894THY    HM353136   1.329   8.926   3.493  0.7579  3.1533  3.8459
18894THY    CA653137   1.540   8.942   3.314 -0.5280 -0.3995 -0.4554
18894THY    HA653138   1.535   8.839   3.347  1.4995  0.0526 -0.4417
18895THY      O53139   1.326   6.773   5.643  0.5303  0.0026 -0.3529
18895THY     HO53140   1.367   6.709   5.704 -1.7522  0.9299 -1.0335
18895THY    CA153141   1.409   6.876   5.617 -0.7448  0.4630 -0.5322
18895THY    CA253142   1.367   6.997   5.558 -0.0241  0.0233 -0.4573
18895THY    CP153143   1.224   7.010   5.518 -0.3515 -0.7102  0.2021
18895THY    HP153144   1.163   6.922   5.537  0.7489 -0.4793 -0.5313
18895THY    CP253145   1.201   7.026   5.362 -0.2415 -0.0837 -0.3466
18895THY    HP253146   1.240   7.123   5.329  0.5947 -0.8545 -0.9283
18895THY    HP353147   1.095   7.023   5.334 -0.4002  0.5880 -1.5984
18895THY    HP453148   1.251   6.948   5.303 -0.7502 -0.7214 -0.2035
18895THY    CP353149   1.162   7.130   5.592  0.6775 -0.3071 -0.1926
18895THY    HP553150   1.052   7.128   5.597  0.6002  1.0154  2.4137
18895THY    HP653151   1.189   7.230   5.557  1.5129  0.5200 -0.1096
18895THY    HP753152   1.183   7.121   5.700 -1.2515  0.1578  0.2368
18895THY    CA353153   1.464   7.098   5.543 -0.4660  0.2907  0.4794
18895THY    HA353154   1.443   7.190   5.490  2.2544  0.0867  1.0697
18895THY    CA453155   1.593   7.080   5.593  0.0257 -0.2244  0.2818
18895THY    HA453156   1.663   7.163   5.589 -2.7834  0.7139  2.8791
18895THY    CA553157   1.628   6.963   5.659  0.4871 -0.2324  0.2856
18895THY    CM153158   1.759   6.950   5.734  0.0127 -0.8879  0.2429
18895THY    HM153159   1.798   7.052   5.740 -1.5263 -0.4280  0.8357
18895THY    HM253160   1.823   6.888   5.671 -0.6008 -1.6370  0.3668
18895THY    HM353161   1.754   6.907   5.835 -0.1550 -1.1414 -0.3458
18895THY    CA653162   1.540   6.865   5.673  0.6641  0.3853  0.1003
18895THY    HA653163   1.561   6.773   5.726  0.2428 -0.5307 -0.5344
18896THY      O53164   4.044   3.953   5.316  0.8698  0.0815  0.2216
18896THY     HO53165   4.119   3.992   5.364  2.6992 -2.6424  0.3302
18896THY    CA153166   3.990   3.861   5.394  0.0385 -0.1295 -0.5838
18896THY    CA253167   3.871   3.785   5.372  0.1490  0.2592  0.1755
18896THY    CP153168   3.771   3.822   5.254  0.0648 -0.0431  0.0730
18896THY    HP153169   3.810   3.906   5.195 -3.5701  1.0526  2.8290
18896THY    CP253170   3.650   3.888   5.320 -0.3808 -0.9969  0.7246
18896THY    HP253171   3.589   3.814   5.372 -0.1496 -0.2902  1.0231
18896THY    HP353172   3.587   3.932   5.242 -0.0502 -1.7732 -0.1492
18896THY    HP453173   3.681   3.972   5.384  1.0284 -1.4454  0.5885
18896THY    CP353174   3.721   3.705   5.166  0.3805  0.6083 -0.2393
18896THY    HP553175   3.670   3.627   5.224  1.9700  0.6306 -1.3118
18896THY    HP653176   3.806   3.666   5.109  1.4047  1.6124  0.4618
18896THY    HP753177   3.648   3.748   5.097  1.4210 -0.0888  0.4623
18896THY    CA353178   3.837   3.682   5.460 -0.6450 -0.4739 -0.1784
18896THY    HA353179   3.739   3.638   5.451 -0.5348 -0.1612 -0.4927
18896THY    CA453180   3.915   3.661   5.568 -0.2204 -0.6389  0.3426
18896THY    HA453181   3.892   3.587   5.645 -1.0900  0.9815  2.1913
18896THY    CA553182   4.030   3.737   5.593  0.2638  0.0969 -0.5770
18896THY    CM153183   4.108   3.719   5.721 -0.1239  0.2038 -0.2179
18896THY    HM153184   4.134   3.614   5.740  0.1889 -0.1667 -0.2102
18896THY    HM253185   4.051   3.760   5.805 -0.3952 -0.4321  0.7388
18896THY    HM353186   4.201   3.776   5.714 -0.9616 -0.9654  1.0732
18896THY    CA653187   4.072   3.832   5.504  0.2484 -0.2272 -0.4600
18896THY    HA653188   4.161   3.890   5.528  0.2027 -1.9455  0.3740
18897THY      O53189   2.452   7.437   3.642  0.6129 -0.0864 -0.3962
18897THY     HO53190   2.390   7.457   3.570  0.1227  0.8117  1.5959
18897THY    CA153191   2.469   7.551   3.716 -0.3458 -0.6391 -0.7031
18897THY    CA253192   2.563   7.556   3.821  0.7944 -0.3469 -0.1044
18897THY    CP153193   2.653   7.435   3.854  0.1704 -0.3046  0.5031
18897THY    HP153194   2.633   7.361   3.777 -1.3141  0.4194  0.1199
18897THY    CP253195   2.639   7.383   3.999 -0.2181  0.2074  0.1976
18897THY    HP253196   2.536   7.359   4.028  0.6994  2.4390 -1.3236
18897THY    HP353197   2.687   7.453   4.068 -1.9497 -0.5525  2.2417
18897THY    HP453198   2.694   7.289   4.012 -1.1759 -0.7721 -0.5270
18897THY    CP353199   2.798   7.467   3.825  0.3576  0.0298  0.4230
18897THY    HP553200   2.862   7.379   3.837 -2.3486  0.3615 -1.6423
18897THY    HP653201   2.835   7.555   3.879 -3.7213 -0.6614  2.7836
18897THY    HP753202   2.804   7.496   3.720  0.1181 -0.3389 -0.7838
18897THY    CA353203   2.561   7.670   3.910  0.0590  0.1909  0.6064
18897THY    HA353204   2.632   7.687   3.990  0.6473  0.0449 -1.0213
18897THY    CA453205   2.471   7.776   3.887  0.2263 -0.0850 -0.0905
18897THY    HA453206   2.474   7.862   3.953  0.6244  1.4631 -1.2434
18897THY    CA553207   2.380   7.777   3.785  0.1505  0.5226  0.3739
18897THY    CM153208   2.268   7.876   3.769 -0.6303  0.0267  0.4680
18897THY    HM153209   2.231   7.894   3.871  1.5180  0.6438  1.7715
18897THY    HM253210   2.179   7.836   3.720 -0.4186  2.0191 -2.8289
18897THY    HM353211   2.308   7.967   3.723  1.9004  1.1879  0.0303
18897THY    CA653212   2.377   7.660   3.700 -0.4504 -0.4528 -0.5111
18897THY    HA653213   2.303   7.646   3.622  0.2002 -0.9476 -1.2625
18898THY      O53214   4.316   2.718   5.216 -0.1578 -0.6562 -0.2655
18898THY     HO53215   4.231   2.702   5.260 -1.0640 -2.4140 -0.4838
18898THY    CA153216   4.337   2.604   5.142 -0.0009  0.1032  0.1706
18898THY    CA253217   4.456   2.537   5.129 -0.7000 -0.6393 -0.2259
18898THY    CP153218   4.589   2.603   5.181 -0.1795  0.1290  0.0573
18898THY    HP153219   4.560   2.704   5.212 -2.7518 -0.1628 -0.5483
18898THY    CP253220   4.695   2.607   5.063 -0.0144 -0.1020  0.6007
18898THY    HP253221   4.723   2.503   5.042 -2.0186  1.6442 -0.3865
18898THY    HP353222   4.778   2.669   5.098  0.7963 -1.1939  0.1418
18898THY    HP453223   4.639   2.652   4.981 -2.0958  1.9337  1.9907
18898THY    CP353224   4.647   2.535   5.310  0.3133  0.0411 -0.8023
18898THY    HP553225   4.670   2.431   5.286 -1.7108 -1.9658 -0.8596
18898THY    HP653226   4.584   2.528   5.399 -1.2062 -0.8767  0.5677
18898THY    HP753227   4.738   2.589   5.340 -1.4771  0.0118  2.4896
18898THY    CA353228   4.455   2.406   5.070 -0.1468  0.1511 -0.6748
18898THY    HA353229   4.544   2.349   5.044 -0.3414  1.8291 -1.8514
18898THY    CA453230   4.338   2.350   5.024 -0.0636 -0.1295  0.5870
18898THY    HA453231   4.331   2.262   4.960 -0.7602 -2.1667  2.0504
18898THY    CA553232   4.220   2.421   5.039  0.1256  0.0285  0.9931
18898THY    CM153233   4.088   2.373   4.986  0.2992 -0.5536  0.5481
18898THY    HM153234   4.096   2.369   4.877  1.0913 -0.4866 -0.0424
18898THY    HM253235   4.002   2.439   5.003  0.0348  0.7067 -0.0934
18898THY    HM353236   4.071   2.272   5.024 -2.1482  0.2012  1.1783
18898THY    CA653237   4.220   2.546   5.100  0.4906  0.1074 -0.5136
18898THY    HA653238   4.123   2.591   5.121  0.6723  0.9112 -0.4786
18899THY      O53239   0.462   3.785   5.145 -0.5185  0.4132 -0.6320
18899THY     HO53240   0.400   3.790   5.070  1.9197 -1.7866 -1.1143
18899THY    CA153241   0.498   3.649   5.153 -0.5376 -0.0622 -0.2787
18899THY    CA253242   0.533   3.583   5.274 -0.4066 -1.0833 -0.0360
18899THY    CP153243   0.560   3.668   5.400  0.1657  0.5317 -0.0448
18899THY    HP153244   0.582   3.769   5.362  3.7015  0.3993 -0.7456
18899THY    CP253245   0.678   3.617   5.478 -0.0496 -0.2977  0.5556
18899THY    HP253246   0.644   3.536   5.544 -1.7335  0.4461  1.8019
18899THY    HP353247   0.737   3.694   5.529 -0.3049  0.6387  0.1495
18899THY    HP453248   0.752   3.582   5.405  1.9993  1.7714  0.3540
18899THY    CP353249   0.441   3.682   5.494 -0.1787 -0.4161  0.0488
18899THY    HP553250   0.375   3.762   5.460 -0.2620  0.3002  0.2897
18899THY    HP653251   0.472   3.740   5.581  2.5071 -1.3042  0.1083
18899THY    HP753252   0.388   3.591   5.524  0.0064  0.2805  0.1639
18899THY    CA353253   0.552   3.443   5.283 -0.6660  0.3081 -0.3542
18899THY    HA353254   0.574   3.391   5.376 -0.4116  0.3114 -0.2423
18899THY    CA453255   0.555   3.366   5.162 -0.1988 -0.0987  0.0418
18899THY    HA453256   0.585   3.261   5.168  0.5194 -1.3882  0.1543
18899THY    CA553257   0.538   3.439   5.038 -0.1849 -0.8444  0.5899
18899THY    CM153258   0.544   3.363   4.913  0.5543  0.6678  0.1106
18899THY    HM153259   0.470   3.282   4.914  2.3006 -1.8365 -1.6676
18899THY    HM253260   0.644   3.320   4.902  0.4508  0.7924 -0.1654
18899THY    HM353261   0.516   3.430   4.830  1.5459 -1.6457 -2.1602
18899THY    CA653262   0.503   3.573   5.038 -0.1300 -0.3458  0.1597
18899THY    HA653263   0.481   3.620   4.942 -0.7618 -0.1359  0.3030
18900THY      O53264   3.169   6.504   3.941 -0.2057  0.6407 -0.1419
18900THY     HO53265   3.164   6.542   3.852 -0.7621 -0.2036 -2.0993
18900THY    CA153266   3.282   6.425   3.931 -0.2195  0.1475 -0.0082
18900THY    CA253267   3.309   6.336   4.034  0.0710  0.1736 -0.7299
18900THY    CP153268   3.221   6.335   4.159  0.4021  0.1623  0.3515
18900THY    HP153269   3.183   6.437   4.171 -1.4232 -0.3375 -0.2320
18900THY    CP253270   3.290   6.294   4.287 -0.0011 -0.2811  0.0527
18900THY    HP253271   3.396   6.319   4.293  0.6451  0.2415 -2.5360
18900THY    HP353272   3.298   6.184   4.284  0.5780 -0.7531  0.0976
18900THY    HP453273   3.231   6.320   4.375 -0.6042 -0.6662  0.0234
18900THY    CP353274   3.095   6.239   4.152  0.5220  0.6185 -0.0124
18900THY    HP553275   3.131   6.137   4.133 -2.4124 -1.6398 -0.7745
18900THY    HP653276   3.021   6.275   4.079 -0.0034  1.4057  0.5499
18900THY    HP753277   3.042   6.239   4.247 -0.7006 -0.0075  1.6730
18900THY    CA353278   3.404   6.241   4.014 -0.3776 -0.2983  0.0495
18900THY    HA353279   3.413   6.167   4.093 -2.1237 -1.5302 -1.5559
18900THY    CA453280   3.475   6.229   3.891  0.2540 -0.5508 -0.0499
18900THY    HA453281   3.543   6.146   3.872  1.1330 -0.1555  0.5530
18900THY    CA553282   3.441   6.314   3.790 -0.5475  0.4892  0.2305
18900THY    CM153283   3.493   6.290   3.648  0.0534 -0.2131 -0.0119
18900THY    HM153284   3.470   6.186   3.621  0.5828  3.4528 -1.2211
18900THY    HM253285   3.600   6.310   3.637 -0.4972 -2.2463  2.2891
18900THY    HM353286   3.450   6.349   3.567 -0.2396  0.4635  0.7188
18900THY    CA653287   3.350   6.424   3.813  0.3498  0.1253  0.6105
18900THY    HA653288   3.326   6.493   3.732  0.1317 -0.3604 -0.0200
18901THY      O53289   1.981   6.297   6.735 -0.1239  0.4128 -0.4386
18901THY     HO53290   1.975   6.290   6.639  1.6652  0.2547 -0.1685
18901THY    CA153291   1.917   6.409   6.773 -0.0432 -0.3404 -0.4124
18901THY    CA253292   1.941   6.470   6.898  0.7309 -0.5535  0.2766
18901THY    CP153293   2.042   6.413   6.997  0.1828  0.6222 -0.4565
18901THY    HP153294   2.066   6.311   6.965 -0.5493 -1.4703 -0.0194
18901THY    CP253295   1.980   6.399   7.137 -0.1098 -0.0558 -0.1401
18901THY    HP253296   1.902   6.324   7.121 -1.3877  1.4190  0.8226
18901THY    HP353297   1.924   6.488   7.166  0.5731  0.1247  0.2376
18901THY    HP453298   2.044   6.361   7.218 -0.4781  0.3119  0.0156
18901THY    CP353299   2.174   6.487   6.993 -0.2157  0.2224 -0.0335
18901THY    HP553300   2.209   6.502   6.890 -1.2023 -0.2139 -0.5821
18901THY    HP653301   2.247   6.417   7.034  0.2857  1.6731  1.3160
18901THY    HP753302   2.171   6.584   7.043  0.4591 -2.0258  1.2230
18901THY    CA353303   1.885   6.596   6.921 -0.9463  0.1371 -0.1492
18901THY    HA353304   1.900   6.654   7.011 -1.7304 -0.7026  1.3987
18901THY    CA453305   1.805   6.656   6.813 -0.1310 -0.9464 -0.4233
18901THY    HA453306   1.769   6.758   6.827  1.9239 -1.2272  0.3982
18901THY    CA553307   1.784   6.591   6.689  0.1352 -0.2001 -0.0943
18901THY    CM153308   1.698   6.646   6.586 -0.5837  0.2850 -0.5107
18901THY    HM153309   1.697   6.754   6.607  0.3522  1.0525 -0.6451
18901THY    HM253310   1.593   6.615   6.588 -2.0602 -1.2891  3.6723
18901THY    HM353311   1.731   6.622   6.484  0.6332  0.7948 -1.0734
18901THY    CA653312   1.839   6.471   6.675  0.3183  0.6395 -0.1963
18901THY    HA653313   1.827   6.402   6.592  0.4484  1.7339 -1.5837
18902THY      O53314   1.118   3.849   7.655  0.3479  0.0948  0.1418
18902THY     HO53315   1.045   3.865   7.592  1.2240 -0.7927  0.7858
18902THY    CA153316   1.094   3.934   7.757 -0.0556 -0.8706 -0.0597
18902THY    CA253317   1.183   3.974   7.854 -0.1242  0.6585  0.0414
18902THY    CP153318   1.328   3.930   7.842 -0.7565  0.1463 -0.1395
18902THY    HP153319   1.343   3.870   7.751  2.5235  0.4821 -0.0462
18902THY    CP253320   1.368   3.845   7.965 -0.1321  0.1723 -0.1602
18902THY    HP253321   1.462   3.789   7.956  0.0286  0.7386  0.0071
18902THY    HP353322   1.288   3.775   7.992  0.6252 -0.2387 -1.2175
18902THY    HP453323   1.387   3.909   8.052  0.1434  1.4879 -1.9187
18902THY    CP353324   1.421   4.053   7.829  0.3640  0.1326  0.0791
18902THY    HP553325   1.391   4.099   7.734 -0.1507 -0.7556 -1.9812
18902THY    HP653326   1.526   4.028   7.844  0.1078  0.6541 -0.7113
18902THY    HP753327   1.404   4.127   7.909 -0.9736  0.2100 -0.2805
18902THY    CA353328   1.142   4.054   7.965  0.6068  1.1910  0.3753
18902THY    HA353329   1.209   4.091   8.043  2.0868 -0.3809  1.1612
18902THY    CA453330   1.004   4.085   7.974 -0.3470 -0.0966  0.3943
18902THY    HA453331   0.950   4.136   8.053 -3.5500  0.8630 -3.9152
18902THY    CA553332   0.919   4.056   7.867 -0.1930  0.1270  0.3805
18902THY    CM153333   0.783   4.117   7.869  0.2598  0.2102 -0.5324
18902THY    HM153334   0.754   4.125   7.764  0.0639  0.1993 -1.3531
18902THY    HM253335   0.781   4.217   7.914 -2.7625 -0.0395 -0.3900
18902THY    HM353336   0.711   4.052   7.920 -0.2677 -0.1190 -0.2128
18902THY    CA653337   0.965   3.984   7.762  0.3153  0.5108  0.3298
18902THY    HA653338   0.897   3.958   7.681 -0.6679  1.4523 -0.1230
18903THY      O53339   1.770   4.296   5.805  0.5432  0.3579 -0.3608
18903THY     HO53340   1.725   4.342   5.878  1.8272  0.5550  0.6385
18903THY    CA153341   1.889   4.262   5.849 -0.1261  0.3876 -0.3929
18903THY    CA253342   1.994   4.218   5.766  0.9921  0.1610  0.0522
18903THY    CP153343   1.966   4.183   5.628 -0.6682  1.0096  0.5057
18903THY    HP153344   1.872   4.222   5.585  0.2745 -2.1441 -0.3880
18903THY    CP253345   1.962   4.026   5.611 -0.3098  0.5344 -0.6875
18903THY    HP253346   2.053   3.979   5.650 -0.3190 -0.7300 -1.8148
18903THY    HP353347   1.956   4.008   5.504 -0.2104  0.1559  1.2840
18903THY    HP453348   1.877   3.992   5.672  1.3004  2.9544 -0.6223
18903THY    CP353349   2.073   4.237   5.527  0.4673 -0.2743 -0.0805
18903THY    HP553350   2.080   4.346   5.537 -0.0981 -2.6946  0.2278
18903THY    HP653351   2.053   4.209   5.423 -1.3969  0.0513 -0.0742
18903THY    HP753352   2.176   4.202   5.545  0.4356  2.6142  1.0348
18903THY    CA353353   2.128   4.208   5.817 -0.1226  0.7932 -0.0063
18903THY    HA353354   2.206   4.172   5.751  0.3941  0.8410  0.9978
18903THY    CA453355   2.154   4.239   5.949 -0.1086  0.2515  0.2004
18903THY    HA453356   2.254   4.233   5.991  0.3309 -0.5752  1.5176
18903THY    CA553357   2.052   4.285   6.025  0.2935  0.8081  0.2270
18903THY    CM153358   2.076   4.339   6.157 -0.1307 -0.4937 -0.0702
18903THY    HM153359   1.985   4.355   6.216  0.7653  0.5237  1.5105
18903THY    HM253360   2.133   4.432   6.149  2.6670  0.6593 -1.5384
18903THY    HM353361   2.146   4.275   6.214 -0.1390  0.6423  0.9068
18903THY    CA653362   1.918   4.285   5.978 -0.5070  0.1407 -0.1721
18903THY    HA653363   1.845   4.333   6.042  1.4753  1.2846  1.4338
18904THY      O53364   3.366   7.944   7.019 -0.2777  0.0410  0.8244
18904THY     HO53365   3.438   7.909   6.965 -1.0209 -1.8690  2.0960
18904THY    CA153366   3.381   7.916   7.152  0.0159 -0.1553  0.4109
18904THY    CA253367   3.272   7.925   7.244 -0.5198  0.4614 -0.2776
18904THY    CP153368   3.133   7.977   7.196 -0.6224  0.7692 -0.5581
18904THY    HP153369   3.117   8.002   7.091 -0.6397  0.6836 -0.9306
18904THY    CP253370   3.091   8.103   7.258  0.2987 -0.2684 -0.7935
18904THY    HP253371   2.990   8.130   7.226  0.3926  0.7978  0.9537
18904THY    HP353372   3.157   8.184   7.221  0.1875 -1.1457 -1.0889
18904THY    HP453373   3.082   8.094   7.366 -1.2594 -0.3659 -0.6636
18904THY    CP353374   3.034   7.867   7.218 -0.0077  0.1765 -0.2334
18904THY    HP553375   3.074   7.786   7.156 -0.5022  0.9765 -1.1057
18904THY    HP653376   2.945   7.900   7.164  1.3530 -2.6919 -0.9208
18904THY    HP753377   3.023   7.833   7.322  0.0432  0.8870  1.7996
18904THY    CA353378   3.283   7.882   7.376 -0.0272 -0.4453 -0.0479
18904THY    HA353379   3.208   7.889   7.454 -0.3891 -0.8808  1.2574
18904THY    CA453380   3.414   7.838   7.419  0.1259  0.8019 -0.6904
18904THY    HA453381   3.443   7.821   7.522  0.4951  1.1293  1.6376
18904THY    CA553382   3.523   7.845   7.331  0.3063  0.1037 -0.1058
18904THY    CM153383   3.661   7.837   7.389 -0.1393 -0.0439 -0.4267
18904THY    HM153384   3.734   7.823   7.308  0.7902  0.6806  0.1236
18904THY    HM253385   3.667   7.748   7.453 -1.1177  3.3090  1.7469
18904THY    HM353386   3.693   7.921   7.451  2.8289 -0.0010 -1.4839
18904THY    CA653387   3.510   7.887   7.193  0.0840 -0.8336 -0.0757
18904THY    HA653388   3.599   7.891   7.131  0.4333 -0.4616 -1.4854
18905THY      O53389   0.464   0.488   5.865 -0.2242  0.6335 -0.4795
18905THY     HO53390   0.399   0.433   5.818 -1.6301 -1.5297  2.7249
18905THY    CA153391   0.544   0.539   5.760 -0.3445  0.3292 -0.5774
18905THY    CA253392   0.678   0.565   5.783 -0.3861  0.2436 -0.2573
18905THY    CP153393   0.737   0.548   5.923  0.3537  0.4276  0.1920
18905THY    HP153394   0.656   0.548   5.997 -0.3189 -0.2544  2.3884
18905THY    CP253395   0.839   0.661   5.972 -0.7615 -0.6286  0.1069
18905THY    HP253396   0.915   0.680   5.895 -0.2644  0.1207  1.2258
18905THY    HP353397   0.895   0.614   6.053 -0.0687 -1.8520 -1.2419
18905THY    HP453398   0.783   0.748   6.009  0.4661 -0.4436  0.8376
18905THY    CP353399   0.803   0.403   5.923  0.0560  0.7933  0.4339
18905THY    HP553400   0.735   0.330   5.877  2.0149 -1.2895 -0.1967
18905THY    HP653401   0.845   0.373   6.020  0.9630  0.2784  0.0145
18905THY    HP753402   0.879   0.398   5.845 -0.5519  0.2311 -0.3989
18905THY    CA353403   0.767   0.589   5.684  0.2951  0.3664 -0.4625
18905THY    HA353404   0.871   0.610   5.706  0.0205  0.9495  0.3163
18905THY    CA453405   0.714   0.605   5.557  0.1555  1.0214  0.2862
18905THY    HA453406   0.774   0.636   5.472 -0.7723  0.9326  1.9572
18905THY    CA553407   0.579   0.573   5.526 -0.9004  0.7477  0.0274
18905THY    CM153408   0.529   0.567   5.381 -0.1131  0.1634  0.4996
18905THY    HM153409   0.446   0.637   5.369  0.0123 -1.3815  0.4063
18905THY    HM253410   0.484   0.468   5.363 -2.9146  1.2911  1.4506
18905THY    HM353411   0.612   0.579   5.311 -0.6755 -0.8359 -1.1490
18905THY    CA653412   0.495   0.537   5.630 -0.9558  0.7188 -0.3389
18905THY    HA653413   0.392   0.513   5.604 -0.5114 -2.7243  0.8884
18906THY      O53414   5.245   9.378   5.384  0.3364  0.4032 -0.4339
18906THY     HO53415   5.304   9.456   5.385  0.1067 -2.2892 -0.1056
18906THY    CA153416   5.273   9.313   5.271 -0.0374 -0.8656  0.9534
18906THY    CA253417   5.217   9.186   5.243 -0.0001 -0.0562 -0.2385
18906THY    CP153418   5.133   9.109   5.346 -0.1406 -0.1674  0.3111
18906THY    HP153419   5.187   9.132   5.439  0.5864 -1.1320  2.8992
18906THY    CP253420   5.121   8.953   5.328  0.3189 -0.2200 -0.9095
18906THY    HP253421   5.220   8.910   5.347  1.6940 -0.8300  1.8044
18906THY    HP353422   5.086   8.927   5.227  1.1115 -1.4348  2.2637
18906THY    HP453423   5.054   8.906   5.401  1.4995  1.3352 -0.2729
18906THY    CP353424   4.991   9.165   5.353 -0.0864  0.0506  0.4566
18906THY    HP553425   4.919   9.095   5.396 -2.2738 -0.2482  2.4234
18906THY    HP653426   4.948   9.187   5.254  0.3941 -0.5469 -1.1840
18906THY    HP753427   4.997   9.261   5.405  0.6580 -2.1182  1.6610
18906THY    CA353428   5.232   9.137   5.114  0.4454  0.3591 -0.7163
18906THY    HA353429   5.200   9.037   5.087  1.5905 -1.9517 -0.5274
18906THY    CA453430   5.312   9.206   5.023  0.0142  0.6158  0.7869
18906THY    HA453431   5.323   9.167   4.923  3.0216  0.8400  0.7999
18906THY    CA553432   5.358   9.331   5.056  0.0342  0.0450  0.2232
18906THY    CM153433   5.415   9.418   4.950  0.1198 -1.2098  0.2208
18906THY    HM153434   5.341   9.487   4.909  2.4790 -3.5944  1.4887
18906THY    HM253435   5.468   9.354   4.879  1.2556  2.2305 -3.0549
18906THY    HM353436   5.496   9.482   4.987 -0.1378 -0.2732  0.0312
18906THY    CA653437   5.335   9.388   5.177  0.2941 -0.7262 -0.3578
18906THY    HA653438   5.358   9.493   5.189  1.9348 -1.4944 -0.5903
18907THY      O53439   0.660   8.596   3.000 -0.1428 -0.3429 -0.2499
18907THY     HO53440   0.710   8.607   2.918  1.4743  0.8184  1.8081
18907THY    CA153441   0.684   8.462   3.027 -0.2375  0.2979 -0.0206
18907THY    CA253442   0.643   8.366   2.940  0.1913  0.4530  0.5368
18907THY    CP153443   0.561   8.399   2.809 -0.6570 -0.6060 -0.1089
18907THY    HP153444   0.547   8.506   2.790  2.5215 -0.8164  0.3776
18907THY    CP253445   0.412   8.358   2.818 -0.4815  0.6419 -0.0988
18907THY    HP253446   0.378   8.385   2.919  1.7088  1.8851 -1.7002
18907THY    HP353447   0.398   8.250   2.808 -0.4742 -0.4137 -0.0094
18907THY    HP453448   0.361   8.423   2.747 -1.9392  1.7481  0.0244
18907THY    CP353449   0.639   8.352   2.688 -0.4257 -0.3166  0.5593
18907THY    HP553450   0.659   8.245   2.675  1.3841  0.7823  0.7189
18907THY    HP653451   0.734   8.407   2.686 -1.1535 -0.5276  1.8458
18907THY    HP753452   0.596   8.405   2.601  1.5201 -1.4875  0.3036
18907THY    CA353453   0.674   8.227   2.966 -0.1894  0.4991  0.2147
18907THY    HA353454   0.669   8.148   2.891  3.3092 -1.5089  1.6855
18907THY    CA453455   0.742   8.197   3.083 -0.1363 -0.2749  0.1661
18907THY    HA453456   0.776   8.095   3.097  0.7541 -0.3230  0.4420
18907THY    CA553457   0.764   8.295   3.181 -0.1708 -0.4480  0.6853
18907THY    CM153458   0.820   8.253   3.311 -0.6975  0.2904 -0.3694
18907THY    HM153459   0.775   8.155   3.333  0.5309 -1.6801 -1.4370
18907THY    HM253460   0.785   8.324   3.387 -0.3484 -0.1261  0.2574
18907THY    HM353461   0.929   8.254   3.311 -0.7028  0.0713  0.4998
18907THY    CA653462   0.739   8.427   3.150 -0.0502  0.4814  0.5586
18907THY    HA653463   0.745   8.505   3.226 -0.9179 -0.1629  1.2731
18908THY      O53464   2.903   2.303   5.118  0.0025  0.0687  0.5989
18908THY     HO53465   2.895   2.334   5.026  1.3115 -0.2051  0.1777
18908THY    CA153466   3.005   2.370   5.181 -0.3122  0.9416  0.5969
18908THY    CA253467   3.032   2.367   5.319  0.1090 -0.6004  0.2633
18908THY    CP153468   2.943   2.282   5.403  0.0232 -0.3697  0.4730
18908THY    HP153469   2.847   2.304   5.354  0.7808 -2.7347 -1.1506
18908THY    CP253470   2.933   2.320   5.555 -0.0658  0.4885 -0.2539
18908THY    HP253471   2.855   2.254   5.596  1.6878  2.8675 -0.9943
18908THY    HP353472   2.910   2.424   5.580  0.9115 -0.0201  0.0955
18908THY    HP453473   3.026   2.293   5.607  0.5014  0.2283  1.1317
18908THY    CP353474   2.963   2.131   5.396 -0.6771  0.6345  0.1658
18908THY    HP553475   2.926   2.090   5.301 -1.2897  0.8332  0.2539
18908THY    HP653476   2.933   2.078   5.487 -2.8514  0.0767  0.3347
18908THY    HP753477   3.072   2.119   5.397 -0.7672 -0.9765 -1.1773
18908THY    CA353478   3.138   2.443   5.372  0.0650  0.4889 -0.6959
18908THY    HA353479   3.150   2.444   5.480 -2.8467  0.8953  0.8378
18908THY    CA453480   3.223   2.513   5.286  0.4590 -0.3083 -0.1566
18908THY    HA453481   3.307   2.568   5.327  0.3637  2.1220 -1.6383
18908THY    CA553482   3.204   2.514   5.152  0.6545  0.2226  0.6150
18908THY    CM153483   3.289   2.599   5.060 -0.5326 -0.4341  0.6947
18908THY    HM153484   3.325   2.689   5.111 -0.7657  2.1813 -0.6149
18908THY    HM253485   3.231   2.629   4.972 -0.5270 -2.3027 -3.8690
18908THY    HM353486   3.375   2.543   5.022 -1.2358 -3.6471  1.5917
18908THY    CA653487   3.088   2.447   5.101 -0.5976  0.6172 -0.0655
18908THY    HA653488   3.063   2.453   4.995 -0.4742  0.5918 -0.0057
18909THY      O53489   8.732   1.560   5.442  0.2528  0.5864 -0.3659
18909THY     HO53490   8.643   1.529   5.419 -0.3091  0.1430  1.4861
18909THY    CA153491   8.737   1.677   5.386 -0.4460 -0.0526 -0.0882
18909THY    CA253492   8.829   1.777   5.416 -0.3032 -1.5470  0.2642
18909THY    CP153493   8.938   1.757   5.517  0.2219  0.8168 -0.6159
18909THY    HP153494   8.954   1.649   5.529 -0.1246  1.9612 -0.5601
18909THY    CP253495   8.902   1.809   5.653 -0.6554 -0.0677 -0.4155
18909THY    HP253496   8.992   1.823   5.714 -1.5640  1.1757  0.1646
18909THY    HP353497   8.838   1.741   5.711 -0.8338  2.3278  1.6672
18909THY    HP453498   8.867   1.912   5.648 -0.2763 -0.7061 -0.3124
18909THY    CP353499   9.066   1.826   5.462 -0.1315  0.0991  0.2577
18909THY    HP553500   9.099   1.916   5.516 -1.0770  1.1012  0.0281
18909THY    HP653501   9.069   1.841   5.354  0.9064 -0.0181 -0.6554
18909THY    HP753502   9.139   1.746   5.481  0.1538 -2.8117 -0.2781
18909THY    CA353503   8.810   1.901   5.354  0.3876  0.0969 -0.1661
18909THY    HA353504   8.864   1.991   5.384  0.1485  0.8053 -0.2553
18909THY    CA453505   8.719   1.918   5.248 -0.2741 -0.1869 -0.2471
18909THY    HA453506   8.707   2.019   5.209 -0.3296 -1.2970 -0.6728
18909THY    CA553507   8.640   1.811   5.208  0.3938 -0.4419 -0.5281
18909THY    CM153508   8.521   1.824   5.108 -0.4094  0.4563 -0.7632
18909THY    HM153509   8.473   1.914   5.149  1.5472  0.2451  0.4468
18909THY    HM253510   8.445   1.745   5.113 -1.7870  0.5201  0.5112
18909THY    HM353511   8.538   1.848   5.003  0.3589  0.8872  0.7186
18909THY    CA653512   8.653   1.691   5.277 -0.1347 -0.0577  0.5837
18909THY    HA653513   8.584   1.612   5.249 -0.0635 -1.0152  0.8408
18910THY      O53514   1.325   5.602   7.477 -0.5522  0.5309  0.2834
18910THY     HO53515   1.289   5.522   7.435  0.1294  2.2794 -1.0232
18910THY    CA153516   1.241   5.628   7.574  0.5466 -0.9623  0.2227
18910THY    CA253517   1.258   5.744   7.648 -0.5405  0.1831 -0.2853
18910THY    CP153518   1.371   5.835   7.614  0.0742 -0.6138 -0.3551
18910THY    HP153519   1.454   5.767   7.593 -0.0989  0.4573 -0.9138
18910THY    CP253520   1.432   5.914   7.730  0.5069 -0.3331 -0.4028
18910THY    HP253521   1.375   6.003   7.759  1.4005 -0.3001  0.1722
18910THY    HP353522   1.534   5.954   7.719  0.8728  1.8196 -0.6025
18910THY    HP453523   1.436   5.843   7.814  0.2589 -0.6389 -0.7843
18910THY    CP353524   1.331   5.935   7.511 -0.2948 -0.1954 -0.1834
18910THY    HP553525   1.412   6.004   7.488  1.0380  0.8233 -1.3532
18910THY    HP653526   1.249   5.995   7.553  2.7170  1.2893  3.2087
18910THY    HP753527   1.303   5.887   7.416  0.4194  0.5679 -2.2307
18910THY    CA353528   1.159   5.769   7.741 -0.0315 -0.7978 -0.2997
18910THY    HA353529   1.165   5.852   7.812 -0.5952  0.6945 -1.4816
18910THY    CA453530   1.053   5.678   7.770  1.0500  0.4400 -0.6927
18910THY    HA453531   0.995   5.694   7.860 -0.5304 -0.8274  1.1827
18910THY    CA553532   1.050   5.559   7.705  0.2081  0.0522 -0.1026
18910THY    CM153533   0.931   5.476   7.728 -1.1452 -0.4435  0.2246
18910THY    HM153534   0.906   5.492   7.834 -0.5661 -0.1694 -0.6406
18910THY    HM253535   0.948   5.371   7.704  2.0172 -1.6621  0.8995
18910THY    HM353536   0.849   5.518   7.669 -2.9210  1.2598 -0.7245
18910THY    CA653537   1.132   5.540   7.594 -0.0569 -0.0809 -0.2664
18910THY    HA653538   1.129   5.440   7.552  0.9933 -1.0990  0.1075
18911THY      O53539   5.035   3.094   7.470  0.2480  0.2269 -0.0683
18911THY     HO53540   5.108   3.133   7.420  0.3651  1.1322  0.9224
18911THY    CA153541   5.003   2.987   7.399 -0.1274  0.5269 -0.0320
18911THY    CA253542   4.872   2.928   7.424 -0.2800  0.3355 -0.0001
18911THY    CP153543   4.776   2.969   7.537 -0.7415 -0.4457  0.6411
18911THY    HP153544   4.827   3.034   7.609  0.3047 -1.4518  0.9754
18911THY    CP253545   4.736   2.853   7.625  0.2833  0.4696 -0.5249
18911THY    HP253546   4.669   2.888   7.706 -0.2364 -0.2992  0.3171
18911THY    HP353547   4.829   2.805   7.655  1.2498  0.2077  1.1291
18911THY    HP453548   4.680   2.781   7.565 -0.2754  2.4009 -1.8028
18911THY    CP353549   4.660   3.045   7.473 -0.5639  0.2743  0.2088
18911THY    HP553550   4.616   2.998   7.384 -2.2996 -0.0415  2.2488
18911THY    HP653551   4.696   3.146   7.448  0.8034  0.7493 -0.1328
18911THY    HP753552   4.576   3.057   7.542 -1.2554 -0.7211  1.4547
18911THY    CA353553   4.835   2.831   7.329  0.1145  0.1047 -0.2000
18911THY    HA353554   4.740   2.777   7.336  0.2596 -0.8140 -0.5924
18911THY    CA453555   4.914   2.787   7.222 -0.6126  0.5707 -0.4077
18911THY    HA453556   4.876   2.709   7.156 -0.5430  0.7431 -0.5875
18911THY    CA553557   5.040   2.843   7.207 -0.7291  0.0579 -0.6340
18911THY    CM153558   5.127   2.826   7.086 -0.2173  0.0914 -0.2180
18911THY    HM153559   5.219   2.772   7.112  1.9525 -1.6973  2.3204
18911THY    HM253560   5.164   2.925   7.057  1.1895 -0.5221 -0.8935
18911THY    HM353561   5.076   2.775   7.003  0.3613 -0.1001 -0.4941
18911THY    CA653562   5.083   2.940   7.294  0.1071  0.2201 -0.2758
18911THY    HA653563   5.181   2.980   7.269  1.5066 -0.3283 -3.6664
18912THY      O53564   4.074   0.853   3.788 -0.1551 -0.1276  0.5679
18912THY     HO53565   4.078   0.862   3.691 -0.6707 -0.2352 -0.2614
18912THY    CA153566   3.936   0.879   3.805  0.1090  0.0254 -0.4951
18912THY    CA253567   3.867   0.852   3.928 -0.4218  0.8049  0.5168
18912THY    CP153568   3.944   0.777   4.030  0.2100  0.0252 -0.4435
18912THY    HP153569   4.049   0.773   4.000 -0.6002 -3.1465 -0.3292
18912THY    CP253570   3.904   0.633   4.033  0.3296  0.7787  0.3752
18912THY    HP253571   3.981   0.571   4.082 -0.5938  0.6168 -0.9446
18912THY    HP353572   3.899   0.598   3.929  2.6409  1.0354 -0.9662
18912THY    HP453573   3.812   0.608   4.087  0.6121  0.7029 -0.9180
18912THY    CP353574   3.933   0.830   4.170  0.3128  0.2058  0.1368
18912THY    HP553575   3.981   0.770   4.249  0.4591  0.5749  0.7304
18912THY    HP653576   3.828   0.837   4.201  0.3615  1.3693 -2.8867
18912THY    HP753577   3.984   0.927   4.171  1.9298 -1.9436 -0.6166
18912THY    CA353578   3.744   0.904   3.943  0.5245  0.2866 -0.5401
18912THY    HA353579   3.690   0.895   4.037  1.5054  0.9696  0.4723
18912THY    CA453580   3.684   0.959   3.834  0.4844 -0.4950 -0.4570
18912THY    HA453581   3.584   1.001   3.843  0.2917  0.2156 -1.0429
18912THY    CA553582   3.741   0.973   3.709  0.1392  0.0481 -0.7581
18912THY    CM153583   3.674   1.049   3.600  0.2997  0.3502  0.4091
18912THY    HM153584   3.672   0.992   3.506 -0.1307  0.2858  0.5304
18912THY    HM253585   3.725   1.140   3.566 -0.8786  0.8759  1.2930
18912THY    HM353586   3.573   1.079   3.630  0.4083  2.0333 -0.7415
18912THY    CA653587   3.879   0.942   3.699  0.9820  0.0699  0.7187
18912THY    HA653588   3.939   0.963   3.610  1.0749 -0.3656 -1.1893
18913THY      O53589   7.384   8.561   2.626 -0.1359 -0.0382 -0.1829
18913THY     HO53590   7.466   8.610   2.644 -1.1184  1.5400  1.0034
18913THY    CA153591   7.393   8.528   2.501 -0.1595  0.1592 -0.0312
18913THY    CA253592   7.330   8.412   2.453 -0.2466 -0.4403  0.3433
18913THY    CP153593   7.261   8.314   2.554  0.3830 -0.4247  0.3047
18913THY    HP153594   7.239   8.353   2.654  0.7104 -0.0720 -0.3780
18913THY    CP253595   7.357   8.204   2.585 -0.1955 -0.1618  0.4680
18913THY    HP253596   7.318   8.149   2.671 -0.1323  0.3385  1.1870
18913THY    HP353597   7.459   8.240   2.604  0.3536 -1.1311 -0.5276
18913THY    HP453598   7.362   8.132   2.503 -0.9291 -0.6895  1.0034
18913THY    CP353599   7.122   8.277   2.524  0.4262  0.5460  0.2842
18913THY    HP553600   7.107   8.273   2.415 -0.2638  0.6402  0.1151
18913THY    HP653601   7.054   8.359   2.552  1.4444  0.4937  1.1644
18913THY    HP753602   7.088   8.190   2.581  0.6394  2.3418  1.3203
18913THY    CA353603   7.345   8.375   2.319 -0.7052 -0.3828  0.5911
18913THY    HA353604   7.295   8.285   2.285 -1.8087  1.9723  0.2443
18913THY    CA453605   7.425   8.456   2.233 -0.2042 -0.3097 -0.1584
18913THY    HA453606   7.439   8.422   2.131 -1.3447 -0.2531 -0.8277
18913THY    CA553607   7.486   8.576   2.280  0.1045 -0.4728  0.4996
18913THY    CM153608   7.574   8.656   2.187  0.0770 -0.3994 -0.4079
18913THY    HM153609   7.520   8.741   2.144  2.8730 -1.3727  0.9911
18913THY    HM253610   7.608   8.591   2.105 -0.0638 -1.7904  1.1903
18913THY    HM353611   7.659   8.696   2.242 -0.0550  0.4587 -1.2658
18913THY    CA653612   7.472   8.610   2.416 -0.5530  0.3951 -0.4750
18913THY    HA653613   7.506   8.708   2.448 -0.1739  0.1844 -0.5385
18914THY      O53614   8.164   2.463   7.010 -0.6870 -0.0746 -0.5074
18914THY     HO53615   8.084   2.460   6.955 -1.4039  0.9605 -2.4855
18914THY    CA153616   8.229   2.591   6.988  0.4536 -0.2588  0.4345
18914THY    CA253617   8.372   2.600   6.981 -0.0830  0.5498 -0.4054
18914THY    CP153618   8.476   2.492   6.994 -0.1590 -0.7417  0.4623
18914THY    HP153619   8.435   2.412   7.057 -0.6257  0.5032  1.6323
18914THY    CP253620   8.613   2.532   7.058 -0.1555  0.8960 -0.4366
18914THY    HP253621   8.678   2.572   6.980  0.8668  0.9147 -1.9961
18914THY    HP353622   8.665   2.442   7.092  1.2092 -3.2544 -1.4288
18914THY    HP453623   8.599   2.616   7.128 -0.8410 -0.9327  1.0452
18914THY    CP353624   8.491   2.429   6.857 -0.5608 -0.6060  0.0621
18914THY    HP553625   8.508   2.505   6.779  2.0752  3.0756  3.7159
18914THY    HP653626   8.396   2.378   6.840  0.1435 -0.9473 -1.1875
18914THY    HP753627   8.578   2.364   6.845 -0.8533 -0.8277 -0.2925
18914THY    CA353628   8.422   2.734   6.942  0.0744  0.2448  0.0575
18914THY    HA353629   8.527   2.750   6.920  0.1325 -2.2649 -2.8862
18914THY    CA453630   8.340   2.840   6.941  0.7016  0.0681  0.3111
18914THY    HA453631   8.382   2.939   6.920 -0.5916  1.2655  1.1483
18914THY    CA553632   8.197   2.829   6.970  0.4162 -0.0699 -0.3781
18914THY    CM153633   8.105   2.938   6.977 -0.1855 -0.5198  0.4768
18914THY    HM153634   8.047   2.928   7.070 -0.9516 -0.9915  0.4417
18914THY    HM253635   8.032   2.943   6.896 -0.8267  0.0850  1.3742
18914THY    HM353636   8.149   3.038   6.974 -0.4188 -0.0832  0.5960
18914THY    CA653637   8.145   2.702   6.986  0.2589 -0.0572 -0.0235
18914THY    HA653638   8.039   2.682   6.988 -0.2552  1.6058  2.4598
18915THY      O53639   7.178   2.475   7.098 -0.0362 -0.5864  0.3309
18915THY     HO53640   7.182   2.418   7.019 -1.7581  0.3232 -1.1715
18915THY    CA153641   7.213   2.599   7.044 -0.3662 -0.2208 -0.1248
18915THY    CA253642   7.267   2.701   7.128  0.4222  0.0479 -0.3288
18915THY    CP153643   7.284   2.670   7.281 -0.2339  0.2394  0.0570
18915THY    HP153644   7.198   2.613   7.319 -1.5702  0.3400  2.0200
18915THY    CP253645   7.264   2.807   7.351 -0.5371 -0.7298  0.6396
18915THY    HP253646   7.231   2.790   7.454  0.7407 -0.3155  0.5426
18915THY    HP353647   7.186   2.871   7.310 -1.9883 -1.6525 -1.6161
18915THY    HP453648   7.363   2.853   7.363  1.3242  0.4250 -3.2331
18915THY    CP353649   7.421   2.606   7.320  0.4685 -1.0783  0.0398
18915THY    HP553650   7.454   2.642   7.418  1.5929 -2.0224  1.6515
18915THY    HP653651   7.490   2.627   7.238 -0.6996 -1.7921  1.2596
18915THY    HP753652   7.394   2.499   7.318  1.6680 -2.4455 -0.2624
18915THY    CA353653   7.305   2.825   7.068  1.0129  0.2655 -0.8974
18915THY    HA353654   7.367   2.900   7.116 -0.6949 -0.8815  1.4026
18915THY    CA453655   7.278   2.852   6.934  0.6734  0.0615 -0.0620
18915THY    HA453656   7.293   2.948   6.886 -1.4968 -0.4586  0.0845
18915THY    CA553657   7.222   2.753   6.857 -0.2831 -0.4076 -0.1342
18915THY    CM153658   7.194   2.777   6.716 -0.1949  0.1737 -0.3148
18915THY    HM153659   7.119   2.858   6.712 -1.1587  0.8462 -1.1433
18915THY    HM253660   7.148   2.689   6.670 -1.2480  2.9296 -1.3120
18915THY    HM353661   7.290   2.790   6.666  0.9772  2.2375 -0.6449
18915THY    CA653662   7.193   2.629   6.913  0.2761 -0.1891 -0.0392
18915THY    HA653663   7.148   2.547   6.856  1.8293 -2.5269  0.6265
18916THY      O53664   1.430   3.993   2.525  0.0121  0.1017  0.5562
18916THY     HO53665   1.371   4.042   2.583 -1.5209 -1.5561  0.7858
18916THY    CA153666   1.340   3.931   2.441  0.0977  0.4886 -0.2709
18916THY    CA253667   1.374   3.813   2.369  0.0951 -0.7076 -0.0648
18916THY    CP153668   1.518   3.761   2.377  0.2638 -0.3104  0.0565
18916THY    HP153669   1.575   3.828   2.442  0.5605 -1.1654  0.6454
18916THY    CP253670   1.596   3.767   2.248  0.1597  0.1041  0.6072
18916THY    HP253671   1.613   3.872   2.222 -0.6347 -1.2399  0.4316
18916THY    HP353672   1.538   3.712   2.173 -0.2422  1.9804 -1.6996
18916THY    HP453673   1.696   3.721   2.255  0.0736 -2.6564 -0.1915
18916THY    CP353674   1.525   3.611   2.431  0.1134  0.6211  0.6286
18916THY    HP553675   1.617   3.584   2.484  0.0748  0.2542 -0.2549
18916THY    HP653676   1.512   3.540   2.349 -3.3087  0.7160  0.9705
18916THY    HP753677   1.441   3.586   2.497 -0.9883 -1.6680 -2.3288
18916THY    CA353678   1.275   3.744   2.297 -0.0760 -0.3543 -0.2401
18916THY    HA353679   1.291   3.651   2.243 -2.0350 -1.4884  0.0151
18916THY    CA453680   1.141   3.791   2.299 -0.4705  1.1300 -0.3786
18916THY    HA453681   1.061   3.737   2.249  1.3799 -0.9863 -1.2810
18916THY    CA553682   1.108   3.903   2.373  0.0531  0.1567  0.3796
18916THY    CM153683   0.964   3.951   2.389  1.0041  0.1389 -0.4621
18916THY    HM153684   0.924   3.944   2.491 -0.1528 -0.1653  1.0293
18916THY    HM253685   0.897   3.903   2.317  0.8330 -0.4626  0.6430
18916THY    HM353686   0.971   4.057   2.364  1.4650  0.6965 -0.3544
18916THY    CA653687   1.208   3.974   2.443  0.7590 -0.8675 -0.5811
18916THY    HA653688   1.173   4.055   2.507  4.9557 -0.9017  1.5088
18917THY      O53689   3.355   3.687   5.213  0.3151 -0.7382  0.5171
18917THY     HO53690   3.345   3.647   5.125  1.7794 -0.7833  0.2063
18917THY    CA153691   3.306   3.614   5.318  0.2371 -0.4337  0.1482
18917THY    CA253692   3.224   3.673   5.423  0.8075 -0.0583  0.0486
18917THY    CP153693   3.195   3.826   5.414  0.3062 -0.2722  0.2579
18917THY    HP153694   3.224   3.867   5.317 -0.9307 -1.1059 -0.7637
18917THY    CP253695   3.274   3.898   5.519  0.2892  0.4589  0.5557
18917THY    HP253696   3.373   3.896   5.471 -0.6628 -1.6309 -2.2036
18917THY    HP353697   3.274   3.856   5.620 -0.6799  0.1952 -0.1023
18917THY    HP453698   3.239   4.001   5.533  0.0317  2.0221  0.2735
18917THY    CP353699   3.049   3.849   5.429 -0.2061  0.4561 -0.2837
18917THY    HP553700   3.019   3.836   5.534 -0.2205  0.1764 -2.9198
18917THY    HP653701   2.989   3.784   5.364  0.0161  0.9273 -0.9657
18917THY    HP753702   3.025   3.955   5.410 -1.1746  2.2776 -0.1267
18917THY    CA353703   3.177   3.587   5.523  0.1221 -0.0878  0.3208
18917THY    HA353704   3.112   3.632   5.597  0.7423  0.7287 -0.1079
18917THY    CA453705   3.217   3.451   5.526 -0.6740 -0.3883 -0.0997
18917THY    HA453706   3.187   3.389   5.610  0.4325  0.6724  0.7661
18917THY    CA553707   3.287   3.396   5.420  0.4146 -0.4536 -0.2557
18917THY    CM153708   3.320   3.256   5.418 -0.1240 -0.3797 -0.3760
18917THY    HM153709   3.386   3.232   5.501 -1.8127  0.2689 -3.2021
18917THY    HM253710   3.379   3.235   5.328 -1.8783 -2.0657  1.3557
18917THY    HM353711   3.232   3.191   5.413 -0.0869 -1.3819 -0.3701
18917THY    CA653712   3.337   3.478   5.318 -0.6650 -0.0795  0.1633
18917THY    HA653713   3.399   3.443   5.236 -0.6460  0.1903 -0.4507
18918THY      O53714   9.033   9.278   7.155  0.2238  0.1633  0.1101
18918THY     HO53715   9.053   9.328   7.074  0.9592 -0.3904 -1.0317
18918THY    CA153716   9.062   9.144   7.142 -0.1432 -0.3494 -0.4901
18918THY    CA253717   9.026   9.046   7.242 -0.4310 -0.5586  0.2144
18918THY    CP153718   8.974   9.094   7.378 -0.0952  0.1779  0.5749
18918THY    HP153719   8.973   9.203   7.384 -1.2408 -0.2719  0.6070
18918THY    CP253720   9.052   9.031   7.500 -0.4733  0.1722 -0.0976
18918THY    HP253721   9.156   9.063   7.490 -0.5174  0.1874  0.0506
18918THY    HP353722   9.032   8.923   7.500 -1.5918 -0.5207  0.0927
18918THY    HP453723   9.008   9.059   7.597 -0.7135  0.2005 -0.5674
18918THY    CP353724   8.827   9.056   7.393  0.5973  0.2650 -0.2298
18918THY    HP553725   8.815   8.951   7.366  1.9619 -2.4627  0.2283
18918THY    HP653726   8.766   9.121   7.329 -0.6795  1.1283 -0.5268
18918THY    HP753727   8.787   9.073   7.494 -0.1371 -0.3663  2.2143
18918THY    CA353728   9.057   8.908   7.224  0.2074  0.1481  0.0244
18918THY    HA353729   9.041   8.835   7.302 -1.0811 -0.3099 -0.2158
18918THY    CA453730   9.113   8.872   7.104 -0.7455  0.1177 -0.1816
18918THY    HA453731   9.149   8.771   7.085 -0.7742  0.9682 -0.3574
18918THY    CA553732   9.132   8.958   7.002 -0.4823 -0.2645  0.5009
18918THY    CM153733   9.210   8.917   6.878 -0.4605 -0.7201 -0.4219
18918THY    HM153734   9.228   8.995   6.803  1.2563  1.2906  1.2362
18918THY    HM253735   9.182   8.825   6.824 -3.0344 -1.0960  0.4786
18918THY    HM353736   9.313   8.902   6.910 -0.7636  0.7247  0.3814
18918THY    CA653737   9.116   9.101   7.019  0.7102 -0.4391 -0.5358
18918THY    HA653738   9.155   9.166   6.942  0.7742  2.1729  2.8068
18919THY      O53739   6.619   4.481   7.321  0.8578 -0.1170  0.4262
18919THY     HO53740   6.663   4.422   7.258 -0.4710 -0.7907  0.1038
18919THY    CA153741   6.484   4.467   7.292 -0.2656  0.5584 -0.2418
18919THY    CA253742   6.389   4.481   7.390 -0.2316  0.1446 -0.5611
18919THY    CP153743   6.431   4.496   7.535  0.4700 -0.1372  0.7276
18919THY    HP153744   6.536   4.529   7.537  0.7526 -3.0491  0.2741
18919THY    CP253745   6.430   4.359   7.610  0.7368 -0.0315  0.0865
18919THY    HP253746   6.505   4.294   7.563 -0.7540 -1.2354 -0.8614
18919THY    HP353747   6.332   4.309   7.611  0.4248  1.3458  0.6897
18919THY    HP453748   6.459   4.374   7.714 -0.3908 -0.0882  3.5545
18919THY    CP353749   6.340   4.585   7.617  0.7603  0.0359 -1.1053
18919THY    HP553750   6.390   4.615   7.710  3.4894 -1.4952 -0.5991
18919THY    HP653751   6.249   4.535   7.653  1.8167  0.6335 -2.6897
18919THY    HP753752   6.298   4.664   7.554  0.5833  1.4173 -0.0533
18919THY    CA353753   6.251   4.475   7.351 -0.5065  0.5872 -0.7256
18919THY    HA353754   6.176   4.496   7.426 -0.5346  0.6005 -0.8750
18919THY    CA453755   6.216   4.467   7.218  0.6218  0.0016 -0.1591
18919THY    HA453756   6.113   4.446   7.190 -0.5810  2.6559  1.6758
18919THY    CA553757   6.313   4.450   7.122 -1.6919  0.4982  1.1951
18919THY    CM153758   6.268   4.417   6.981 -0.1896  0.0701  0.3197
18919THY    HM153759   6.240   4.507   6.924  2.7162 -0.9431  0.6852
18919THY    HM253760   6.187   4.344   6.995 -2.1458  1.2396  2.5838
18919THY    HM353761   6.344   4.366   6.921 -1.6779 -2.0733  0.4722
18919THY    CA653762   6.448   4.443   7.156 -0.1792  0.4642 -0.4530
18919THY    HA653763   6.518   4.418   7.077 -0.2128 -0.1869  1.3443
18920THY      O53764   5.294   8.913   4.726 -0.4917 -0.0640  0.0013
18920THY     HO53765   5.370   8.957   4.685 -0.6644  1.3326  1.7415
18920THY    CA153766   5.199   8.946   4.642 -0.3692 -0.2972 -0.1152
18920THY    CA253767   5.060   8.967   4.676 -0.1132 -0.3991 -0.5332
18920THY    CP153768   5.019   8.963   4.828  0.4396 -0.3722  0.4787
18920THY    HP153769   5.102   8.948   4.898 -0.5492  0.6603 -0.4170
18920THY    CP253770   4.932   8.838   4.835  0.1981 -0.6466  0.3450
18920THY    HP253771   4.879   8.825   4.930 -1.3183 -1.1818  2.2277
18920THY    HP353772   4.990   8.747   4.818 -1.4202  1.6396 -1.2346
18920THY    HP453773   4.861   8.831   4.751  1.2401 -1.4942 -0.4639
18920THY    CP353774   4.938   9.081   4.879  0.2449 -0.0480 -0.2915
18920THY    HP553775   4.839   9.081   4.831 -0.1055  0.6457 -1.3224
18920THY    HP653776   4.993   9.172   4.853 -2.4112  1.6857  1.9914
18920THY    HP753777   4.927   9.071   4.987  2.4911  0.2308 -0.2736
18920THY    CA353778   4.971   8.994   4.575 -0.8898  0.3090  0.0608
18920THY    HA353779   4.866   9.013   4.596 -0.5274  2.4465 -0.0667
18920THY    CA453780   5.025   9.002   4.441  0.3015 -0.7350  0.0102
18920THY    HA453781   4.964   9.029   4.355  0.1530 -0.6507 -0.0541
18920THY    CA553782   5.159   8.981   4.414  0.1855  0.2819 -0.9220
18920THY    CM153783   5.212   8.998   4.278 -0.0196  0.1731 -0.2178
18920THY    HM153784   5.320   8.992   4.266  0.0140 -0.8180  1.5991
18920THY    HM253785   5.184   9.094   4.233  2.2047  2.0269  1.4189
18920THY    HM353786   5.161   8.921   4.219  0.3202 -0.0358 -0.2818
18920THY    CA653787   5.243   8.952   4.517  0.4098 -0.1839 -0.0091
18920THY    HA653788   5.343   8.924   4.485  0.2431 -3.5015  2.5795
18921THY      O53789   7.300   3.310   5.142 -0.4416 -0.2296 -0.7785
18921THY     HO53790   7.223   3.340   5.193 -0.6745 -0.9144 -0.1953
18921THY    CA153791   7.243   3.228   5.050 -0.0460  0.3487  0.0242
18921THY    CA253792   7.304   3.205   4.924  0.5228 -0.0605  0.5675
18921THY    CP153793   7.434   3.277   4.891 -0.4212 -0.8319 -0.2361
18921THY    HP153794   7.500   3.282   4.979 -0.2416 -0.9832  0.0670
18921THY    CP253795   7.397   3.414   4.839 -0.1195  0.0639 -0.4582
18921THY    HP253796   7.308   3.424   4.777  0.1256 -0.0563  1.2445
18921THY    HP353797   7.482   3.462   4.790  0.0213  0.5894 -0.1579
18921THY    HP453798   7.380   3.483   4.922  1.5766 -0.2553  0.3849
18921THY    CP353799   7.515   3.200   4.785 -0.6217  0.5388 -0.7624
18921THY    HP553800   7.523   3.092   4.800  1.6572  1.7781 -0.4842
18921THY    HP653801   7.620   3.232   4.790 -0.4670  0.5083 -1.2707
18921THY    HP753802   7.482   3.229   4.685 -2.3752  1.4499  0.5426
18921THY    CA353803   7.228   3.136   4.828  0.2553 -0.2526  0.3759
18921THY    HA353804   7.270   3.133   4.728  1.5232  0.2747 -0.0911
18921THY    CA453805   7.095   3.084   4.859 -0.2220 -0.1621 -0.2840
18921THY    HA453806   7.040   3.030   4.782  2.8435 -1.6125 -1.6024
18921THY    CA553807   7.046   3.104   4.989  0.3327  0.2838 -0.6874
18921THY    CM153808   6.918   3.033   5.028  1.1107  0.0144  0.3967
18921THY    HM153809   6.939   2.952   5.099 -0.6188  1.1589  0.9021
18921THY    HM253810   6.850   2.987   4.955 -0.0197  0.0429  1.9326
18921THY    HM353811   6.855   3.104   5.082 -0.1416  0.4370 -0.9703
18921THY    CA653812   7.113   3.185   5.075  0.5298 -0.1661 -0.7277
18921THY    HA653813   7.074   3.193   5.175  0.1401 -0.4593  1.5276
18922THY      O53814   6.317   6.550   7.669  0.2737  0.1033  0.4677
18922THY     HO53815   6.288   6.465   7.631 -1.1689  0.2018  0.8882
18922THY    CA153816   6.436   6.513   7.714 -0.0424  0.1599  0.2338
18922THY    CA253817   6.528   6.607   7.767 -0.2844 -0.5807  0.1021
18922THY    CP153818   6.493   6.755   7.788  0.1057 -0.2858  0.7197
18922THY    HP153819   6.386   6.771   7.768 -0.1982 -0.2551 -1.0708
18922THY    CP253820   6.567   6.837   7.683 -0.2364  1.2803  0.3399
18922THY    HP253821   6.669   6.805   7.662 -0.3691  1.2844 -0.0881
18922THY    HP353822   6.567   6.945   7.705 -0.8963  0.4349  0.5269
18922THY    HP453823   6.521   6.828   7.584  0.5897  0.7452  1.6363
18922THY    CP353824   6.533   6.805   7.927 -0.3845 -0.7776 -0.3502
18922THY    HP553825   6.640   6.798   7.946 -0.4301 -0.4272 -0.1076
18922THY    HP653826   6.470   6.749   7.998  2.4154  2.3822  0.2157
18922THY    HP753827   6.509   6.911   7.933 -3.6280  0.6940 -1.0403
18922THY    CA353828   6.661   6.567   7.792  0.2500 -0.2462  0.2587
18922THY    HA353829   6.737   6.639   7.822  0.1566 -0.0312  0.2678
18922THY    CA453830   6.697   6.437   7.778 -0.1137  0.1331  0.1293
18922THY    HA453831   6.801   6.406   7.783 -0.3535 -0.0458 -0.7096
18922THY    CA553832   6.594   6.338   7.740 -0.4366 -0.1041 -0.5588
18922THY    CM153833   6.631   6.194   7.747  0.2669  0.6145 -0.7682
18922THY    HM153834   6.653   6.170   7.851 -0.5247  1.2925  1.2263
18922THY    HM253835   6.720   6.192   7.683 -0.9469 -1.4156  2.3077
18922THY    HM353836   6.566   6.129   7.688  2.0051 -2.3223 -0.0338
18922THY    CA653837   6.467   6.378   7.711 -0.1640  0.2186 -0.4141
18922THY    HA653838   6.398   6.303   7.674  0.7476 -2.3479 -0.0944
18923THY      O53839   5.822   0.836   6.334  0.5587  0.0199  0.3819
18923THY     HO53840   5.816   0.822   6.238  0.1655  0.1282 -0.2824
18923THY    CA153841   5.758   0.953   6.366 -0.2946  0.0777 -0.0251
18923THY    CA253842   5.771   1.011   6.496 -0.5564  0.1107  0.6492
18923THY    CP153843   5.862   0.955   6.608 -0.4918  0.8016  0.4804
18923THY    HP153844   5.907   0.859   6.579  3.0424  0.2640  2.1351
18923THY    CP253845   5.785   0.927   6.730  0.0372 -0.3880 -0.6572
18923THY    HP253846   5.723   1.009   6.767  0.8261  0.1816 -0.3005
18923THY    HP353847   5.851   0.898   6.813  0.7624 -0.8027 -0.2229
18923THY    HP453848   5.714   0.847   6.708  0.5393 -0.3733 -1.1138
18923THY    CP353849   5.974   1.046   6.646  0.4327 -0.0975  0.1336
18923THY    HP553850   5.939   1.143   6.684 -2.0457  0.0508 -0.7539
18923THY    HP653851   6.039   1.065   6.559 -2.4968 -2.3336  0.6281
18923THY    HP753852   6.035   1.000   6.724  0.7804 -0.7254 -0.4897
18923THY    CA353853   5.701   1.128   6.529  0.1749  0.5618 -0.2823
18923THY    HA353854   5.730   1.171   6.625  0.0321  0.2310  0.5837
18923THY    CA453855   5.612   1.186   6.433 -0.9854 -1.2362 -0.4373
18923THY    HA453856   5.557   1.277   6.452 -0.2008  0.5935 -0.3129
18923THY    CA553857   5.605   1.126   6.305  0.3813  0.2378  0.1760
18923THY    CM153858   5.512   1.185   6.199 -0.2150 -0.1897  0.6164
18923THY    HM153859   5.510   1.295   6.198  0.5169 -1.8662  0.6525
18923THY    HM253860   5.412   1.149   6.227  0.2763  0.5863 -0.1801
18923THY    HM353861   5.527   1.155   6.094 -0.3477  0.6037 -2.6045
18923THY    CA653862   5.681   1.013   6.270  0.2489  0.2556 -0.9264
18923THY    HA653863   5.667   0.966   6.173 -3.3066  1.5914 -3.0758
18924THY      O53864   7.390   0.232   5.529  0.0901  0.0562  0.3106
18924THY     HO53865   7.326   0.164   5.555 -0.3260 -0.3696  0.5422
18924THY    CA153866   7.323   0.332   5.467 -0.6184  0.0365 -0.7177
18924THY    CA253867   7.336   0.469   5.512 -0.1507 -0.0637 -0.7799
18924THY    CP153868   7.452   0.503   5.607 -0.2001 -0.2429  0.1294
18924THY    HP153869   7.457   0.428   5.686 -2.2357 -0.8208 -0.6884
18924THY    CP253870   7.431   0.633   5.683  0.6415  0.4007 -0.3499
18924THY    HP253871   7.331   0.648   5.726 -0.7236 -1.9993 -1.9690
18924THY    HP353872   7.437   0.715   5.611 -1.2934 -0.6183 -1.0463
18924THY    HP453873   7.506   0.647   5.762  0.6432  0.2060  0.8235
18924THY    CP353874   7.586   0.494   5.534 -0.7537 -0.2816 -0.1775
18924THY    HP553875   7.665   0.531   5.602 -3.4249  1.7753  2.2026
18924THY    HP653876   7.578   0.560   5.447 -4.3856  0.7104  0.8992
18924THY    HP753877   7.604   0.392   5.497  0.5425  1.6293 -0.7022
18924THY    CA353878   7.254   0.566   5.443 -0.1228  0.0223  0.6083
18924THY    HA353879   7.259   0.672   5.466  0.7336  0.2465  0.5264
18924THY    CA453880   7.185   0.528   5.330 -0.0393  0.3672  0.6572
18924THY    HA453881   7.145   0.605   5.264 -2.4679  2.8693  1.7349
18924THY    CA553882   7.183   0.396   5.280  0.8074  0.6500  0.5277
18924THY    CM153883   7.106   0.369   5.152  0.2289 -0.9686 -0.3957
18924THY    HM153884   7.168   0.344   5.065 -0.6072 -1.5699 -0.4331
18924THY    HM253885   7.037   0.452   5.129 -1.2604  0.5230 -1.1457
18924THY    HM353886   7.037   0.285   5.166  1.9752  1.6806 -1.5152
18924THY    CA653887   7.249   0.298   5.351 -0.0598 -1.1255 -0.5846
18924THY    HA653888   7.236   0.195   5.320  1.1212 -0.6888 -0.8811
18925THY      O53889   2.325   6.091   4.433  0.3994  0.6865  0.0515
18925THY     HO53890   2.345   6.011   4.484  0.3444 -2.0426 -1.8668
18925THY    CA153891   2.342   6.041   4.305 -0.0674 -0.1479  0.0495
18925THY    CA253892   2.389   6.125   4.200  0.0209 -0.2906 -0.2501
18925THY    CP153893   2.398   6.275   4.215 -0.7007  1.1450 -0.6261
18925THY    HP153894   2.341   6.303   4.304 -2.9192 -0.1500 -0.8156
18925THY    CP253895   2.323   6.346   4.107 -0.0340 -0.0664 -0.4845
18925THY    HP253896   2.322   6.449   4.145  0.9812 -1.1507 -0.0541
18925THY    HP353897   2.226   6.299   4.089 -0.2206 -0.9006  0.1851
18925THY    HP453898   2.373   6.341   4.010 -0.5450 -0.2744 -1.7767
18925THY    CP353899   2.537   6.335   4.221 -0.0136 -0.5170 -0.2714
18925THY    HP553900   2.540   6.444   4.215 -2.5783 -0.0086 -0.1073
18925THY    HP653901   2.589   6.296   4.133  0.2852  0.3235 -1.8571
18925THY    HP753902   2.591   6.313   4.314  3.0398 -1.7508  1.4722
18925THY    CA353903   2.422   6.061   4.077  0.3952  0.1479 -0.5567
18925THY    HA353904   2.473   6.117   3.999  0.6658  0.1628 -0.7810
18925THY    CA453905   2.429   5.923   4.065  0.8896  0.3899 -0.5339
18925THY    HA453906   2.482   5.870   3.986 -0.2960 -0.9966  0.3043
18925THY    CA553907   2.376   5.844   4.167  0.3553  0.0312 -0.8044
18925THY    CM153908   2.384   5.695   4.159  0.6932 -0.3850 -0.6429
18925THY    HM153909   2.442   5.667   4.070 -0.7252 -1.5579  0.0280
18925THY    HM253910   2.285   5.647   4.157  0.2368  1.0202  0.1719
18925THY    HM353911   2.438   5.651   4.244 -2.5537  3.0060  1.3836
18925THY    CA653912   2.331   5.904   4.285 -0.2545 -0.2593  0.6841
18925THY    HA653913   2.297   5.837   4.364 -0.6790  0.5243  1.7927
18926THY      O53914   6.493   4.538   6.335  0.4911 -0.1723  0.1851
18926THY     HO53915   6.581   4.532   6.295  1.0270  0.8122  1.0309
18926THY    CA153916   6.467   4.418   6.390  0.1819 -0.1470 -0.1789
18926THY    CA253917   6.383   4.404   6.499 -0.6150 -0.5877  0.0579
18926THY    CP153918   6.297   4.528   6.535 -0.2704 -0.7872  0.1814
18926THY    HP153919   6.261   4.585   6.449 -0.2531  0.3336  1.9675
18926THY    CP253920   6.367   4.620   6.633 -0.4792  0.8991 -0.4500
18926THY    HP253921   6.383   4.565   6.727  0.4986  0.2562 -1.3121
18926THY    HP353922   6.306   4.711   6.630  0.8926 -1.7500  0.5048
18926THY    HP453923   6.468   4.643   6.597 -0.2320  1.0377 -1.2807
18926THY    CP353924   6.167   4.484   6.601  0.2311 -0.6037 -0.3151
18926THY    HP553925   6.100   4.568   6.621  0.4608 -1.0097 -0.0261
18926THY    HP653926   6.182   4.431   6.695  0.0208 -0.6071 -0.3823
18926THY    HP753927   6.120   4.419   6.526  3.5879 -2.4182 -0.9157
18926THY    CA353928   6.368   4.276   6.566 -0.4843 -0.5326  0.1673
18926THY    HA353929   6.300   4.259   6.649 -0.3996 -0.7582 -1.3213
18926THY    CA453930   6.451   4.176   6.522 -0.3324 -1.0424 -0.2548
18926THY    HA453931   6.439   4.080   6.573  0.0707 -0.8339 -0.1977
18926THY    CA553932   6.532   4.189   6.411  0.1139  0.6335  0.8602
18926THY    CM153933   6.624   4.076   6.372 -0.0733 -0.5504  0.4593
18926THY    HM153934   6.570   3.982   6.357  0.7477  0.9895 -0.2937
18926THY    HM253935   6.705   4.061   6.444 -0.5991 -0.0700 -0.1032
18926THY    HM353936   6.674   4.092   6.276 -0.0047 -1.1425 -2.7399
18926THY    CA653937   6.544   4.314   6.345  0.0712 -0.2974  0.7069
18926THY    HA653938   6.614   4.326   6.263  1.1895  0.6766  1.0270
18927THY      O53939   5.135   0.504   1.870  0.5886  0.2611 -1.0680
18927THY     HO53940   5.092   0.449   1.803  1.0243  0.3814 -1.5560
18927THY    CA153941   5.038   0.593   1.918 -0.5298  0.6638 -0.3629
18927THY    CA253942   5.052   0.740   1.902  0.4693 -0.0479 -0.7322
18927THY    CP153943   5.173   0.816   1.848  0.0287  0.5290  0.3016
18927THY    HP153944   5.257   0.755   1.883  0.6512 -0.8177  0.3508
18927THY    CP253945   5.197   0.960   1.901  0.1111 -0.3048 -0.0058
18927THY    HP253946   5.192   0.968   2.010 -0.5336 -0.3762  0.7786
18927THY    HP353947   5.125   1.031   1.858 -1.5471  0.7373 -0.9700
18927THY    HP453948   5.296   0.996   1.871 -0.0797 -1.2648 -0.2494
18927THY    CP353949   5.178   0.807   1.698  0.0427 -0.0472 -0.8556
18927THY    HP553950   5.146   0.708   1.664 -0.9004 -2.2404  0.1302
18927THY    HP653951   5.279   0.834   1.663  0.2817  0.8051 -0.6096
18927THY    HP753952   5.117   0.890   1.659 -0.5518  0.0444 -1.2438
18927THY    CA353953   4.943   0.818   1.948  0.4180  0.6571  0.5716
18927THY    HA353954   4.950   0.926   1.943  3.1026 -0.4285  0.4392
18927THY    CA453955   4.831   0.758   2.003  0.4828 -0.0623  0.7218
18927THY    HA453956   4.738   0.808   2.028 -3.4355 -1.0971 -5.0569
18927THY    CA553957   4.826   0.615   2.022 -0.6130  0.3628  0.0688
18927THY    CM153958   4.701   0.556   2.074  0.5272 -0.1396  0.3884
18927THY    HM153959   4.695   0.464   2.015  0.5655 -1.3644  1.1411
18927THY    HM253960   4.609   0.609   2.047  0.9458 -3.8134 -0.4760
18927THY    HM353961   4.709   0.515   2.175 -2.0880 -0.1490 -0.3171
18927THY    CA653962   4.930   0.530   1.975 -0.3603  1.1810 -0.8992
18927THY    HA653963   4.931   0.422   1.986  1.5349 -3.5233 -1.6043
18928THY      O53964   5.074   8.586   3.868 -0.0078 -0.0833  0.0013
18928THY     HO53965   5.017   8.509   3.850 -0.7881  1.1115  0.2697
18928THY    CA153966   4.991   8.688   3.819  0.2147  0.9677 -1.0095
18928THY    CA253967   5.043   8.821   3.808 -0.5166 -0.2607  0.2035
18928THY    CP153968   5.192   8.848   3.833 -0.5542  0.4477 -0.2503
18928THY    HP153969   5.232   8.766   3.894  3.1293  0.9519  1.7124
18928THY    CP253970   5.215   8.980   3.909  0.9089 -0.3199  0.6473
18928THY    HP253971   5.154   8.978   4.000  0.6997 -0.4378  1.4639
18928THY    HP353972   5.180   9.062   3.846  0.9277 -2.0786 -0.6232
18928THY    HP453973   5.320   8.999   3.932  0.2851  2.0201  1.5530
18928THY    CP353974   5.271   8.852   3.698  0.2579 -1.0798 -0.4273
18928THY    HP553975   5.255   8.951   3.655  0.3369 -4.0201 -1.5888
18928THY    HP653976   5.243   8.776   3.625  0.7488 -0.4911 -1.1890
18928THY    HP753977   5.380   8.842   3.709  0.1698 -0.7207 -1.0491
18928THY    CA353978   4.953   8.923   3.772  0.7229  0.4482 -0.0330
18928THY    HA353979   4.987   9.023   3.746 -1.1974  0.4689  0.6786
18928THY    CA453980   4.818   8.892   3.737  0.3751  0.4048  0.1476
18928THY    HA453981   4.744   8.965   3.707 -0.4437  0.6098 -0.5908
18928THY    CA553982   4.775   8.762   3.752 -0.2321 -0.7915  0.1421
18928THY    CM153983   4.642   8.725   3.718  0.3264  0.1041 -0.1511
18928THY    HM153984   4.573   8.810   3.719  1.7858  0.8858  1.0856
18928THY    HM253985   4.604   8.658   3.797  3.8312  0.0520 -2.4956
18928THY    HM353986   4.647   8.677   3.620  0.9206 -0.4641  1.0434
18928THY    CA653987   4.862   8.657   3.789  0.0324 -0.1520  0.0995
18928THY    HA653988   4.817   8.558   3.794  0.6368 -0.4160 -0.1976
18929THY      O53989   1.186   9.277   4.560 -0.2048 -0.0602  0.0535
18929THY     HO53990   1.271   9.300   4.519 -0.8347 -0.6791  1.3149
18929THY    CA153991   1.190   9.141   4.581  0.5324 -0.4022  0.7983
18929THY    CA253992   1.098   9.066   4.661  0.3585 -0.4049 -0.3541
18929THY    CP153993   0.978   9.138   4.726 -0.1976 -0.6388 -0.2966
18929THY    HP153994   0.947   9.221   4.662 -0.3163 -0.8509 -0.5021
18929THY    CP253995   1.031   9.190   4.860  0.1439 -0.3262  1.2083
18929THY    HP253996   0.965   9.268   4.899 -2.1438  0.9578 -1.1894
18929THY    HP353997   1.129   9.239   4.854  0.4151  0.5033  0.7832
18929THY    HP453998   1.035   9.106   4.930 -0.5908 -0.6342  0.9076
18929THY    CP353999   0.843   9.062   4.748 -0.7070 -0.5140  0.4298
18929THY    HP554000   0.841   8.974   4.813  0.5671 -1.0151  0.0180
18929THY    HP654001   0.805   9.024   4.652 -0.5601 -0.2357 -0.4365
18929THY    HP754002   0.765   9.126   4.791 -0.5441  3.8930 -1.9725
18929THY    CA354003   1.124   8.928   4.682  0.6186  0.4181  0.6995
18929THY    HA354004   1.067   8.868   4.752 -0.3169 -0.1267  0.9343
18929THY    CA454005   1.232   8.866   4.616  0.5633  0.0673 -0.1626
18929THY    HA454006   1.263   8.766   4.644  2.3296  0.8440  0.5655
18929THY    CA554007   1.324   8.943   4.539 -0.1068  0.0016  0.9205
18929THY    CM154008   1.437   8.871   4.473  0.3790  0.0704  0.6701
18929THY    HM154009   1.434   8.762   4.460  1.0902 -0.0883  0.6647
18929THY    HM254010   1.536   8.880   4.519 -0.2812  3.2243 -4.0469
18929THY    HM354011   1.432   8.898   4.367  0.9321 -0.0940  0.1615
18929THY    CA654012   1.299   9.077   4.513  0.2670  0.0891 -0.1909
18929THY    HA654013   1.364   9.136   4.449 -0.6338  0.4034  1.1745
18930THY      O54014   7.707   2.238   2.902  0.1999 -0.1385  0.1116
18930THY     HO54015   7.644   2.186   2.955  1.2181 -0.4547 -1.5190
18930THY    CA154016   7.644   2.362   2.873 -0.4056 -0.3815 -0.8788
18930THY    CA254017   7.675   2.437   2.756 -0.1062 -0.2327 -0.2299
18930THY    CP154018   7.783   2.390   2.653  0.2640  0.3534 -0.2781
18930THY    HP154019   7.868   2.355   2.713 -0.2062  1.4048  0.3445
18930THY    CP254020   7.843   2.504   2.573  0.8822  0.5525  0.2659
18930THY    HP254021   7.936   2.462   2.534  0.8684 -0.0484  0.7920
18930THY    HP354022   7.851   2.597   2.630 -0.1874  2.3110 -0.6479
18930THY    HP454023   7.774   2.526   2.491  1.6689  0.1854  1.4243
18930THY    CP354024   7.737   2.268   2.574  0.1298  0.1501  0.6646
18930THY    HP554025   7.638   2.281   2.528  0.0883  0.1381  0.3028
18930THY    HP654026   7.723   2.186   2.645 -0.2253  1.8041  2.0859
18930THY    HP754027   7.817   2.247   2.502  1.1794  0.4948  3.0509
18930THY    CA354028   7.605   2.554   2.728 -0.1582 -1.3344 -0.2379
18930THY    HA354029   7.612   2.613   2.637  1.8085 -0.3431  1.2060
18930THY    CA454030   7.497   2.589   2.816 -0.3628 -0.0766 -0.1533
18930THY    HA454031   7.450   2.681   2.782  2.1122 -1.8728  0.5767
18930THY    CA554032   7.476   2.523   2.942  0.4285  0.3438  1.0410
18930THY    CM154033   7.371   2.563   3.030  0.0662  0.3026  0.2342
18930THY    HM154034   7.315   2.472   3.056  0.0741  1.4648  0.5469
18930THY    HM254035   7.300   2.631   2.982 -1.0160  1.5594  0.0440
18930THY    HM354036   7.404   2.602   3.127  0.4384  0.4117 -0.3387
18930THY    CA654037   7.550   2.403   2.966  0.2908 -0.1088 -0.4351
18930THY    HA654038   7.522   2.337   3.047  0.0776  0.2968  0.1395
18931THY      O54039   7.881   1.683   6.995 -0.2548 -0.4733 -0.0354
18931THY     HO54040   7.973   1.709   6.978 -0.1423  0.6250  0.3704
18931THY    CA154041   7.858   1.729   7.116 -0.9081  0.0850 -0.6338
18931THY    CA254042   7.725   1.769   7.155 -0.6902 -0.1521  0.2467
18931THY    CP154043   7.606   1.745   7.057 -0.8468 -0.1456 -0.2388
18931THY    HP154044   7.613   1.659   6.990 -0.7796  1.7344 -1.7490
18931THY    CP254045   7.597   1.858   6.958 -0.2835 -0.8113  0.1140
18931THY    HP254046   7.687   1.870   6.896  1.8217  1.7025 -1.5034
18931THY    HP354047   7.596   1.950   7.017 -0.6083  1.0225 -1.0143
18931THY    HP454048   7.510   1.842   6.894 -0.9048  0.3984 -1.6548
18931THY    CP354049   7.473   1.723   7.131 -0.2498 -0.4436 -0.2296
18931THY    HP554050   7.451   1.810   7.194  0.5187 -0.4734 -0.0077
18931THY    HP654051   7.482   1.631   7.190  0.0159 -2.8126 -1.8032
18931THY    HP754052   7.391   1.711   7.059  0.6305 -1.8840  1.8857
18931THY    CA354053   7.715   1.817   7.288 -0.4953 -0.6371  0.0075
18931THY    HA354054   7.617   1.836   7.331 -1.0719 -1.7946 -0.2906
18931THY    CA454055   7.829   1.829   7.371 -0.4429 -0.1320  0.0376
18931THY    HA454056   7.819   1.868   7.472 -0.0351  0.4333 -1.2704
18931THY    CA554057   7.954   1.796   7.323  0.2659  0.1417 -0.5264
18931THY    CM154058   8.079   1.789   7.411  0.1952 -0.1609  0.3733
18931THY    HM154059   8.097   1.682   7.428 -2.6232 -0.0574 -0.1726
18931THY    HM254060   8.071   1.839   7.509  0.5144  0.4584 -0.7529
18931THY    HM354061   8.160   1.825   7.348 -0.3875  0.5499  3.2294
18931THY    CA654062   7.965   1.748   7.193 -0.1897  0.0717 -0.2422
18931THY    HA654063   8.066   1.726   7.162  0.7453  3.8274 -1.8700
18932THY      O54064   8.953   7.080   3.987  0.5273  0.3794  0.3377
18932THY     HO54065   8.884   7.148   3.987 -0.5376 -1.5744 -0.6323
18932THY    CA154066   9.046   7.110   3.902  0.3417  0.3084 -0.1140
18932THY    CA254067   9.152   7.025   3.869  0.4095 -0.2339  0.4660
18932THY    CP154068   9.168   6.887   3.940  0.2724 -0.2257  0.3409
18932THY    HP154069   9.124   6.901   4.040  0.3138 -0.1922  0.2358
18932THY    CP254070   9.306   6.827   3.973  0.4166  0.5660 -0.5597
18932THY    HP254071   9.374   6.908   4.004 -0.4122  2.2404 -0.4666
18932THY    HP354072   9.355   6.796   3.880 -0.8443 -1.3806  2.7137
18932THY    HP454073   9.300   6.754   4.054  0.2019  0.7035 -0.3913
18932THY    CP354074   9.085   6.772   3.872 -0.6119  0.1712 -0.9153
18932THY    HP554075   9.120   6.730   3.777  1.6327  0.0372  1.0339
18932THY    HP654076   8.984   6.812   3.859 -0.1152 -1.0970  0.0092
18932THY    HP754077   9.070   6.693   3.946 -0.4531  0.8649 -0.3180
18932THY    CA354078   9.247   7.072   3.779 -0.8764 -0.3492 -0.5354
18932THY    HA354079   9.340   7.022   3.753  0.1780 -2.0343  2.0502
18932THY    CA454080   9.247   7.204   3.732 -0.1984 -0.2284 -0.2311
18932THY    HA454081   9.325   7.240   3.666 -0.3386  0.9960  2.6108
18932THY    CA554082   9.144   7.292   3.774 -0.2863  0.1518  0.7925
18932THY    CM154083   9.162   7.440   3.739  0.3262 -0.1587  0.1014
18932THY    HM154084   9.262   7.483   3.757  0.3820 -1.5710  0.5970
18932THY    HM254085   9.092   7.504   3.795 -2.4228 -1.9422 -1.1718
18932THY    HM354086   9.140   7.471   3.637  0.0700 -0.0168  0.3968
18932THY    CA654087   9.044   7.243   3.853 -0.0143 -0.5421  0.0796
18932THY    HA654088   8.957   7.302   3.879 -0.4882  1.1128 -1.2643
18933THY      O54089   8.661   4.191   1.937 -0.5669  0.2489  0.3937
18933THY     HO54090   8.625   4.107   1.970 -0.3400  0.8719  0.5364
18933THY    CA154091   8.789   4.174   1.917 -0.2211 -0.1239  0.2985
18933THY    CA254092   8.877   4.273   1.869  0.6585 -1.0042  0.1634
18933THY    CP154093   8.818   4.415   1.829  0.1370 -0.2643  0.3956
18933THY    HP154094   8.715   4.425   1.866  0.1256 -0.1907  0.0015
18933THY    CP254095   8.825   4.431   1.675 -1.3299 -0.6183  0.3907
18933THY    HP254096   8.926   4.450   1.637 -0.2082  1.1036 -1.6918
18933THY    HP354097   8.762   4.515   1.644 -1.1140 -0.0840  0.7546
18933THY    HP454098   8.801   4.330   1.638 -0.1675 -0.8991  0.2060
18933THY    CP354099   8.893   4.529   1.885 -0.0214 -0.1456 -0.1318
18933THY    HP554100   8.915   4.521   1.992  3.6809 -0.7849 -0.2293
18933THY    HP654101   8.844   4.625   1.860 -0.0150 -1.2136 -0.3914
18933THY    HP754102   8.990   4.532   1.835 -0.4949 -1.0652  0.5870
18933THY    CA354103   9.015   4.252   1.868 -0.0202 -0.0284 -0.0851
18933THY    HA354104   9.076   4.338   1.847 -2.1627  0.2024  1.5714
18933THY    CA454105   9.056   4.127   1.914  0.4711 -0.0886  0.1544
18933THY    HA454106   9.163   4.109   1.906  0.5343  1.7586 -0.5573
18933THY    CA554107   8.970   4.016   1.936  0.0481 -0.9900 -0.3274
18933THY    CM154108   9.028   3.885   1.980  0.7252  0.3258 -0.2159
18933THY    HM154109   8.943   3.817   1.979 -0.9224  1.4298  1.6989
18933THY    HM254110   9.071   3.883   2.081  0.3558  0.5005  0.3594
18933THY    HM354111   9.103   3.852   1.906  0.1786 -1.0264  1.4143
18933THY    CA654112   8.837   4.045   1.941  0.0334  1.1920  0.4503
18933THY    HA654113   8.765   3.970   1.974 -0.0430 -1.3847 -0.6878
18934THY      O54114   2.113   6.496   2.588 -0.0612 -0.1030 -0.0204
18934THY     HO54115   2.126   6.449   2.504 -2.0299 -1.2814  1.3619
18934THY    CA154116   2.187   6.612   2.587  0.0914  0.0797  0.7180
18934THY    CA254117   2.204   6.693   2.705 -0.0606 -0.4380  0.2533
18934THY    CP154118   2.146   6.644   2.835  0.1409  0.1092 -0.0881
18934THY    HP154119   2.067   6.575   2.804 -0.0647  2.4498 -0.9996
18934THY    CP254120   2.079   6.762   2.915  1.0593 -0.6125  0.5453
18934THY    HP254121   2.020   6.727   3.001  2.5713  0.6605  1.0090
18934THY    HP354122   2.021   6.822   2.844  1.8583 -1.6542  0.1082
18934THY    HP454123   2.156   6.825   2.961  0.6938  1.6661 -0.5364
18934THY    CP354124   2.249   6.572   2.922 -0.2360 -0.1326  0.3001
18934THY    HP554125   2.208   6.499   2.993 -3.8145 -1.5126  0.7889
18934THY    HP654126   2.295   6.647   2.987 -0.6730  3.2508 -2.1113
18934THY    HP754127   2.328   6.528   2.859  1.7956  1.3575  1.6224
18934THY    CA354128   2.279   6.816   2.690  0.4607 -0.0833  0.4333
18934THY    HA354129   2.294   6.875   2.780 -1.4718  0.8335 -0.3651
18934THY    CA454130   2.321   6.856   2.562 -0.0464 -0.1099  0.9049
18934THY    HA454131   2.365   6.953   2.545  1.6777  0.4066  0.2545
18934THY    CA554132   2.291   6.770   2.449 -0.3681 -0.1678  0.5302
18934THY    CM154133   2.343   6.798   2.308 -0.2385  0.0329 -0.2931
18934THY    HM154134   2.421   6.726   2.282  0.4132  0.9668  0.0521
18934THY    HM254135   2.389   6.897   2.299 -0.1546  1.6205 -0.1568
18934THY    HM354136   2.265   6.781   2.233  1.5147 -1.2728 -3.3891
18934THY    CA654137   2.220   6.651   2.461 -0.3417  0.3269 -0.1417
18934THY    HA654138   2.200   6.585   2.377 -1.0406  1.0234 -0.8298
18935THY      O54139   1.190   9.148   7.200  0.2696 -0.7688 -0.8089
18935THY     HO54140   1.202   9.243   7.213 -2.0389  1.5085 -0.7223
18935THY    CA154141   1.206   9.099   7.322  0.2676  0.5095  0.2387
18935THY    CA254142   1.114   9.002   7.367 -0.2451 -0.2047  0.0089
18935THY    CP154143   0.986   8.961   7.292  0.5499  0.1266 -0.3125
18935THY    HP154144   1.019   8.963   7.187  0.5647  0.1432  0.9876
18935THY    CP254145   0.872   9.062   7.301  0.6578  0.6141  0.1236
18935THY    HP254146   0.799   9.021   7.231  2.2224 -1.5580  0.8981
18935THY    HP354147   0.900   9.157   7.255  1.6279 -0.3893 -0.6290
18935THY    HP454148   0.838   9.086   7.403 -0.1087 -0.0187  1.8626
18935THY    CP354149   0.932   8.818   7.303  0.6459 -0.0059  0.1129
18935THY    HP554150   1.020   8.754   7.290 -0.2524  0.4013 -1.2374
18935THY    HP654151   0.847   8.806   7.234  0.7263  0.2239 -2.1504
18935THY    HP754152   0.888   8.803   7.402 -0.3621 -0.4453  0.1086
18935THY    CA354153   1.131   8.947   7.496  1.0550 -0.3306 -0.2079
18935THY    HA354154   1.052   8.886   7.540 -0.1625 -1.6620  0.3430
18935THY    CA454155   1.239   8.983   7.570 -0.2906  0.4319  0.0060
18935THY    HA454156   1.247   8.963   7.677  0.3091  1.1634  3.5187
18935THY    CA554157   1.347   9.063   7.514 -0.1041 -0.2408  0.8629
18935THY    CM154158   1.466   9.096   7.600 -0.1313  0.8408 -0.2700
18935THY    HM154159   1.512   9.001   7.626 -0.8878  2.5942 -0.1964
18935THY    HM254160   1.441   9.143   7.696  3.2941  1.6257  0.1865
18935THY    HM354161   1.531   9.168   7.549  1.9075 -0.7636 -3.0473
18935THY    CA654162   1.327   9.121   7.392  0.7240 -1.5375  0.5269
18935THY    HA654163   1.382   9.206   7.354 -0.7491 -2.0626  1.2854
18936THY      O54164   8.754   5.142   2.512 -0.6932  0.0366 -0.1822
18936THY     HO54165   8.811   5.219   2.497 -0.3853  0.6294 -0.2883
18936THY    CA154166   8.654   5.186   2.594  0.3007 -0.3397  0.8965
18936THY    CA254167   8.562   5.098   2.658  0.3016  0.2952  0.1420
18936THY    CP154168   8.562   4.952   2.618 -0.0700  0.5368  0.0736
18936THY    HP154169   8.646   4.920   2.555  1.4427  1.1604  2.5688
18936THY    CP254170   8.431   4.926   2.553  1.0287  0.3381 -0.6054
18936THY    HP254171   8.429   4.820   2.524  2.1141 -1.7588 -0.1166
18936THY    HP354172   8.433   4.987   2.462  0.4779  1.6487  1.4455
18936THY    HP454173   8.346   4.954   2.615  0.8013  0.0195 -0.5835
18936THY    CP354174   8.579   4.866   2.738  0.6326 -0.6141 -0.0549
18936THY    HP554175   8.665   4.895   2.799 -1.3728  1.6253  1.5464
18936THY    HP654176   8.589   4.761   2.707 -2.0498  2.6263 -1.4457
18936THY    HP754177   8.497   4.891   2.806 -0.2603 -1.9815  0.8852
18936THY    CA354178   8.472   5.156   2.741 -0.6297  0.1146 -0.0015
18936THY    HA354179   8.408   5.089   2.799  0.2762  0.7030 -0.3679
18936THY    CA454180   8.463   5.298   2.761 -0.2445  0.7007  0.2681
18936THY    HA454181   8.394   5.341   2.834 -0.8954 -0.5862  1.4768
18936THY    CA554182   8.563   5.380   2.707  0.1901 -0.0565 -0.6580
18936THY    CM154183   8.574   5.529   2.748 -0.3163 -0.0190 -0.0660
18936THY    HM154184   8.480   5.570   2.709 -0.6128  0.4265 -0.3151
18936THY    HM254185   8.644   5.588   2.687 -3.1905 -2.3183  1.2139
18936THY    HM354186   8.595   5.543   2.855  1.0612 -0.1711 -0.7905
18936THY    CA654187   8.655   5.326   2.621  0.0547  0.4799  0.6031
18936THY    HA654188   8.732   5.389   2.578 -0.1078 -0.1095  0.4101
18937THY      O54189   0.890   3.481   6.259  0.2831  0.3695 -0.1400
18937THY     HO54190   0.958   3.420   6.293 -0.2359  0.6298 -0.5826
18937THY    CA154191   0.781   3.484   6.330 -0.1735  0.5258 -0.1327
18937THY    CA254192   0.696   3.591   6.333 -0.0623 -0.2127 -1.0535
18937THY    CP154193   0.718   3.708   6.237  0.0679 -0.2044 -0.6341
18937THY    HP154194   0.759   3.659   6.148 -0.9814 -0.2762 -1.4188
18937THY    CP254195   0.818   3.813   6.290  0.2421 -0.0520 -0.3054
18937THY    HP254196   0.917   3.765   6.296 -0.2901  0.8922 -1.3457
18937THY    HP354197   0.772   3.837   6.387 -0.6660  0.8481 -4.7542
18937THY    HP454198   0.833   3.890   6.214 -0.0342 -0.0937 -0.2920
18937THY    CP354199   0.587   3.783   6.194  0.5430 -0.4705  0.2003
18937THY    HP554200   0.622   3.858   6.122  1.5401  0.6069  0.8256
18937THY    HP654201   0.531   3.822   6.281 -0.9452 -0.3413 -2.0590
18937THY    HP754202   0.525   3.719   6.131  2.0985 -2.0653  0.1911
18937THY    CA354203   0.590   3.587   6.430 -0.1716 -0.4596  0.5824
18937THY    HA354204   0.519   3.669   6.442 -1.8976 -1.0434 -0.7462
18937THY    CA454205   0.576   3.474   6.511  1.0187  0.4777 -0.0538
18937THY    HA454206   0.501   3.470   6.590  1.4147  0.8876  0.4207
18937THY    CA554207   0.652   3.363   6.494  0.2214  0.3243 -0.2021
18937THY    CM154208   0.631   3.235   6.574  0.4378 -0.3108 -0.1526
18937THY    HM154209   0.606   3.150   6.509  0.1828 -0.8193  0.3030
18937THY    HM254210   0.545   3.250   6.642  0.5898 -0.3674  1.1197
18937THY    HM354211   0.723   3.217   6.631  0.1013  0.1416 -0.4851
18937THY    CA654212   0.763   3.371   6.412 -0.0396  0.7903  0.5472
18937THY    HA654213   0.839   3.293   6.417  1.8280 -1.3692  2.0952
18938THY      O54214   6.564   9.531   5.620  0.5086  0.1838 -0.3990
18938THY     HO54215   6.505   9.560   5.692 -4.5719 -3.2476 -0.7689
18938THY    CA154216   6.668   9.465   5.673 -0.4563  0.6190  0.2292
18938THY    CA254217   6.761   9.399   5.588  0.1634  0.5741  0.4479
18938THY    CP154218   6.748   9.407   5.435  0.0351 -0.5776 -0.6997
18938THY    HP154219   6.680   9.488   5.406  1.0106  0.2961  0.4907
18938THY    CP254220   6.688   9.284   5.377 -0.5957  0.7008 -0.3868
18938THY    HP254221   6.678   9.303   5.269 -0.1459  0.7109 -0.0769
18938THY    HP354222   6.594   9.263   5.429 -0.6705  0.4815 -0.5980
18938THY    HP454223   6.760   9.203   5.394 -2.6260 -0.4672 -2.5715
18938THY    CP354224   6.880   9.442   5.366  0.0463 -0.1432  0.1561
18938THY    HP554225   6.943   9.518   5.414 -0.4837 -1.9505  1.8333
18938THY    HP654226   6.860   9.465   5.260 -2.4355 -0.0194 -1.0589
18938THY    HP754227   6.934   9.347   5.361 -1.6808  2.8081 -1.1283
18938THY    CA354228   6.859   9.313   5.644  0.0959  0.4918 -0.2324
18938THY    HA354229   6.932   9.259   5.585  0.1313  1.2691 -1.0529
18938THY    CA454230   6.859   9.300   5.783  0.4116 -0.0177 -0.2770
18938THY    HA454231   6.936   9.239   5.831  0.0702  0.0297 -0.6703
18938THY    CA554232   6.773   9.374   5.870  0.2800  0.2448 -0.4104
18938THY    CM154233   6.781   9.365   6.016 -0.5451  0.3385 -0.0161
18938THY    HM154234   6.742   9.269   6.053 -1.5671 -2.7690 -0.9052
18938THY    HM254235   6.723   9.445   6.064 -0.7683  3.1856 -1.7272
18938THY    HM354236   6.886   9.385   6.040 -0.1261 -1.0330 -0.4891
18938THY    CA654237   6.673   9.453   5.815  0.2989 -0.0744  0.4963
18938THY    HA654238   6.602   9.501   5.883 -1.1783 -1.8350  0.9246
18939THY      O54239   4.953   7.386   3.240 -0.4616  0.0696 -0.2627
18939THY     HO54240   4.918   7.324   3.174 -2.1582 -0.3807  1.0995
18939THY    CA154241   5.084   7.347   3.257  0.2000  0.0802 -0.6637
18939THY    CA254242   5.170   7.413   3.343 -0.1281  0.3479 -0.4155
18939THY    CP154243   5.121   7.520   3.443  0.6288  0.6241 -0.4527
18939THY    HP154244   5.012   7.520   3.451  0.3106 -2.5950  0.4278
18939THY    CP254245   5.168   7.657   3.392 -0.3369 -0.1179  0.3847
18939THY    HP254246   5.117   7.736   3.449 -1.1192 -1.1065  0.6141
18939THY    HP354247   5.126   7.675   3.292 -0.5288  0.1649  1.5804
18939THY    HP454248   5.275   7.678   3.399  0.8244 -4.6568 -2.4361
18939THY    CP354249   5.160   7.514   3.602  0.0883  0.6007 -0.2019
18939THY    HP554250   5.260   7.478   3.624 -0.3100 -1.0076 -2.5074
18939THY    HP654251   5.098   7.440   3.654 -0.8889 -1.3375 -0.8112
18939THY    HP754252   5.142   7.613   3.646  1.9260  1.9006 -0.4133
18939THY    CA354253   5.301   7.362   3.362  0.4689  0.0831 -0.2297
18939THY    HA354254   5.368   7.396   3.440  0.9864  0.8451 -2.7925
18939THY    CA454255   5.343   7.258   3.282 -0.6211 -0.6087  0.7210
18939THY    HA454256   5.445   7.224   3.296 -0.5011 -1.4000  0.7206
18939THY    CA554257   5.257   7.193   3.188 -0.5255  0.0475  0.1980
18939THY    CM154258   5.322   7.094   3.088  0.3130  0.3337  0.2128
18939THY    HM154259   5.339   7.141   2.991 -0.7260  0.8816  1.7899
18939THY    HM254260   5.249   7.015   3.065 -0.4030 -2.3184  1.5456
18939THY    HM354261   5.414   7.056   3.133  0.4461 -0.4634 -0.4550
18939THY    CA654262   5.126   7.240   3.179  0.2123  0.7271  0.4135
18939THY    HA654263   5.062   7.196   3.103  1.4873 -0.0300 -0.1854
18940THY      O54264   6.705   3.167   7.772 -0.4939  0.5587  0.0612
18940THY     HO54265   6.675   3.242   7.718 -1.4688 -0.3679 -0.9615
18940THY    CA154266   6.768   3.082   7.683 -0.3318 -0.2969  0.1579
18940THY    CA254267   6.726   2.950   7.670 -0.3427 -0.1917 -0.0518
18940THY    CP154268   6.626   2.888   7.776  0.3317 -0.2497  0.1153
18940THY    HP154269   6.580   2.964   7.840  0.7955  2.7101 -1.9219
18940THY    CP254270   6.696   2.798   7.880 -0.0266  0.2290 -0.0160
18940THY    HP254271   6.739   2.723   7.814 -0.6764 -0.5694  0.2990
18940THY    HP354272   6.630   2.759   7.958  0.1766  0.7866  0.7241
18940THY    HP454273   6.772   2.854   7.936 -1.7592  1.7177  0.9835
18940THY    CP354274   6.497   2.823   7.709 -0.3834  0.3029  0.2282
18940THY    HP554275   6.419   2.835   7.785  0.1495  0.6082  2.1223
18940THY    HP654276   6.500   2.716   7.685 -2.6127 -0.3056  0.2507
18940THY    HP754277   6.466   2.878   7.619  0.8761 -1.7021 -2.1540
18940THY    CA354278   6.790   2.875   7.566  0.7121 -0.3235  0.1973
18940THY    HA354279   6.772   2.769   7.551  0.4481 -2.6257  0.5238
18940THY    CA454280   6.874   2.941   7.470  0.2723  0.1070 -0.5431
18940THY    HA454281   6.925   2.892   7.387 -0.7579 -0.7883 -0.1447
18940THY    CA554282   6.905   3.082   7.482 -1.1663 -1.2183  0.7573
18940THY    CM154283   7.001   3.147   7.387  0.3570  0.6801 -0.8186
18940THY    HM154284   6.979   3.126   7.282 -0.4494  0.0668  2.4462
18940THY    HM254285   7.101   3.112   7.416  0.4063  1.8668  0.2223
18940THY    HM354286   7.014   3.256   7.395 -1.3779  0.0172 -0.5278
18940THY    CA654287   6.844   3.150   7.585  0.9624  0.4519  0.2285
18940THY    HA654288   6.870   3.256   7.581 -1.0956  1.5125  0.8165
18941THY      O54289   2.051   1.985   3.475  0.0851 -0.8028 -0.6034
18941THY     HO54290   2.043   1.898   3.518  1.0024  1.0203  0.1579
18941THY    CA154291   2.180   1.982   3.441 -0.4471  0.4819  0.7975
18941THY    CA254292   2.228   2.062   3.334  0.3454  0.8496  0.0851
18941THY    CP154293   2.129   2.120   3.237 -0.3306  0.9580  0.0838
18941THY    HP154294   2.038   2.153   3.288 -0.7794  0.4627 -0.3653
18941THY    CP254295   2.101   2.016   3.124 -0.0281  0.2571 -0.4044
18941THY    HP254296   2.043   1.934   3.167 -0.9095  0.9539  0.5641
18941THY    HP354297   2.197   1.993   3.076  0.0133  0.6890 -1.1317
18941THY    HP454298   2.042   2.051   3.038 -1.3805  1.3394  0.0387
18941THY    CP354299   2.167   2.247   3.161  0.8695 -0.5601 -0.1043
18941THY    HP554300   2.235   2.303   3.225 -0.2569 -0.9432  1.7767
18941THY    HP654301   2.074   2.302   3.144  1.0126  0.7507  0.5785
18941THY    HP754302   2.228   2.217   3.075  0.4274 -0.2905 -1.9400
18941THY    CA354303   2.363   2.055   3.307 -0.1470  0.3524 -0.6520
18941THY    HA354304   2.409   2.113   3.228 -2.2504  0.8825  1.9506
18941THY    CA454305   2.448   1.993   3.400  0.2108 -0.3831  0.3059
18941THY    HA454306   2.553   1.979   3.378  0.2354  1.0503 -2.4586
18941THY    CA554307   2.397   1.925   3.508 -0.2328 -0.5684 -1.0027
18941THY    CM154308   2.482   1.839   3.602  0.1483 -0.5615 -0.2990
18941THY    HM154309   2.471   1.730   3.602  0.7498 -2.0535 -0.3875
18941THY    HM254310   2.468   1.878   3.703 -0.2075  0.1614 -2.2020
18941THY    HM354311   2.586   1.864   3.577  0.1226  0.1884  0.6015
18941THY    CA654312   2.262   1.912   3.521  0.4045  0.3026  0.3053
18941THY    HA654313   2.223   1.852   3.603 -0.9059 -0.5921 -0.1213
18942THY      O54314   1.004   4.560   4.882 -0.0261  0.1383  0.1761
18942THY     HO54315   1.018   4.470   4.917 -0.8924 -1.5244 -0.6657
18942THY    CA154316   1.125   4.614   4.899  0.9672 -0.0976  0.2025
18942THY    CA254317   1.168   4.732   4.841 -0.5463  0.0357  0.3237
18942THY    CP154318   1.086   4.823   4.756 -0.7779  0.3559  0.0220
18942THY    HP154319   0.988   4.778   4.733 -0.5434 -1.4550  0.3381
18942THY    CP254320   1.135   4.847   4.611 -1.3140  0.3667  0.6228
18942THY    HP254321   1.184   4.755   4.576 -0.2012  0.6837  1.0673
18942THY    HP354322   1.214   4.924   4.616 -0.3342  1.0588 -0.3894
18942THY    HP454323   1.057   4.887   4.546 -1.2666  0.6643  1.2121
18942THY    CP354324   1.068   4.957   4.820 -0.4151 -0.8329  0.6378
18942THY    HP554325   0.999   5.014   4.757  0.2788 -0.6101  1.7534
18942THY    HP654326   1.157   5.021   4.812 -0.7510  0.9475  1.3820
18942THY    HP754327   1.037   4.952   4.925  2.7792  0.2672  1.2275
18942THY    CA354328   1.304   4.778   4.858  0.3547  0.4989  0.0682
18942THY    HA354329   1.332   4.878   4.829  1.3699  0.9011 -0.0866
18942THY    CA454330   1.383   4.700   4.940 -0.2627  0.3968  0.0255
18942THY    HA454331   1.483   4.738   4.959  0.0926 -1.6988  0.3006
18942THY    CA554332   1.342   4.580   4.983 -0.5613 -0.7248 -0.1275
18942THY    CM154333   1.442   4.496   5.059 -0.7512 -0.7670  0.3586
18942THY    HM154334   1.426   4.510   5.166  1.7825 -0.3512  0.4624
18942THY    HM254335   1.545   4.509   5.026  0.2963  2.3143  0.4911
18942THY    HM354336   1.427   4.392   5.026  1.0246 -1.6623  0.3566
18942THY    CA654337   1.214   4.533   4.958 -0.4558 -0.2928 -0.0537
18942THY    HA654338   1.195   4.431   4.990 -0.9221  1.5694  0.5959
18943THY      O54339   5.425   9.025   6.687  0.3147 -0.3819 -0.3022
18943THY     HO54340   5.461   8.990   6.770  1.4552  0.6841  3.0014
18943THY    CA154341   5.449   8.932   6.588 -0.4538  0.5725  0.4693
18943THY    CA254342   5.395   8.941   6.459  0.5435 -0.2335  0.4917
18943THY    CP154343   5.308   9.069   6.431 -0.3182  0.5963  1.0241
18943THY    HP154344   5.360   9.148   6.487  1.5996  1.4060 -0.7124
18943THY    CP254345   5.168   9.057   6.494  0.1284  0.0031  0.4047
18943THY    HP254346   5.103   9.132   6.448 -2.2032  1.9948 -0.2743
18943THY    HP354347   5.176   9.085   6.600  3.7421  0.2286 -0.9657
18943THY    HP454348   5.125   8.957   6.500  2.5799  0.3127 -0.7141
18943THY    CP354349   5.288   9.104   6.277  0.8147  0.8160  0.0957
18943THY    HP554350   5.227   9.195   6.274 -2.1631  1.8675 -1.7255
18943THY    HP654351   5.235   9.029   6.218 -0.6550  0.0801  1.6376
18943THY    HP754352   5.383   9.128   6.229 -0.6152 -2.1851  0.2126
18943THY    CA354353   5.424   8.851   6.351  0.7387 -0.5857  0.4359
18943THY    HA354354   5.378   8.866   6.254  0.1918 -0.1768  1.5446
18943THY    CA454355   5.510   8.743   6.379  0.5994  0.8873  0.4190
18943THY    HA454356   5.528   8.666   6.304  1.0224  0.8668  0.5384
18943THY    CA554357   5.575   8.738   6.499  0.5168 -1.0298  0.1943
18943THY    CM154358   5.659   8.620   6.522 -0.2648  0.4068 -0.3066
18943THY    HM154359   5.738   8.650   6.592 -1.4515  1.7353 -0.1970
18943THY    HM254360   5.722   8.609   6.433  0.8517  1.3379 -2.0029
18943THY    HM354361   5.607   8.524   6.535 -3.4477  1.0320  1.3821
18943THY    CA654362   5.546   8.833   6.604 -0.9230  0.5151 -0.7125
18943THY    HA654363   5.606   8.827   6.695  0.0210 -0.0436 -0.0071
18944THY      O54364   3.856   1.500   5.727 -0.2065 -0.5765 -0.1767
18944THY     HO54365   3.858   1.534   5.636  1.1101 -1.2896 -2.0128
18944THY    CA154366   3.799   1.375   5.703 -0.3244  0.5573  0.4362
18944THY    CA254367   3.734   1.297   5.803  0.2430  0.3257 -0.3626
18944THY    CP154368   3.738   1.354   5.950  0.2864  0.2964  0.1080
18944THY    HP154369   3.736   1.464   5.945  1.8614  0.8284  0.1782
18944THY    CP254370   3.866   1.313   6.011 -0.0901 -0.3613  0.3795
18944THY    HP254371   3.880   1.204   6.002  0.0749  1.0494  0.2580
18944THY    HP354372   3.866   1.342   6.117 -1.5743 -0.3562  0.4504
18944THY    HP454373   3.951   1.365   5.965  0.2505  1.9903  2.0504
18944THY    CP354374   3.625   1.295   6.033 -0.3215 -0.0261 -0.3021
18944THY    HP554375   3.616   1.351   6.127 -1.9919 -1.6770  2.4467
18944THY    HP654376   3.650   1.191   6.055 -0.4772 -0.0634 -0.3466
18944THY    HP754377   3.530   1.311   5.981  0.4565 -2.0474 -1.8558
18944THY    CA354378   3.683   1.171   5.771  1.0470 -0.1495 -0.3383
18944THY    HA354379   3.636   1.118   5.853 -0.2945  0.5550  1.7915
18944THY    CA454380   3.690   1.130   5.640  0.2849 -0.1274 -0.1920
18944THY    HA454381   3.632   1.043   5.610 -1.8963  0.1677  1.0813
18944THY    CA554382   3.760   1.206   5.539 -0.2236 -0.5125 -0.2898
18944THY    CM154383   3.774   1.165   5.395 -0.2433  0.7351  0.3328
18944THY    HM154384   3.713   1.227   5.328  0.7392 -1.3693 -0.8631
18944THY    HM254385   3.750   1.058   5.396  1.3518  0.8731 -0.0519
18944THY    HM354386   3.879   1.170   5.365 -0.3570  0.4816  1.4736
18944THY    CA654387   3.804   1.331   5.574 -0.3780  0.2784  0.5900
18944THY    HA654388   3.854   1.392   5.499  1.1280  0.2412 -0.6245
18945THY      O54389   2.997   9.006   3.186 -0.4518 -0.3300 -0.5122
18945THY     HO54390   2.933   8.954   3.237 -2.1229 -0.6357  1.1210
18945THY    CA154391   3.117   8.940   3.186  0.0255 -0.1176  0.3015
18945THY    CA254392   3.240   8.997   3.211  0.0153 -0.1399  0.0728
18945THY    CP154393   3.249   9.148   3.223 -0.4465 -0.3778 -0.4035
18945THY    HP154394   3.183   9.185   3.143 -2.6871  0.5659 -2.1124
18945THY    CP254395   3.390   9.210   3.203 -0.4603 -0.1404  0.5322
18945THY    HP254396   3.419   9.168   3.106  0.5097  0.9993 -1.6468
18945THY    HP354397   3.465   9.176   3.276  1.6376 -2.7081 -0.7980
18945THY    HP454398   3.387   9.319   3.196 -2.0028  1.2188  0.6147
18945THY    CP354399   3.205   9.209   3.359  0.0014 -0.2437 -0.2599
18945THY    HP554400   3.267   9.161   3.436 -0.8386 -0.1731 -1.2496
18945THY    HP654401   3.101   9.185   3.381 -0.0729  0.7673  0.8926
18945THY    HP754402   3.208   9.319   3.358 -1.8776 -0.9986 -0.1825
18945THY    CA354403   3.350   8.912   3.242 -0.3919  0.1939 -0.1520
18945THY    HA354404   3.446   8.952   3.271 -1.1453  2.0937  0.3543
18945THY    CA454405   3.337   8.772   3.234  0.5114 -0.3430  0.3033
18945THY    HA454406   3.419   8.706   3.259 -0.0519 -0.6577 -0.5224
18945THY    CA554407   3.218   8.715   3.208 -0.1099  0.2204  0.0105
18945THY    CM154408   3.203   8.568   3.233 -0.0619  0.4473 -0.7265
18945THY    HM154409   3.105   8.528   3.205 -0.8171  2.7602 -0.6095
18945THY    HM254410   3.209   8.548   3.340  0.4119  0.5800  0.0653
18945THY    HM354411   3.289   8.518   3.187  0.8776 -0.8912  1.9432
18945THY    CA654412   3.105   8.801   3.183  0.1221 -0.2193  0.2688
18945THY    HA654413   3.006   8.759   3.170  0.8658 -1.2808 -1.2381
18946THY      O54414   7.328   6.911   3.925 -0.2471  0.0946 -0.6292
18946THY     HO54415   7.302   6.956   4.007 -0.2996  1.1743 -2.5376
18946THY    CA154416   7.296   6.994   3.818 -0.4301 -0.5247  0.3324
18946THY    CA254417   7.290   7.132   3.834  0.1675  0.0613 -0.1506
18946THY    CP154418   7.314   7.197   3.976 -0.5531  0.2566  0.3298
18946THY    HP154419   7.329   7.127   4.059  0.4763  0.8739  1.2527
18946THY    CP254420   7.205   7.295   4.024 -0.6006  0.1089  0.4451
18946THY    HP254421   7.105   7.255   4.047 -0.3063  0.8205  0.1116
18946THY    HP354422   7.190   7.375   3.951  1.7801  0.0800  0.9167
18946THY    HP454423   7.244   7.340   4.115 -0.6387 -0.5508  1.8498
18946THY    CP354424   7.444   7.281   3.977  0.2903  0.0922  0.0205
18946THY    HP554425   7.428   7.387   3.951 -0.3961 -1.1053 -0.3593
18946THY    HP654426   7.520   7.252   3.904 -0.5835 -1.2389  0.9667
18946THY    HP754427   7.496   7.273   4.073  0.5324  0.0084  0.5522
18946THY    CA354428   7.270   7.214   3.717  0.2409 -0.7262  0.0695
18946THY    HA354429   7.270   7.322   3.721  0.2545  2.0850  0.0287
18946THY    CA454430   7.245   7.147   3.593 -0.7335  0.8134 -0.5542
18946THY    HA454431   7.216   7.208   3.508  2.0033  0.2613  0.1057
18946THY    CA554432   7.257   7.005   3.587  0.9591  0.2934  0.3557
18946THY    CM154433   7.247   6.937   3.457  0.2706  0.4403 -0.2551
18946THY    HM154434   7.340   6.925   3.401 -0.3227 -0.4000 -1.1345
18946THY    HM254435   7.179   6.978   3.381  0.3759  0.6944  0.3947
18946THY    HM354436   7.220   6.833   3.476  0.4853 -0.8339 -0.5635
18946THY    CA654437   7.279   6.929   3.699 -0.4706 -0.2649 -0.5152
18946THY    HA654438   7.307   6.825   3.700  1.6061  0.3548  0.0009
18947THY      O54439   6.734   4.782   5.296  0.2287  0.2832  0.2572
18947THY     HO54440   6.763   4.698   5.256 -0.6460 -1.2344  0.6486
18947THY    CA154441   6.849   4.828   5.354  0.2194 -0.4641 -0.6569
18947THY    CA254442   6.859   4.957   5.401 -0.5616 -0.4189 -0.3043
18947THY    CP154443   6.733   5.052   5.406 -0.2546  0.3647 -0.0180
18947THY    HP154444   6.648   4.988   5.380 -1.0755  1.1458  0.7266
18947THY    CP254445   6.739   5.169   5.305 -0.5553  0.8978  0.0389
18947THY    HP254446   6.831   5.228   5.298 -0.2631 -3.2223 -0.5833
18947THY    HP354447   6.667   5.249   5.323 -0.6200  0.4418  0.0910
18947THY    HP454448   6.734   5.124   5.205  0.5353  0.6675  0.4045
18947THY    CP354449   6.707   5.107   5.546  0.5980 -0.0976 -0.0874
18947THY    HP554450   6.728   5.032   5.623  2.4760 -0.3936  0.0818
18947THY    HP654451   6.607   5.150   5.553  1.5757 -3.1789  3.1844
18947THY    HP754452   6.784   5.185   5.550  3.2426 -2.9404 -2.2911
18947THY    CA354453   6.986   5.006   5.451  0.1737  0.2482  0.1593
18947THY    HA354454   6.994   5.107   5.489  0.9712  0.6672 -0.0525
18947THY    CA454455   7.089   4.920   5.467  0.4426 -0.2891 -0.3627
18947THY    HA454456   7.185   4.953   5.506 -0.2231  0.7606  0.4275
18947THY    CA554457   7.072   4.786   5.434  0.5049  0.5438 -0.1140
18947THY    CM154458   7.175   4.680   5.473  0.3498  0.2474 -0.1916
18947THY    HM154459   7.214   4.615   5.394 -0.5515  0.7087 -1.3273
18947THY    HM254460   7.136   4.612   5.550 -2.4753  0.1241  1.1529
18947THY    HM354461   7.253   4.736   5.526  1.4567 -0.9790 -0.5303
18947THY    CA654462   6.954   4.741   5.384  0.0473  0.2213 -0.2836
18947THY    HA654463   6.942   4.638   5.352 -2.1402 -0.8182  0.2245
18948THY      O54464   1.272   3.622   2.689  0.4934 -0.3765  0.5152
18948THY     HO54465   1.185   3.582   2.675 -0.4237  2.5696  1.2166
18948THY    CA154466   1.246   3.740   2.744  0.1155  0.1105  0.0576
18948THY    CA254467   1.349   3.814   2.806 -0.1640  0.6304 -0.1191
18948THY    CP154468   1.481   3.752   2.833 -0.3825 -0.2702 -0.8518
18948THY    HP154469   1.507   3.691   2.746 -0.6739 -2.0442  1.3882
18948THY    CP254470   1.487   3.669   2.968 -0.0346  0.4340 -0.1598
18948THY    HP254471   1.581   3.616   2.986 -1.6923  0.0401 -3.4680
18948THY    HP354472   1.405   3.599   2.986 -0.3331 -1.3748 -0.3357
18948THY    HP454473   1.488   3.734   3.056  1.0389 -0.3364  0.9130
18948THY    CP354474   1.606   3.845   2.836 -0.3074  1.0375  0.0548
18948THY    HP554475   1.619   3.915   2.919  1.4402  0.9241 -0.0926
18948THY    HP654476   1.605   3.916   2.752  0.2183  0.2080 -0.8978
18948THY    HP754477   1.702   3.793   2.824 -0.5649  1.5076 -0.5380
18948THY    CA354478   1.321   3.940   2.858  0.0747 -0.6918 -0.8955
18948THY    HA354479   1.389   4.002   2.916 -1.2693  1.3975 -1.2992
18948THY    CA454480   1.184   3.984   2.854 -0.0090  0.0718  0.1899
18948THY    HA454481   1.151   4.075   2.901  2.9025 -0.4498  1.6359
18948THY    CA554482   1.087   3.914   2.777  0.0299  0.5526 -0.9273
18948THY    CM154483   0.948   3.971   2.765 -0.1291  0.4184 -0.0432
18948THY    HM154484   0.880   3.890   2.738  1.7315 -1.8949 -0.9417
18948THY    HM254485   0.956   4.043   2.683  1.6742 -0.8768 -1.6321
18948THY    HM354486   0.917   4.017   2.860 -2.4834  0.0423 -0.7073
18948THY    CA654487   1.114   3.786   2.732  0.0949 -0.0406  1.0813
18948THY    HA654488   1.042   3.726   2.677  0.6026  0.1101  0.3172
18949THY      O54489   6.970   6.820   5.460  0.2095  0.3875 -0.5089
18949THY     HO54490   7.057   6.794   5.497 -0.8099  1.9998 -1.8445
18949THY    CA154491   6.977   6.950   5.433 -0.1854  0.3196 -0.1341
18949THY    CA254492   6.860   7.015   5.379  0.1458  0.1454 -0.3752
18949THY    CP154493   6.739   6.937   5.339 -0.0433  0.9743 -0.5028
18949THY    HP154494   6.746   6.833   5.374  0.2095 -0.3451 -0.9552
18949THY    CP254495   6.732   6.926   5.187 -0.5474 -0.0988  0.0930
18949THY    HP254496   6.824   6.879   5.151  0.2815  1.3401  0.5648
18949THY    HP354497   6.698   7.022   5.145 -0.0890  2.1613  1.3118
18949THY    HP454498   6.662   6.848   5.157  0.1813 -1.7967  0.0287
18949THY    CP354499   6.607   6.981   5.394  0.4451  0.8892  0.7261
18949THY    HP554500   6.616   6.972   5.502 -0.1570  0.7804 -2.2556
18949THY    HP654501   6.524   6.917   5.363  0.5937 -1.1060  1.4275
18949THY    HP754502   6.584   7.079   5.350 -1.1046  1.5844  0.6964
18949THY    CA354503   6.862   7.152   5.354 -0.1538 -0.1478  0.1856
18949THY    HA354504   6.768   7.197   5.323 -0.0706 -1.1115 -0.2747
18949THY    CA454505   6.987   7.221   5.370  0.5957 -0.6133  0.2579
18949THY    HA454506   6.983   7.329   5.363  2.0800 -2.0985  0.2494
18949THY    CA554507   7.102   7.156   5.421 -0.3088 -0.1767  0.6395
18949THY    CM154508   7.233   7.231   5.444 -0.3529  1.1058 -0.0293
18949THY    HM154509   7.226   7.249   5.551  0.2703  1.3755 -1.3083
18949THY    HM254510   7.239   7.328   5.394 -0.9046  1.3750  0.1427
18949THY    HM354511   7.322   7.171   5.421 -0.8989 -0.3743 -0.3116
18949THY    CA654512   7.092   7.022   5.457 -0.3307 -0.0926 -0.5969
18949THY    HA654513   7.180   6.974   5.499  2.0038 -2.9110  0.8909
18950THY      O54514   8.092   3.983   6.681 -0.1823  0.2900 -0.5690
18950THY     HO54515   8.122   4.057   6.735 -1.7599 -1.0719  1.1760
18950THY    CA154516   8.205   3.918   6.647 -0.2959  0.3356  0.9693
18950THY    CA254517   8.197   3.780   6.642  0.5127 -0.5329  0.9837
18950THY    CP154518   8.087   3.696   6.712  0.1898 -0.4831  0.3827
18950THY    HP154519   7.996   3.755   6.729 -0.7206 -4.0192  0.1871
18950THY    CP254520   8.135   3.646   6.839 -0.3921 -0.6351  0.3548
18950THY    HP254521   8.235   3.604   6.822  0.0367  0.0375  1.0735
18950THY    HP354522   8.076   3.563   6.880 -0.5874  2.8624  2.0319
18950THY    HP454523   8.123   3.722   6.917 -2.3293 -1.2873  0.7623
18950THY    CP354524   8.031   3.577   6.631 -0.0084  0.5070  0.0515
18950THY    HP554525   8.080   3.480   6.642  0.1176 -0.5217 -0.0137
18950THY    HP654526   8.027   3.594   6.522 -0.5228 -0.0405 -2.9349
18950THY    HP754527   7.925   3.562   6.654 -0.7371 -1.5500  1.4965
18950THY    CA354528   8.293   3.706   6.571 -0.6630 -0.5709 -0.7250
18950THY    HA354529   8.285   3.597   6.570  0.4462  1.3803 -0.8728
18950THY    CA454530   8.411   3.773   6.524  0.3292  0.7078  0.5072
18950THY    HA454531   8.488   3.714   6.474 -0.5205 -1.3547  1.0460
18950THY    CA554532   8.422   3.910   6.537  0.7575  0.9520 -0.0650
18950THY    CM154533   8.550   3.988   6.493 -0.4629 -1.4144  0.1846
18950THY    HM154534   8.525   4.092   6.469 -0.7273  1.2911  0.8057
18950THY    HM254535   8.612   3.940   6.416 -0.1336 -1.9582  1.4561
18950THY    HM354536   8.608   3.992   6.586 -0.1774 -1.4710 -1.6076
18950THY    CA654537   8.320   3.979   6.599 -0.1865  0.5617 -0.2909
18950THY    HA654538   8.335   4.086   6.609 -0.9827 -1.1098 -0.0086
18951THY      O54539   4.661   8.860   6.564  0.2388  0.9868  0.3220
18951THY     HO54540   4.639   8.944   6.521 -0.1106  2.3542  0.9602
18951THY    CA154541   4.779   8.823   6.508 -0.0070 -0.0784  0.9646
18951THY    CA254542   4.849   8.706   6.549  0.3253  0.2625 -0.5917
18951THY    CP154543   4.802   8.611   6.651  0.3359 -1.0677 -0.0005
18951THY    HP154544   4.736   8.665   6.720 -0.0205 -2.0360  0.8264
18951THY    CP254545   4.913   8.548   6.742  0.2773 -0.1260  0.5484
18951THY    HP254546   4.967   8.462   6.701  0.4791  0.7245  0.2544
18951THY    HP354547   4.879   8.506   6.838  2.1678 -0.2903 -1.5533
18951THY    HP454548   4.981   8.627   6.775  1.0334 -1.3836  0.4418
18951THY    CP354549   4.720   8.498   6.583 -0.6577  0.3111 -0.7876
18951THY    HP554550   4.641   8.525   6.513 -0.2384 -0.5808 -1.8003
18951THY    HP654551   4.684   8.427   6.659  2.3320 -0.0817 -2.9306
18951THY    HP754552   4.797   8.445   6.525 -1.5128 -2.2482  0.6320
18951THY    CA354553   4.970   8.681   6.482 -0.1696  0.3864  0.5446
18951THY    HA354554   5.027   8.600   6.525  1.4414  3.0318  2.9097
18951THY    CA454555   5.011   8.764   6.375 -0.6262  0.0113 -0.1359
18951THY    HA454556   5.109   8.752   6.331 -0.9203 -0.2298 -1.9332
18951THY    CA554557   4.927   8.867   6.325  0.4837 -0.2868 -0.5505
18951THY    CM154558   4.963   8.953   6.208 -0.1096  0.2916  0.6401
18951THY    HM154559   5.039   8.902   6.147 -0.7263 -0.1631  0.2483
18951THY    HM254560   4.995   9.054   6.238 -0.6095 -1.7538  1.4542
18951THY    HM354561   4.878   8.977   6.142  1.0142 -2.3488 -2.0216
18951THY    CA654562   4.810   8.891   6.394  0.8652  0.1488 -0.7722
18951THY    HA654563   4.750   8.976   6.363  1.7623 -0.6928 -0.4336
18952THY      O54564   3.921   8.755   5.592 -0.0830 -0.8155  0.4008
18952THY     HO54565   3.945   8.720   5.679 -2.1139 -0.6442 -0.7456
18952THY    CA154566   4.016   8.689   5.522  0.2698  1.0073 -0.5178
18952THY    CA254567   4.013   8.689   5.382 -0.3457 -0.0772 -0.4518
18952THY    CP154568   3.900   8.757   5.293  0.1337 -0.4131 -0.1658
18952THY    HP154569   3.826   8.803   5.359  2.4237  1.7824  0.6221
18952THY    CP254570   3.843   8.646   5.199  0.5179 -0.1622 -0.6132
18952THY    HP254571   3.759   8.692   5.146  0.9739  0.6916  1.3316
18952THY    HP354572   3.809   8.561   5.260 -3.5416 -1.1754  0.0938
18952THY    HP454573   3.911   8.608   5.122 -0.3017 -0.1108 -2.2358
18952THY    CP354574   3.959   8.878   5.229  0.6610  0.0149 -0.8761
18952THY    HP554575   4.050   8.870   5.170  0.3710 -0.5933  0.1793
18952THY    HP654576   3.963   8.961   5.300 -2.5687  0.7695 -1.2041
18952THY    HP754577   3.882   8.906   5.156  0.3722  0.8658  0.6952
18952THY    CA354578   4.111   8.602   5.322 -0.2643  0.2589 -0.1319
18952THY    HA354579   4.117   8.591   5.214  0.2201  0.3784 -1.2498
18952THY    CA454580   4.211   8.527   5.390  0.2116  0.0121 -0.1117
18952THY    HA454581   4.285   8.459   5.348  1.6233 -1.8357  2.4030
18952THY    CA554582   4.201   8.533   5.520  0.1957 -0.4226 -0.1853
18952THY    CM154583   4.303   8.465   5.606  0.6180 -0.6278 -0.1587
18952THY    HM154584   4.256   8.455   5.704 -2.6937 -1.8799  1.5407
18952THY    HM254585   4.400   8.514   5.616  0.6989  0.4371 -0.5059
18952THY    HM354586   4.331   8.366   5.566  3.4864  1.2597 -0.2283
18952THY    CA654587   4.101   8.602   5.587 -0.9771  0.2204 -0.2580
18952THY    HA654588   4.111   8.602   5.695  1.0464  0.0971 -1.9152
18953THY      O54589   8.714   2.510   3.766  0.1247  0.8113  0.2895
18953THY     HO54590   8.647   2.576   3.790  1.5934  2.9041  1.1558
18953THY    CA154591   8.809   2.591   3.710  0.2775  0.6426  0.5674
18953THY    CA254592   8.929   2.532   3.660  0.1921 -0.6447 -0.2906
18953THY    CP154593   8.971   2.384   3.699  1.1213 -0.1501  0.1700
18953THY    HP154594   8.895   2.346   3.768 -0.5826 -1.6556  0.7259
18953THY    CP254595   9.107   2.374   3.771  0.0579 -0.3328  0.6008
18953THY    HP254596   9.192   2.409   3.711  0.8741  1.4851  1.8963
18953THY    HP354597   9.120   2.268   3.794 -0.3638 -2.1741  0.1094
18953THY    HP454598   9.116   2.425   3.867  2.3770  1.4693 -2.7608
18953THY    CP354599   8.966   2.297   3.575  0.1749  0.5952 -0.6152
18953THY    HP554600   8.992   2.191   3.582  0.1494 -0.7801 -0.7358
18953THY    HP654601   9.031   2.342   3.498  2.3796  2.5149 -0.3194
18953THY    HP754602   8.866   2.302   3.531  0.0195  1.0585  0.8434
18953THY    CA354603   9.013   2.615   3.576 -0.0643  0.6169 -0.1368
18953THY    HA354604   9.112   2.588   3.541  0.1126  1.3329 -0.4425
18953THY    CA454605   8.983   2.750   3.555  0.2611  0.0862  0.1621
18953THY    HA454606   9.057   2.815   3.508 -1.0106  1.2830  2.6420
18953THY    CA554607   8.860   2.806   3.596 -0.5604  0.2354  0.6877
18953THY    CM154608   8.833   2.945   3.577 -0.0407  0.1347 -0.2743
18953THY    HM154609   8.736   2.973   3.618  0.0716 -0.1583  0.5992
18953THY    HM254610   8.820   2.969   3.471 -0.7173  0.2997  0.1133
18953THY    HM354611   8.908   3.006   3.629 -0.1030  2.1569 -1.8163
18953THY    CA654612   8.777   2.722   3.679  0.2043 -0.1309 -0.6523
18953THY    HA654613   8.686   2.766   3.717 -0.8145 -0.6653 -2.2184
18954THY      O54614   6.567   7.582   7.823  0.0748  0.2960  0.5050
18954THY     HO54615   6.536   7.670   7.853 -0.8229  0.2689  0.2106
18954THY    CA154616   6.705   7.581   7.859 -0.2678  0.1926  0.5436
18954THY    CA254617   6.792   7.475   7.823  0.5385  0.3206  0.6987
18954THY    CP154618   6.742   7.344   7.749 -0.0172 -0.7291 -0.2494
18954THY    HP154619   6.634   7.337   7.765 -0.1330 -0.6042  1.4093
18954THY    CP254620   6.807   7.209   7.797 -0.1172  0.2632  0.0153
18954THY    HP254621   6.900   7.181   7.748 -1.0133 -0.6101 -1.5689
18954THY    HP354622   6.735   7.135   7.760  0.0896 -3.3476  1.4496
18954THY    HP454623   6.812   7.207   7.907 -0.9279  0.3077 -2.1707
18954THY    CP354624   6.761   7.362   7.601  0.3143 -0.1623 -0.4565
18954THY    HP554625   6.757   7.467   7.569  0.2464  0.6185 -0.2126
18954THY    HP654626   6.689   7.299   7.548  0.9733  0.5366 -1.8213
18954THY    HP754627   6.864   7.331   7.580  0.4072 -0.2824 -0.0729
18954THY    CA354628   6.923   7.484   7.866 -0.5614  0.0803  0.6825
18954THY    HA354629   6.994   7.405   7.843 -1.1165  0.7187 -0.0127
18954THY    CA454630   6.961   7.593   7.940  0.1292  0.5178 -0.3079
18954THY    HA454631   7.059   7.595   7.986 -0.3334  1.5152 -0.3827
18954THY    CA554632   6.873   7.695   7.971  0.3444 -0.2728  0.5787
18954THY    CM154633   6.914   7.812   8.063 -0.2697  0.0714  0.3977
18954THY    HM154634   6.967   7.887   8.003  0.3471  0.3480  0.1919
18954THY    HM254635   6.978   7.780   8.146 -0.6532 -0.0211 -0.6562
18954THY    HM354636   6.836   7.851   8.129 -1.4268 -1.4568  0.7409
18954THY    CA654637   6.751   7.695   7.915  0.2414  0.2329 -0.6513
18954THY    HA654638   6.682   7.773   7.947 -1.5357 -0.0490 -2.0193
18955THY      O54639   5.317   3.863   7.125 -0.2521  0.1406  0.1026
18955THY     HO54640   5.310   3.820   7.212 -1.3591 -0.8705 -1.9325
18955THY    CA154641   5.443   3.887   7.094 -0.3328 -0.1374  0.0239
18955THY    CA254642   5.488   3.926   6.966  0.1289 -0.2374  0.7877
18955THY    CP154643   5.383   3.948   6.850 -0.2119 -0.1970  0.1861
18955THY    HP154644   5.294   3.885   6.858 -0.9954  1.4173  1.4306
18955THY    CP254645   5.434   3.909   6.706  0.0022  1.4692 -0.0374
18955THY    HP254646   5.471   3.806   6.707  2.4974  0.1571  0.7737
18955THY    HP354647   5.504   3.985   6.669  0.2005  1.7554 -0.0811
18955THY    HP454648   5.354   3.913   6.631  1.9658 -0.7551 -0.4287
18955THY    CP354649   5.331   4.092   6.843  0.5290  0.0383  0.2800
18955THY    HP554650   5.400   4.170   6.806 -0.1928 -1.1101  0.4045
18955THY    HP654651   5.302   4.131   6.941 -1.3527 -0.6885  0.8210
18955THY    HP754652   5.234   4.079   6.793  0.1348  1.0951 -0.9943
18955THY    CA354653   5.625   3.933   6.937 -0.4675  0.7534  0.3376
18955THY    HA354654   5.668   3.953   6.839  1.3586  1.0261 -1.8551
18955THY    CA454655   5.715   3.920   7.039 -0.2555  0.3652 -0.0854
18955THY    HA454656   5.822   3.922   7.019 -0.6521 -2.0243  0.4093
18955THY    CA554657   5.672   3.901   7.172 -0.4700  0.2583 -0.5760
18955THY    CM154658   5.786   3.889   7.273 -0.1275 -0.0515  0.4329
18955THY    HM154659   5.884   3.900   7.225 -0.0071  0.3055  1.0042
18955THY    HM254660   5.788   3.794   7.327  0.2697 -0.5590  0.1529
18955THY    HM354661   5.784   3.964   7.354  1.1812  1.4327 -1.0358
18955THY    CA654662   5.535   3.889   7.199 -0.0678  0.0774  0.4638
18955THY    HA654663   5.504   3.867   7.301  1.1403  0.7886  1.9485
18956THY      O54664   7.373   5.472   6.913 -0.0311 -0.1691 -0.0350
18956THY     HO54665   7.333   5.383   6.905 -1.3587  1.2983  0.3856
18956THY    CA154666   7.408   5.520   6.792 -0.2531  0.0489 -0.4290
18956THY    CA254667   7.479   5.645   6.782 -0.8317  0.5928 -0.2481
18956THY    CP154668   7.525   5.718   6.909  0.6590 -0.1861  0.3244
18956THY    HP154669   7.592   5.655   6.967 -0.6374 -0.4825 -1.4053
18956THY    CP254670   7.406   5.768   6.991 -0.1222 -0.4365  0.2165
18956THY    HP254671   7.433   5.769   7.097  1.8508 -0.9027 -0.4051
18956THY    HP354672   7.326   5.694   6.979  0.2213  0.6773 -0.3509
18956THY    HP454673   7.371   5.870   6.971  0.1537  0.9159  0.6021
18956THY    CP354674   7.609   5.841   6.886 -0.7066 -0.4912 -0.0792
18956THY    HP554675   7.557   5.927   6.842 -0.2620  1.4054  1.2347
18956THY    HP654676   7.700   5.822   6.828  0.6369  0.7532  2.1181
18956THY    HP754677   7.649   5.875   6.982  0.7467 -1.1391  0.1259
18956THY    CA354678   7.506   5.699   6.655 -0.1594 -0.2393 -0.0143
18956THY    HA354679   7.551   5.796   6.640  0.5132  2.4218  0.1716
18956THY    CA454680   7.472   5.620   6.546 -0.3126  0.4238  0.4112
18956THY    HA454681   7.509   5.657   6.451 -0.6184  0.3053  0.4177
18956THY    CA554682   7.417   5.493   6.555 -0.0840  0.6148 -0.2878
18956THY    CM154683   7.388   5.408   6.436 -0.2903  0.2887  0.5962
18956THY    HM154684   7.297   5.427   6.378  0.6023 -2.0498 -1.5958
18956THY    HM254685   7.386   5.305   6.472  1.0615  1.5535  0.9861
18956THY    HM354686   7.473   5.412   6.366  1.4000  2.1613 -0.4896
18956THY    CA654687   7.387   5.439   6.678  0.3913 -0.2167  0.8347
18956THY    HA654688   7.335   5.345   6.689  1.8940  0.5970  0.0567
18957THY      O54689   5.577   7.963   1.690 -0.1639 -0.5583 -1.1197
18957THY     HO54690   5.658   7.911   1.706 -0.3127  1.2663 -0.8647
18957THY    CA154691   5.523   7.974   1.816  0.0866 -0.2479  0.0972
18957THY    CA254692   5.392   8.036   1.827 -0.3741 -0.5197  0.9667
18957THY    CP154693   5.321   8.096   1.709  0.1692  0.0235  0.3279
18957THY    HP154694   5.363   8.060   1.615 -0.6184  0.1998 -1.1287
18957THY    CP254695   5.330   8.244   1.714 -0.0356  0.5037 -0.0047
18957THY    HP254696   5.430   8.287   1.705 -0.5804 -0.2106  1.1799
18957THY    HP354697   5.288   8.277   1.809  2.3966  1.4099  0.6749
18957THY    HP454698   5.278   8.290   1.629 -0.6912  1.3022  0.7626
18957THY    CP354699   5.177   8.047   1.695  0.7119  0.4576 -0.1826
18957THY    HP554700   5.168   7.941   1.668 -1.9075 -2.8829  0.7133
18957THY    HP654701   5.128   8.108   1.618 -0.8884  0.8761 -0.8789
18957THY    HP754702   5.119   8.066   1.787 -0.6098 -0.5232  0.7031
18957THY    CA354703   5.338   8.045   1.957 -0.1814 -0.0349 -0.5349
18957THY    HA354704   5.255   8.112   1.981  2.8960  2.8375  2.6843
18957THY    CA454705   5.415   7.998   2.071  0.0510  0.0141 -0.0551
18957THY    HA454706   5.372   8.003   2.170  1.0253  0.6426 -2.6589
18957THY    CA554707   5.537   7.925   2.056  0.6600 -0.0718 -0.3168
18957THY    CM154708   5.612   7.872   2.182 -0.2448 -0.2354 -0.6894
18957THY    HM154709   5.573   7.915   2.275 -1.1045 -1.4672  1.3494
18957THY    HM254710   5.722   7.879   2.178  0.1187  0.5845 -4.2762
18957THY    HM354711   5.596   7.765   2.194 -0.2978  0.0394 -0.6510
18957THY    CA654712   5.592   7.917   1.928 -0.2579 -0.3132 -0.3491
18957THY    HA654713   5.695   7.886   1.923  0.4514 -0.3622  1.8534
18958THY      O54714   3.255   4.597   5.374  0.1304  0.0654  0.4302
18958THY     HO54715   3.205   4.639   5.302 -0.0567 -1.4321 -2.1375
18958THY    CA154716   3.384   4.598   5.353  0.7301 -0.1840  0.6582
18958THY    CA254717   3.481   4.536   5.440 -0.5876  0.0217 -0.3338
18958THY    CP154718   3.442   4.465   5.571 -0.2044  0.0576 -0.6158
18958THY    HP154719   3.343   4.497   5.606  0.2055  0.8428 -0.1876
18958THY    CP254720   3.552   4.498   5.679  0.1346  0.1060 -0.3487
18958THY    HP254721   3.565   4.607   5.679 -1.1583  0.9292 -0.1685
18958THY    HP354722   3.653   4.461   5.659  0.6612  0.9945  0.5568
18958THY    HP454723   3.531   4.451   5.776  0.9601  0.4328 -0.0682
18958THY    CP354724   3.432   4.315   5.559  0.6600 -0.4165  0.2804
18958THY    HP554725   3.407   4.270   5.656 -3.0294 -0.7042  1.3693
18958THY    HP654726   3.522   4.276   5.509 -0.2758 -5.0300  3.3335
18958THY    HP754727   3.355   4.287   5.486 -1.2159  1.4803  0.2319
18958THY    CA354728   3.616   4.538   5.399 -0.4699 -0.2999 -0.2861
18958THY    HA354729   3.698   4.493   5.454 -1.2420 -0.5483 -2.1139
18958THY    CA454730   3.644   4.604   5.277 -0.7094 -0.1070 -0.6282
18958THY    HA454731   3.744   4.628   5.245 -0.8759 -1.0421 -1.1580
18958THY    CA554732   3.552   4.672   5.210  0.4736  0.3403 -0.2775
18958THY    CM154733   3.598   4.741   5.086  0.0675  0.0336  0.3571
18958THY    HM154734   3.538   4.826   5.052  2.5236 -1.8479  1.4874
18958THY    HM254735   3.605   4.675   4.999  0.7674  1.1415 -1.0941
18958THY    HM354736   3.699   4.780   5.099  0.0716 -1.7170  1.0217
18958THY    CA654737   3.419   4.666   5.240  0.0398  0.5416  0.1256
18958THY    HA654738   3.345   4.713   5.176 -0.5617  0.5451 -0.8063
18959THY      O54739   4.774   3.251   2.821 -0.5411  0.2398  0.3857
18959THY     HO54740   4.802   3.265   2.913 -0.8310  0.7853 -2.0751
18959THY    CA154741   4.861   3.311   2.741  0.3977  0.1618 -0.5115
18959THY    CA254742   4.851   3.309   2.601 -0.4391  0.1569  0.3932
18959THY    CP154743   4.763   3.217   2.520 -0.4499 -0.1376 -0.3735
18959THY    HP154744   4.688   3.170   2.584 -1.3442 -0.8780  0.0292
18959THY    CP254745   4.844   3.105   2.450 -0.0528 -0.1280 -0.4209
18959THY    HP254746   4.926   3.153   2.396  0.3954 -0.4662 -1.5355
18959THY    HP354747   4.777   3.055   2.380  0.2506 -1.5032  1.0324
18959THY    HP454748   4.882   3.042   2.531  1.3492 -0.1980  0.2929
18959THY    CP354749   4.668   3.284   2.427 -1.2051  0.5872 -0.2020
18959THY    HP554750   4.631   3.376   2.475  1.4272 -1.6391  2.2502
18959THY    HP654751   4.594   3.212   2.391  1.6115 -1.0518 -2.5145
18959THY    HP754752   4.733   3.315   2.344  0.2183  1.9031  0.4570
18959THY    CA354753   4.935   3.395   2.526 -0.2735  0.1879 -0.0770
18959THY    HA354754   4.927   3.396   2.418 -2.7610  0.3087 -0.5962
18959THY    CA454755   5.029   3.474   2.591  0.3680 -0.3040  0.4048
18959THY    HA454756   5.098   3.531   2.530 -0.0308 -0.5105  0.6650
18959THY    CA554757   5.041   3.471   2.725 -0.0083  0.1576  0.5542
18959THY    CM154758   5.145   3.553   2.794  0.2751 -0.4795 -0.5905
18959THY    HM154759   5.100   3.621   2.867  1.6827  1.3903 -1.5386
18959THY    HM254760   5.194   3.630   2.734  2.2132  0.6920 -0.8476
18959THY    HM354761   5.231   3.497   2.834  1.9194  0.9643  2.6609
18959THY    CA654762   4.961   3.391   2.803  0.3063  0.7826  0.3718
18959THY    HA654763   4.968   3.394   2.912 -2.3186  0.9926  2.2374
18960THY      O54764   4.691   6.486   5.704  0.1236  0.0444 -0.0214
18960THY     HO54765   4.770   6.539   5.725  1.9652  0.8131 -2.8542
18960THY    CA154766   4.641   6.554   5.596 -0.2489  0.2078  0.0074
18960THY    CA254767   4.533   6.510   5.523  0.3130  0.1931  0.5528
18960THY    CP154768   4.461   6.385   5.568  0.5210  0.4225  0.1532
18960THY    HP154769   4.492   6.371   5.673  2.7309  0.0844  1.8573
18960THY    CP254770   4.500   6.269   5.474  0.2635  0.6774  0.2068
18960THY    HP254771   4.462   6.171   5.505  0.0157 -1.6718 -0.5076
18960THY    HP354772   4.610   6.269   5.465  0.2806  0.7869 -1.0299
18960THY    HP454773   4.463   6.288   5.373  1.0433  0.7318  2.2804
18960THY    CP354774   4.304   6.400   5.566  0.3515  0.0101 -0.5701
18960THY    HP554775   4.255   6.304   5.583 -0.8903  0.1268  0.0688
18960THY    HP654776   4.272   6.427   5.464  4.1069 -1.1226  0.2306
18960THY    HP754777   4.258   6.474   5.633 -0.5047 -0.1857 -0.9078
18960THY    CA354778   4.493   6.578   5.406 -0.5817 -0.7353  0.1679
18960THY    HA354779   4.413   6.541   5.343 -1.2222  0.1621 -0.0091
18960THY    CA454780   4.552   6.693   5.372 -0.6744 -0.4194 -0.5442
18960THY    HA454781   4.518   6.747   5.285  3.0943 -0.4630  2.1509
18960THY    CA554782   4.648   6.751   5.457 -0.0514 -1.1274 -0.2180
18960THY    CM154783   4.713   6.879   5.427 -0.0267  0.3020  0.5883
18960THY    HM154784   4.805   6.858   5.372 -1.7028 -2.0026 -1.2853
18960THY    HM254785   4.724   6.950   5.510  1.0534  0.5629  0.1417
18960THY    HM354786   4.654   6.929   5.349 -1.9270  1.1462 -0.2144
18960THY    CA654787   4.700   6.680   5.561  0.2976 -0.0956 -0.0500
18960THY    HA654788   4.781   6.720   5.620  0.8355 -0.4316 -0.6253
18961THY      O54789   7.442   2.497   6.063  0.4762 -0.1540 -0.3753
18961THY     HO54790   7.512   2.435   6.089 -0.6674  2.0421 -0.8631
18961THY    CA154791   7.372   2.515   6.176 -0.4767 -0.3961 -0.4813
18961THY    CA254792   7.246   2.572   6.180 -0.2056  0.9589  0.0470
18961THY    CP154793   7.182   2.629   6.055 -0.2034 -0.4633 -0.1142
18961THY    HP154794   7.235   2.574   5.975 -1.5407 -0.8003 -0.9446
18961THY    CP254795   7.210   2.773   6.034 -0.5508 -0.0613 -0.9994
18961THY    HP254796   7.317   2.797   6.022 -1.2431 -3.1184  1.0487
18961THY    HP354797   7.167   2.838   6.111  0.3845  0.8827 -1.4574
18961THY    HP454798   7.158   2.793   5.940  1.8840 -1.7704 -2.1147
18961THY    CP354799   7.026   2.593   6.053 -0.4018  0.0910 -0.5936
18961THY    HP554800   7.001   2.492   6.087  0.5361 -0.7628 -1.1254
18961THY    HP654801   7.004   2.593   5.945  2.0620 -0.4877 -2.3676
18961THY    HP754802   6.969   2.673   6.102  0.6775  1.7888 -0.8195
18961THY    CA354803   7.178   2.581   6.303  0.1174  0.1286  0.3705
18961THY    HA354804   7.077   2.620   6.312  0.8042 -1.4814  2.7850
18961THY    CA454805   7.247   2.539   6.423 -0.2091 -0.0107  0.2937
18961THY    HA454806   7.196   2.538   6.519 -1.1431 -0.3374  3.5732
18961THY    CA554807   7.380   2.492   6.416  0.3885  0.2822 -0.2628
18961THY    CM154808   7.450   2.436   6.539  0.2944  0.4325  1.2596
18961THY    HM154809   7.414   2.494   6.625 -0.5023  1.9686 -1.3716
18961THY    HM254810   7.559   2.438   6.531  0.4172  1.4427 -0.3713
18961THY    HM354811   7.417   2.333   6.555  2.5199 -4.0134 -0.4224
18961THY    CA654812   7.440   2.480   6.292  1.2981 -0.4874 -0.3967
18961THY    HA654813   7.539   2.435   6.295  1.0817  1.8748 -0.8541
18962THY      O54814   4.820   7.212   3.082  0.5547 -0.1497 -0.0769
18962THY     HO54815   4.789   7.150   3.150  0.5352 -0.7808 -0.7638
18962THY    CA154816   4.774   7.163   2.962 -0.1403  0.3228  0.3685
18962THY    CA254817   4.834   7.198   2.840  1.2713  0.4445  0.1337
18962THY    CP154818   4.935   7.311   2.824 -0.4761 -0.1147  0.5122
18962THY    HP154819   4.921   7.378   2.909  1.7507  1.1181 -0.5094
18962THY    CP254820   4.896   7.396   2.709  0.2018  0.7240 -0.1790
18962THY    HP254821   4.895   7.352   2.609  0.5479 -0.6335  2.6857
18962THY    HP354822   4.966   7.480   2.699  0.9146  0.9123 -0.7408
18962THY    HP454823   4.795   7.433   2.729  0.0476  1.7785 -1.1150
18962THY    CP354824   5.082   7.257   2.807  0.5496  0.7104 -0.0783
18962THY    HP554825   5.145   7.345   2.824 -0.0589 -0.0797  0.5321
18962THY    HP654826   5.102   7.214   2.708  0.0176 -1.1067  3.5008
18962THY    HP754827   5.097   7.177   2.881 -0.9014  0.2499 -0.8183
18962THY    CA354828   4.793   7.129   2.722 -0.3245 -0.7234 -0.4139
18962THY    HA354829   4.832   7.154   2.623 -0.7523 -0.8879 -0.3971
18962THY    CA454830   4.684   7.041   2.734 -0.2989 -0.4347  1.1659
18962THY    HA454831   4.653   6.993   2.642 -1.5806  0.1801  0.7855
18962THY    CA554832   4.626   7.003   2.854  0.4372  1.1301 -0.1375
18962THY    CM154833   4.501   6.917   2.856 -0.0063 -0.1578 -0.3505
18962THY    HM154834   4.421   6.961   2.915 -2.6438 -2.0118 -2.3470
18962THY    HM254835   4.522   6.817   2.897  1.7810  0.5782  0.2865
18962THY    HM354836   4.462   6.918   2.753  0.0750 -0.2278 -1.9229
18962THY    CA654837   4.665   7.076   2.969 -0.1567  0.0372  0.0165
18962THY    HA654838   4.620   7.058   3.066  0.6772  0.1476 -1.6509
18963THY      O54839   5.877   8.672   5.122 -0.0432  0.0185 -0.7475
18963THY     HO54840   5.786   8.701   5.104 -0.0789 -0.2750 -1.0305
18963THY    CA154841   5.855   8.562   5.198 -0.6263  0.5130 -0.2747
18963THY    CA254842   5.962   8.504   5.267  0.8206  0.2386  0.3552
18963THY    CP154843   6.105   8.560   5.245  0.6171 -0.9100  0.3809
18963THY    HP154844   6.104   8.666   5.218 -0.7608  2.1976  1.2632
18963THY    CP254845   6.196   8.467   5.153  0.0490 -1.4412 -0.4313
18963THY    HP254846   6.144   8.454   5.058 -0.5577 -1.0114 -1.2878
18963THY    HP354847   6.196   8.364   5.192  2.9045 -2.8856 -1.0835
18963THY    HP454848   6.294   8.509   5.127 -0.3970 -2.5351 -0.0304
18963THY    CP354849   6.157   8.583   5.389  0.2628  0.3891 -0.8874
18963THY    HP554850   6.097   8.662   5.434 -1.0373  0.7100 -2.0241
18963THY    HP654851   6.257   8.629   5.387  0.1694 -0.7911 -0.7051
18963THY    HP754852   6.151   8.499   5.460 -0.1505  0.0069 -1.1844
18963THY    CA354853   5.930   8.397   5.353  0.3456  0.6167 -0.1281
18963THY    HA354854   6.005   8.339   5.406  1.1091  0.3398  0.5964
18963THY    CA454855   5.795   8.352   5.356 -0.5189  0.1356  0.3434
18963THY    HA454856   5.773   8.266   5.419 -0.9563  0.3174  0.5851
18963THY    CA554857   5.696   8.408   5.275  0.3281  0.5847 -0.1140
18963THY    CM154858   5.559   8.349   5.256 -0.2248  0.3312  0.5687
18963THY    HM154859   5.569   8.245   5.222 -0.0826 -0.0340  0.7026
18963THY    HM254860   5.497   8.402   5.183  1.4674  1.1032  3.8534
18963THY    HM354861   5.484   8.359   5.335 -2.4141 -1.6252  0.2922
18963THY    CA654862   5.725   8.521   5.201 -0.0976 -0.1739 -0.6008
18963THY    HA654863   5.647   8.568   5.141 -2.6094  3.7833  0.8100
18964THY      O54864   9.157   3.851   4.587  0.1843 -0.1172 -0.2116
18964THY     HO54865   9.167   3.790   4.512  3.7327  0.4287 -0.5680
18964THY    CA154866   9.026   3.863   4.613 -0.7218  0.0058 -0.1623
18964THY    CA254867   8.976   3.916   4.735 -0.3798  0.2653 -0.6357
18964THY    CP154868   9.072   3.965   4.841  0.3566 -0.1645 -0.0748
18964THY    HP154869   9.177   3.974   4.812  0.3846  0.5011  2.7047
18964THY    CP254870   9.071   3.857   4.953 -0.5619  0.3058 -0.3320
18964THY    HP254871   9.152   3.884   5.022 -0.1009 -0.5919  0.6421
18964THY    HP354872   9.085   3.759   4.906 -1.3377 -1.2471  0.2729
18964THY    HP454873   8.986   3.842   5.022  1.9271  3.9753  0.9717
18964THY    CP354874   9.039   4.097   4.913  0.0650  0.7592 -0.0182
18964THY    HP554875   9.115   4.117   4.989  0.1058 -0.0494  3.6523
18964THY    HP654876   8.941   4.106   4.961  0.5207  1.4980  1.3123
18964THY    HP754877   9.038   4.183   4.846  0.0977  1.6536  0.6872
18964THY    CA354878   8.841   3.921   4.748 -0.5675  0.2065 -0.3636
18964THY    HA354879   8.805   3.953   4.846  1.9358  1.0552  0.0403
18964THY    CA454880   8.753   3.902   4.642  0.0675 -0.3894 -0.2309
18964THY    HA454881   8.649   3.929   4.658 -0.0814 -0.6195 -0.6528
18964THY    CA554882   8.804   3.851   4.524  0.4900 -0.0561  0.5790
18964THY    CM154883   8.714   3.832   4.405 -0.3628  0.0622 -0.1814
18964THY    HM154884   8.611   3.819   4.437 -0.5997  0.5706  2.4341
18964THY    HM254885   8.754   3.768   4.325 -2.3244 -0.6251 -0.5961
18964THY    HM354886   8.714   3.927   4.351  0.0719 -0.0348 -0.2320
18964THY    CA654887   8.940   3.824   4.515 -0.3469  0.3268 -0.1705
18964THY    HA654888   8.986   3.794   4.421  0.5196  1.2492 -1.8861
18965THY      O54889   7.160   1.340   4.195  0.3850  0.5580  0.0083
18965THY     HO54890   7.064   1.357   4.190  0.7067 -2.1152  1.6749
18965THY    CA154891   7.217   1.466   4.215  0.3137  0.3565 -0.7917
18965THY    CA254892   7.357   1.483   4.234 -0.4457  0.0912 -0.4969
18965THY    CP154893   7.454   1.360   4.247 -0.3004 -0.0007  0.0925
18965THY    HP154894   7.410   1.287   4.179 -2.7358  1.2971  0.2270
18965THY    CP254895   7.439   1.298   4.390  0.1528 -0.1911 -0.3574
18965THY    HP254896   7.498   1.207   4.408  0.1631  1.7278 -0.0207
18965THY    HP354897   7.336   1.274   4.419  0.5155  0.4856 -1.1453
18965THY    HP454898   7.474   1.379   4.455 -0.0651 -1.5686  0.8782
18965THY    CP354899   7.602   1.386   4.216 -0.8116 -0.2887 -0.2132
18965THY    HP554900   7.662   1.444   4.288  0.7408 -0.9371 -0.9777
18965THY    HP654901   7.600   1.437   4.119  0.1089  1.7867  4.2853
18965THY    HP754902   7.652   1.290   4.204  1.2624  2.9264  0.3186
18965THY    CA354903   7.407   1.621   4.243 -0.0912 -0.6542 -0.1666
18965THY    HA354904   7.512   1.647   4.244 -0.0587  1.1054 -0.2305
18965THY    CA454905   7.315   1.725   4.249 -0.8239  0.6768 -0.7443
18965THY    HA454906   7.341   1.830   4.256  0.8008 -0.6667 -1.0123
18965THY    CA554907   7.177   1.700   4.231 -0.0500  0.4586 -0.2853
18965THY    CM154908   7.075   1.804   4.252  0.5292 -0.4807  0.5896
18965THY    HM154909   6.988   1.759   4.301  0.6438 -3.2176 -3.1644
18965THY    HM254910   7.059   1.860   4.159  1.8062 -1.1360 -0.0869
18965THY    HM354911   7.128   1.883   4.307  1.8308  1.2185 -1.3435
18965THY    CA654912   7.132   1.573   4.214  0.3479  0.7508 -0.5239
18965THY    HA654913   7.030   1.546   4.191  0.4682  1.0953 -1.2964
18966THY      O54914   3.204   5.467   3.837  0.2470 -0.2098  0.3281
18966THY     HO54915   3.161   5.466   3.750  0.2615 -0.2119 -0.3749
18966THY    CA154916   3.336   5.476   3.819  0.5077 -0.2878 -0.4725
18966THY    CA254917   3.425   5.477   3.926 -0.5763 -0.1957  0.5516
18966THY    CP154918   3.380   5.482   4.077  0.1210 -0.4133 -1.1848
18966THY    HP154919   3.273   5.460   4.085 -1.0561  0.5895  3.5546
18966THY    CP254920   3.412   5.615   4.150  0.2292  0.1058  0.3420
18966THY    HP254921   3.519   5.636   4.162  0.0598  1.2470  0.6229
18966THY    HP354922   3.376   5.604   4.253  0.0681  0.0256  0.0986
18966THY    HP454923   3.365   5.697   4.095 -0.0664 -1.7294 -0.9820
18966THY    CP354924   3.441   5.360   4.148 -0.0648  0.0171 -0.1507
18966THY    HP554925   3.388   5.337   4.242  0.4273 -0.2279 -2.5108
18966THY    HP654926   3.549   5.359   4.166 -0.3151  1.7109 -1.4480
18966THY    HP754927   3.417   5.272   4.088 -3.3758  1.4736 -0.4064
18966THY    CA354928   3.564   5.472   3.896 -0.1287 -0.0224  0.0202
18966THY    HA354929   3.637   5.491   3.973 -2.5311  2.2157  0.8357
18966THY    CA454930   3.602   5.469   3.763  0.5992 -0.8024 -0.1940
18966THY    HA454931   3.707   5.476   3.733  0.4924 -1.2666 -0.5349
18966THY    CA554932   3.512   5.497   3.664  0.0401  0.5488  0.7514
18966THY    CM154933   3.551   5.528   3.524  0.0683  0.1227  0.3075
18966THY    HM154934   3.466   5.574   3.472 -0.3302  1.0025  0.6026
18966THY    HM254935   3.571   5.435   3.471 -3.3392 -0.6797 -0.1022
18966THY    HM354936   3.635   5.598   3.525  0.0576 -0.8580  0.3395
18966THY    CA654937   3.380   5.491   3.691 -0.2312 -0.1620  0.7648
18966THY    HA654938   3.312   5.503   3.607 -0.0780 -0.2744  0.8474
18967THY      O54939   3.347   5.330   4.649  0.6723  0.0052  0.0240
18967THY     HO54940   3.250   5.331   4.646  0.5535  1.0390 -2.4607
18967THY    CA154941   3.379   5.204   4.661 -0.0682  0.6016  0.0946
18967THY    CA254942   3.442   5.154   4.771 -1.0827 -0.0300  0.1111
18967THY    CP154943   3.518   5.235   4.875 -0.2756  0.3562  0.5601
18967THY    HP154944   3.472   5.334   4.877  0.0625 -1.2670  0.7780
18967THY    CP254945   3.672   5.236   4.859 -0.8697  0.5515 -0.6725
18967THY    HP254946   3.729   5.258   4.951 -0.5069  0.8010 -2.5272
18967THY    HP354947   3.693   5.319   4.791 -0.3914  1.4100 -0.0698
18967THY    HP454948   3.701   5.137   4.824 -1.0790 -0.2503 -0.4541
18967THY    CP354949   3.490   5.199   5.021  0.1242 -0.2306 -0.1365
18967THY    HP554950   3.548   5.114   5.060  0.8315  0.9759  0.8638
18967THY    HP654951   3.385   5.189   5.049  1.1347  4.6487  0.0680
18967THY    HP754952   3.509   5.286   5.086 -2.9011  0.5579  0.0385
18967THY    CA354953   3.452   5.010   4.779  0.1380 -0.1023  0.5832
18967THY    HA354954   3.495   4.957   4.863 -1.0451 -0.2254 -0.6346
18967THY    CA454955   3.395   4.927   4.684  0.0420 -0.6566  0.5896
18967THY    HA454956   3.401   4.819   4.694  2.2429  1.7029  0.8410
18967THY    CA554957   3.333   4.976   4.570 -0.0385 -0.2504 -0.4258
18967THY    CM154958   3.272   4.888   4.467  0.6306 -0.3345 -0.0051
18967THY    HM154959   3.287   4.936   4.370  0.4791 -1.5156 -2.2191
18967THY    HM254960   3.163   4.884   4.480  0.6723  0.0481  0.0420
18967THY    HM354961   3.315   4.787   4.474  1.2493  1.4345  0.3242
18967THY    CA654962   3.322   5.116   4.565 -0.0089  0.6649  0.1405
18967THY    HA654963   3.271   5.164   4.482  3.2482 -0.1903  2.4187
18968THY      O54964   8.767   6.752   7.590 -0.0167 -0.4670 -0.0718
18968THY     HO54965   8.707   6.682   7.619  1.6447  1.5027 -0.7947
18968THY    CA154966   8.817   6.813   7.699 -0.2178  0.0868 -0.1210
18968THY    CA254967   8.954   6.817   7.721 -0.0264 -0.5255  0.3133
18968THY    CP154968   9.055   6.746   7.628 -0.1443  0.2905  0.3454
18968THY    HP154969   9.007   6.736   7.530  0.7120 -0.1278  0.2181
18968THY    CP254970   9.078   6.612   7.689 -0.2555  0.5759  0.9534
18968THY    HP254971   9.132   6.543   7.624 -1.5779 -0.6012  0.9703
18968THY    HP354972   8.975   6.576   7.705 -1.0691 -1.0383  2.4223
18968THY    HP454973   9.130   6.617   7.785  1.8029 -0.4883  0.9385
18968THY    CP354974   9.182   6.816   7.604 -0.0629  0.7179 -0.6256
18968THY    HP554975   9.254   6.827   7.686  1.2460 -0.4614  0.0455
18968THY    HP654976   9.175   6.907   7.543  1.9354 -0.3863 -1.1447
18968THY    HP754977   9.239   6.749   7.538  3.5564  1.9263  0.9991
18968THY    CA354978   9.008   6.862   7.848  0.2569 -0.0501  0.2204
18968THY    HA354979   9.115   6.862   7.869  0.2253  0.2028 -1.0047
18968THY    CA454980   8.916   6.895   7.947 -0.9355  0.4037 -0.0704
18968THY    HA454981   8.965   6.908   8.043  3.1646 -1.5699  0.7670
18968THY    CA554982   8.780   6.882   7.931  0.1946 -0.1320 -0.4254
18968THY    CM154983   8.685   6.928   8.043  0.6570 -0.2248  0.6954
18968THY    HM154984   8.604   6.992   8.008  2.5622 -0.5050  3.1162
18968THY    HM254985   8.730   6.991   8.120  0.5782  0.6087 -0.2448
18968THY    HM354986   8.649   6.839   8.096  2.3437  0.6246  0.4710
18968THY    CA654987   8.731   6.843   7.801 -0.3364  0.2883 -0.3503
18968THY    HA654988   8.625   6.817   7.798 -0.7516  0.3891  1.1950
18969THY      O54989   3.492   7.941   5.077  0.1066  0.3993  0.6728
18969THY     HO54990   3.432   7.952   5.153  1.1478  1.2867  0.2990
18969THY    CA154991   3.446   8.006   4.967 -0.1047  0.5311 -0.0442
18969THY    CA254992   3.522   8.001   4.850  0.3325  0.0036  0.3616
18969THY    CP154993   3.668   7.950   4.847 -0.1461 -0.2381 -0.6240
18969THY    HP154994   3.709   7.971   4.947 -2.5775  0.5761  0.7122
18969THY    CP254995   3.766   8.038   4.769 -0.1424  0.3723  0.3300
18969THY    HP254996   3.760   8.017   4.662  2.7243  0.2525 -0.3127
18969THY    HP354997   3.874   8.025   4.784  0.4480 -3.7337 -1.1490
18969THY    HP454998   3.741   8.141   4.799 -0.9479 -0.4678  0.3845
18969THY    CP354999   3.688   7.805   4.819  0.3701 -0.1012  0.2265
18969THY    HP555000   3.618   7.744   4.878  0.7589 -1.0203 -1.1781
18969THY    HP655001   3.792   7.774   4.835 -0.1410  1.5519 -0.7956
18969THY    HP755002   3.650   7.783   4.718 -1.1451  0.6149 -0.6036
18969THY    CA355003   3.462   8.049   4.736 -0.3946  0.1909  0.3280
18969THY    HA355004   3.518   8.038   4.643  0.8685  1.1777 -2.5693
18969THY    CA455005   3.328   8.095   4.742 -0.4894  0.4849 -0.4107
18969THY    HA455006   3.282   8.134   4.651 -0.0059  0.9003  1.1802
18969THY    CA555007   3.260   8.112   4.867  0.7824  0.3529 -0.3330
18969THY    CM155008   3.128   8.178   4.871  0.0112 -0.2040 -0.7127
18969THY    HM155009   3.107   8.245   4.787 -2.4316 -0.9400 -2.2770
18969THY    HM255010   3.121   8.243   4.960 -1.5602 -0.1322 -0.9624
18969THY    HM355011   3.050   8.101   4.875  0.5754 -0.4614 -1.3053
18969THY    CA655012   3.320   8.065   4.980 -0.0694  0.1615  0.0640
18969THY    HA655013   3.260   8.050   5.069  0.7084  0.2505 -3.1348
18970THY      O55014   6.405   5.468   6.939 -0.2386  0.4574 -0.1097
18970THY     HO55015   6.358   5.484   6.855 -2.1170  1.4792  0.0834
18970THY    CA155016   6.424   5.347   6.952 -0.1774  0.1547  0.5029
18970THY    CA255017   6.461   5.296   7.074 -0.1080 -0.6643  0.0524
18970THY    CP155018   6.494   5.385   7.193  0.1857 -0.6555 -0.5500
18970THY    HP155019   6.465   5.489   7.177 -2.2667  1.3353 -0.8314
18970THY    CP255020   6.645   5.384   7.219  0.1474  0.5317 -0.3003
18970THY    HP255021   6.671   5.371   7.325 -1.1458  0.7293 -1.6126
18970THY    HP355022   6.683   5.481   7.185  0.6299  3.3112  0.5711
18970THY    HP455023   6.697   5.302   7.167 -1.0085 -1.3618  0.1006
18970THY    CP355024   6.419   5.348   7.322  0.0174 -0.1578  0.9302
18970THY    HP555025   6.425   5.250   7.369 -0.9773  0.5097  1.1748
18970THY    HP655026   6.315   5.344   7.290 -0.3405  1.0906 -1.7859
18970THY    HP755027   6.433   5.425   7.399  0.2894  1.7535 -0.9583
18970THY    CA355028   6.484   5.159   7.094 -0.1773 -0.1205 -0.1070
18970THY    HA355029   6.513   5.122   7.192  0.5327 -0.8620 -1.5824
18970THY    CA455030   6.452   5.069   6.992 -0.0741  0.1019 -0.4726
18970THY    HA455031   6.468   4.963   7.011  2.7572  0.1576 -0.1112
18970THY    CA555032   6.409   5.119   6.866  0.4632  0.2370 -0.6149
18970THY    CM155033   6.381   5.029   6.748  0.1649 -0.0063  0.1627
18970THY    HM155034   6.275   5.001   6.744  0.5380 -0.3168 -1.2896
18970THY    HM255035   6.447   4.943   6.764 -1.0201  1.8014 -0.4788
18970THY    HM355036   6.410   5.069   6.650 -1.3117  0.0211  1.3567
18970THY    CA655037   6.390   5.254   6.850 -0.5807  0.2855 -0.4046
18970THY    HA655038   6.345   5.292   6.759 -0.6332 -0.0440 -1.2301
18971THY      O55039   5.697   5.352   2.865 -0.5009  0.2712  0.7774
18971THY     HO55040   5.633   5.406   2.915 -0.7756  2.0763 -1.0840
18971THY    CA155041   5.816   5.402   2.904  0.0854  0.6854  0.5427
18971THY    CA255042   5.928   5.314   2.909 -0.3426  0.2398  0.0644
18971THY    CP155043   5.906   5.170   2.859  0.5031 -0.0558  0.4835
18971THY    HP155044   5.841   5.172   2.771 -0.4277  0.6105  0.1899
18971THY    CP255045   5.835   5.093   2.975 -0.6323  0.1798  0.3474
18971THY    HP255046   5.760   5.155   3.027 -0.0849 -1.1311  2.1967
18971THY    HP355047   5.901   5.079   3.061 -0.6517  0.1238 -0.1042
18971THY    HP455048   5.788   5.000   2.942 -1.0623  1.5230  0.0721
18971THY    CP355049   6.036   5.095   2.821 -0.0892 -0.2836  0.0548
18971THY    HP555050   6.009   4.991   2.799 -1.5698 -0.5406  0.4667
18971THY    HP655051   6.112   5.096   2.900 -0.0660 -0.3068  0.0886
18971THY    HP755052   6.071   5.136   2.726 -0.0221 -0.8760 -1.3232
18971THY    CA355053   6.057   5.368   2.928  0.4549 -0.3533  0.2351
18971THY    HA355054   6.146   5.307   2.924  1.3468 -0.8959  1.5228
18971THY    CA455055   6.073   5.503   2.948  0.3862  0.3103  0.0147
18971THY    HA455056   6.174   5.542   2.948  1.1242  0.5780 -1.7982
18971THY    CA555057   5.967   5.590   2.933 -0.3807  0.6817 -0.1128
18971THY    CM155058   5.987   5.739   2.953  0.0670 -0.5963  0.5169
18971THY    HM155059   6.026   5.793   2.866  3.6464  0.0374 -0.8063
18971THY    HM255060   6.060   5.754   3.034 -0.9350  0.4519 -0.0997
18971THY    HM355061   5.893   5.785   2.986  1.2511  0.6205  2.1977
18971THY    CA655062   5.840   5.543   2.916  0.2948 -0.2715  0.0816
18971THY    HA655063   5.753   5.609   2.918 -1.9449  1.6737 -2.6971
18972THY      O55064   1.796   1.701   3.387 -0.1286  0.3221 -0.9270
18972THY     HO55065   1.753   1.788   3.398  2.9175 -1.3441  0.9669
18972THY    CA155066   1.865   1.687   3.498  0.6922 -0.2715 -0.1875
18972THY    CA255067   1.984   1.616   3.511  0.1605  0.0385  0.2707
18972THY    CP155068   2.050   1.545   3.399  0.4675 -0.4636 -0.6779
18972THY    HP155069   1.993   1.551   3.305  2.6316 -1.7814  0.4443
18972THY    CP255070   2.085   1.405   3.436 -0.0580 -0.2890 -0.0464
18972THY    HP255071   2.003   1.344   3.476 -1.0126  0.7767  1.8486
18972THY    HP355072   2.168   1.418   3.507 -0.2962 -0.5149  3.8891
18972THY    HP455073   2.117   1.350   3.346  1.0425  0.6217 -0.9583
18972THY    CP355074   2.176   1.621   3.357 -0.1522  0.4741  0.2544
18972THY    HP555075   2.235   1.642   3.447 -1.9109  1.5483  0.7749
18972THY    HP655076   2.146   1.714   3.307  0.6478 -1.0458 -0.2683
18972THY    HP755077   2.245   1.566   3.292 -2.2380 -0.5324 -1.2635
18972THY    CA355078   2.052   1.614   3.644 -0.1027 -0.4223  0.1827
18972THY    HA355079   2.148   1.565   3.661  0.5673  1.1512  1.9195
18972THY    CA455080   1.982   1.667   3.752 -0.1542 -0.7167 -0.9113
18972THY    HA455081   2.016   1.660   3.855 -0.8960 -0.3534  0.4082
18972THY    CA555082   1.863   1.736   3.733 -0.3440 -0.4176 -0.6666
18972THY    CM155083   1.774   1.779   3.849 -0.1242  0.2495  0.2931
18972THY    HM155084   1.686   1.840   3.822 -0.0543 -2.9233 -0.8594
18972THY    HM255085   1.834   1.825   3.928  0.4634  1.2726 -2.1127
18972THY    HM355086   1.739   1.691   3.904 -0.5161  1.7455  1.3296
18972THY    CA655087   1.812   1.759   3.604  0.3817  0.3659 -0.0434
18972THY    HA655088   1.717   1.810   3.597  0.9104 -0.8212  0.8195
18973THY      O55089   3.645   8.702   6.164 -0.1052 -0.6771 -0.2245
18973THY     HO55090   3.668   8.797   6.162  0.6297 -0.6315 -0.3927
18973THY    CA155091   3.576   8.673   6.277 -0.4159  0.0132  0.5614
18973THY    CA255092   3.604   8.557   6.356  0.0876  0.2100  0.0191
18973THY    CP155093   3.712   8.458   6.298  0.0313 -0.1722 -0.0056
18973THY    HP155094   3.720   8.463   6.189  0.5661 -0.0985  1.0582
18973THY    CP255095   3.689   8.312   6.330  0.3614  0.2283 -0.0998
18973THY    HP255096   3.600   8.263   6.290 -0.9384  3.6765 -0.8489
18973THY    HP355097   3.694   8.293   6.438 -0.4809 -0.0565 -2.2902
18973THY    HP455098   3.771   8.247   6.298 -2.4128  0.7420 -4.2248
18973THY    CP355099   3.847   8.497   6.363 -0.1879  0.0810 -0.7153
18973THY    HP555100   3.928   8.480   6.291  1.2656  0.0840  4.4807
18973THY    HP655101   3.852   8.432   6.451 -1.8436 -0.0221 -1.0279
18973THY    HP755102   3.845   8.603   6.393  0.4066  0.9118 -0.9271
18973THY    CA355103   3.525   8.538   6.470 -0.9143  0.1034  0.1537
18973THY    HA355104   3.539   8.452   6.534 -0.2295 -0.9557 -0.5454
18973THY    CA455105   3.423   8.628   6.503 -0.1174  0.2699 -0.1844
18973THY    HA455106   3.373   8.620   6.599  0.9753  0.8145 -0.6405
18973THY    CA555107   3.408   8.745   6.426  0.1189 -0.9027 -0.2434
18973THY    CM155108   3.317   8.840   6.485 -0.1274 -0.4158 -0.2536
18973THY    HM155109   3.349   8.897   6.572 -1.4997  1.1972 -1.8053
18973THY    HM255110   3.236   8.780   6.529  2.3889  1.2574 -2.6659
18973THY    HM355111   3.280   8.904   6.404  1.0371 -1.8655 -1.3330
18973THY    CA655112   3.481   8.760   6.315 -0.0366  0.7065 -0.2709
18973THY    HA655113   3.475   8.852   6.259  1.0807 -0.8151 -1.0815
18974THY      O55114   0.975   4.759   7.245 -0.1234 -0.0939  0.3378
18974THY     HO55115   0.929   4.819   7.307  0.6603  1.1106 -0.2631
18974THY    CA155116   0.908   4.764   7.120  1.0952 -0.0545 -0.7904
18974THY    CA255117   0.960   4.698   7.009 -0.4238  0.1593  0.2380
18974THY    CP155118   1.099   4.638   7.013 -0.6528 -0.2069  0.8317
18974THY    HP155119   1.134   4.608   7.113  0.8623 -1.8139 -3.7510
18974THY    CP255120   1.199   4.743   6.953  0.8010 -0.4613  1.0395
18974THY    HP255121   1.298   4.698   6.955 -0.4400  1.7933 -1.9015
18974THY    HP355122   1.195   4.828   7.022  0.8241 -0.6415  1.1873
18974THY    HP455123   1.171   4.758   6.848 -1.1007 -0.5358 -2.0856
18974THY    CP355124   1.103   4.504   6.945 -0.3596  0.3632 -0.0066
18974THY    HP555125   1.107   4.518   6.836 -1.7281  0.0084 -1.9803
18974THY    HP655126   1.010   4.447   6.960  0.3466  3.0020 -0.6006
18974THY    HP755127   1.190   4.447   6.981 -1.2231  1.7463 -0.4871
18974THY    CA355128   0.885   4.701   6.888  1.0592  0.4561  0.7669
18974THY    HA355129   0.921   4.640   6.806 -1.0376  2.0826 -3.0664
18974THY    CA455130   0.760   4.766   6.887 -0.0599  0.3539 -0.0749
18974THY    HA455131   0.700   4.776   6.797 -0.0441  0.3134 -0.3332
18974THY    CA555132   0.708   4.826   7.011 -0.2040  0.5888 -0.2291
18974THY    CM155133   0.575   4.889   7.018  0.6601  0.3035  0.6422
18974THY    HM155134   0.545   4.928   6.919 -1.7455  0.4741 -0.5871
18974THY    HM255135   0.583   4.972   7.088  1.5498  2.6739 -1.3218
18974THY    HM355136   0.488   4.826   7.041  0.7484  1.0555  0.7874
18974THY    CA655137   0.786   4.828   7.121  0.1830  0.1480 -0.3348
18974THY    HA655138   0.754   4.876   7.213  0.9198  0.4281 -0.3694
18975THY      O55139   1.430   7.240   1.969 -0.5970 -0.6901  0.3453
18975THY     HO55140   1.351   7.202   2.011  0.6865  0.6767 -0.9204
18975THY    CA155141   1.491   7.333   2.041 -0.0595 -0.3072 -0.0363
18975THY    CA255142   1.627   7.327   2.070 -0.3919 -0.1161  0.8418
18975THY    CP155143   1.709   7.195   2.057 -0.5377  0.2113 -0.0897
18975THY    HP155144   1.663   7.142   1.973  0.0542 -0.0671 -0.1700
18975THY    CP255145   1.695   7.117   2.187 -0.1840 -0.3648 -0.3211
18975THY    HP255146   1.730   7.015   2.167  1.2704  1.5069 -0.2577
18975THY    HP355147   1.590   7.111   2.216 -0.2271 -0.1766  1.0066
18975THY    HP455148   1.763   7.167   2.257 -3.0214  0.9717  1.9344
18975THY    CP355149   1.856   7.210   2.026 -0.1917  0.3813 -0.0994
18975THY    HP555150   1.908   7.114   2.022 -0.7244 -0.3476 -0.3659
18975THY    HP655151   1.914   7.277   2.090 -0.4578  2.0699 -1.4125
18975THY    HP755152   1.865   7.261   1.930 -0.9177  0.0952 -0.4952
18975THY    CA355153   1.682   7.432   2.145 -0.5049  0.6797  0.0572
18975THY    HA355154   1.782   7.433   2.188 -0.0581 -0.3236  0.3070
18975THY    CA455155   1.611   7.548   2.160  0.9462 -0.1826 -0.6270
18975THY    HA455156   1.648   7.632   2.219  1.4685  1.0094 -1.6693
18975THY    CA555157   1.477   7.559   2.121  0.1738  0.5134  0.6363
18975THY    CM155158   1.404   7.692   2.151  0.1703  0.0968  0.0359
18975THY    HM155159   1.423   7.744   2.245  0.5525 -1.4792  2.9565
18975THY    HM255160   1.298   7.664   2.151  0.3587  1.2135 -0.7418
18975THY    HM355161   1.422   7.765   2.071 -1.8127 -1.7707 -1.3925
18975THY    CA655162   1.414   7.447   2.065 -0.1908 -0.2552 -0.0997
18975THY    HA655163   1.307   7.445   2.043 -0.2383 -0.4134  1.9860
18976THY      O55164   2.201   5.715   4.769 -0.5815 -0.1849  0.5396
18976THY     HO55165   2.137   5.747   4.835 -0.1333 -0.0743  1.2090
18976THY    CA155166   2.203   5.586   4.787  0.8938  0.2465  0.2632
18976THY    CA255167   2.124   5.500   4.704 -0.0002  0.0453 -0.4068
18976THY    CP155168   2.047   5.548   4.578 -0.6568 -0.5066 -0.6883
18976THY    HP155169   2.001   5.644   4.606 -0.4197 -0.3663 -0.6140
18976THY    CP255170   1.945   5.453   4.508 -0.2212 -0.7676  0.2753
18976THY    HP255171   1.885   5.517   4.442 -1.4978 -0.1150 -0.2224
18976THY    HP355172   1.878   5.415   4.586 -2.6778 -2.5614  0.6774
18976THY    HP455173   1.993   5.373   4.450 -0.1020 -1.6053  0.9310
18976THY    CP355174   2.161   5.593   4.485 -0.4567  0.1325  0.6466
18976THY    HP555175   2.230   5.510   4.466 -3.1184 -0.0972 -1.6719
18976THY    HP655176   2.215   5.682   4.518  1.8452 -1.7214  0.0453
18976THY    HP755177   2.110   5.601   4.388  2.6625 -1.6457  0.2832
18976THY    CA355178   2.136   5.363   4.726 -0.2395  0.3636 -0.3523
18976THY    HA355179   2.090   5.294   4.656  0.1408 -1.5232  1.2281
18976THY    CA455180   2.215   5.316   4.833  0.6304 -0.1711  0.1179
18976THY    HA455181   2.219   5.209   4.851 -1.1853  0.0827  0.0607
18976THY    CA555182   2.295   5.399   4.910 -0.5537  0.0328 -0.2507
18976THY    CM155183   2.382   5.348   5.022  0.7717 -0.3067  0.5990
18976THY    HM155184   2.332   5.299   5.107  1.6567 -0.1841 -0.1269
18976THY    HM255185   2.445   5.427   5.064  3.7849 -0.7175 -1.4095
18976THY    HM355186   2.453   5.276   4.980  1.9380  0.0255  1.5289
18976THY    CA655187   2.277   5.538   4.895  0.2011 -0.0227 -0.4903
18976THY    HA655188   2.334   5.609   4.954  1.2936  1.1349 -2.2515
18977THY      O55189   7.367   5.170   2.456 -0.0688 -0.4332  0.7619
18977THY     HO55190   7.288   5.172   2.513  0.2814  0.0799  0.2418
18977THY    CA155191   7.444   5.275   2.483 -0.1368 -0.4158  0.5663
18977THY    CA255192   7.582   5.271   2.457  0.4439  0.1987 -0.0247
18977THY    CP155193   7.644   5.148   2.400  0.1085  0.1600  0.3616
18977THY    HP155194   7.573   5.081   2.351  1.0776 -0.5728 -0.1617
18977THY    CP255195   7.728   5.068   2.498 -0.6594 -0.2391  1.0142
18977THY    HP255196   7.668   5.018   2.575  3.0847  1.2812 -1.5670
18977THY    HP355197   7.791   5.128   2.564  0.1962  1.1325 -1.2643
18977THY    HP455198   7.789   4.990   2.452  0.2016  0.4596  1.2600
18977THY    CP355199   7.730   5.186   2.282 -0.2268 -0.0095 -0.0996
18977THY    HP555200   7.677   5.256   2.217  2.1656 -0.0993  1.7699
18977THY    HP655201   7.766   5.097   2.229 -0.0995 -0.9086  0.4761
18977THY    HP755202   7.815   5.242   2.322 -0.9354  1.2632  0.1056
18977THY    CA355203   7.661   5.392   2.485 -0.2323  0.0106 -0.5912
18977THY    HA355204   7.764   5.396   2.450 -1.1175 -2.8313 -0.0580
18977THY    CA455205   7.586   5.506   2.534 -0.2620  0.2081  0.1676
18977THY    HA455206   7.641   5.597   2.556 -0.3960 -0.4218  0.4081
18977THY    CA555207   7.450   5.502   2.562 -0.5912 -0.0390 -0.1927
18977THY    CM155208   7.379   5.611   2.614 -0.0391 -0.0960 -0.8845
18977THY    HM155209   7.273   5.595   2.636 -0.0906 -1.0170 -1.9031
18977THY    HM255210   7.384   5.700   2.550 -0.4888 -0.1725 -0.9144
18977THY    HM355211   7.421   5.652   2.707 -0.6589  0.7351 -2.0589
18977THY    CA655212   7.383   5.385   2.544  0.0733  0.2710  0.1013
18977THY    HA655213   7.279   5.375   2.575 -0.2115 -1.2107 -2.2713
18978THY      O55214   6.238   3.104   1.713  0.5129 -0.4150  0.0184
18978THY     HO55215   6.170   3.037   1.699 -1.2191 -1.5377  1.8904
18978THY    CA155216   6.337   3.053   1.795 -0.8842  0.6754  0.5101
18978THY    CA255217   6.461   3.114   1.798  0.3616 -0.7552  0.2670
18978THY    CP155218   6.496   3.219   1.704  0.4850 -0.4858 -0.3505
18978THY    HP155219   6.419   3.228   1.627  0.4790 -0.3995  0.3984
18978THY    CP255220   6.634   3.200   1.645 -0.4486  0.0431  0.3481
18978THY    HP255221   6.648   3.241   1.545  0.2749 -0.6311 -1.4474
18978THY    HP355222   6.636   3.090   1.643 -1.5234  1.2215  0.2789
18978THY    HP455223   6.708   3.230   1.719 -0.4898  0.3439 -0.2739
18978THY    CP355224   6.486   3.352   1.756  0.2110  0.4625 -0.3482
18978THY    HP555225   6.565   3.361   1.832  0.1757  0.4360  0.2173
18978THY    HP655226   6.384   3.356   1.795 -0.4098 -0.8956 -1.9178
18978THY    HP755227   6.521   3.423   1.680 -0.8297  0.7061  0.4416
18978THY    CA355228   6.555   3.078   1.904  0.0578 -0.1014 -0.0828
18978THY    HA355229   6.655   3.120   1.906 -0.0213 -0.7893  0.1588
18978THY    CA455230   6.524   2.964   1.978 -0.0029  0.1236 -0.5638
18978THY    HA455231   6.592   2.935   2.057 -0.7338  1.0760  0.2519
18978THY    CA555232   6.400   2.897   1.966 -0.0419 -0.2075  0.3477
18978THY    CM155233   6.374   2.772   2.052 -0.0646  0.0794 -0.2965
18978THY    HM155234   6.373   2.674   2.003  1.3475  0.0041 -0.2824
18978THY    HM255235   6.274   2.777   2.098  0.8427  2.4303 -2.1723
18978THY    HM355236   6.444   2.777   2.136 -1.5561  1.2935  2.7412
18978THY    CA655237   6.305   2.949   1.880  0.4046  0.3076  0.4385
18978THY    HA655238   6.208   2.901   1.873  0.6432  0.0352 -0.0065
18979THY      O55239   6.782   4.405   7.063  0.1341  0.3595  0.0803
18979THY     HO55240   6.837   4.479   7.093  3.1270  1.7570 -2.4681
18979THY    CA155241   6.868   4.298   7.061 -0.0095 -0.1883  0.5930
18979THY    CA255242   6.821   4.173   7.024 -0.2993  0.3946 -0.1513
18979THY    CP155243   6.676   4.147   6.998  0.2826 -0.1060  0.2818
18979THY    HP155244   6.631   4.211   7.075  1.0512  0.3922  0.2432
18979THY    CP255245   6.625   4.007   7.008  0.5233 -1.0441 -0.3246
18979THY    HP255246   6.639   3.941   6.922 -1.2687 -1.3314 -0.3792
18979THY    HP355247   6.518   4.019   7.027  0.8161 -0.4749  1.7623
18979THY    HP455248   6.669   3.957   7.095  3.0993 -2.2815 -0.3260
18979THY    CP355249   6.624   4.188   6.864 -0.3278  0.1760 -0.0693
18979THY    HP555250   6.647   4.291   6.837  2.0996 -3.6205 -1.3816
18979THY    HP655251   6.516   4.175   6.851 -0.2623 -0.4331 -0.0246
18979THY    HP755252   6.677   4.127   6.790 -1.9033 -1.1400  0.1129
18979THY    CA355253   6.917   4.066   6.995  0.0007 -0.4091  0.3414
18979THY    HA355254   6.888   3.970   6.953  1.5563  1.5272 -1.0868
18979THY    CA455255   7.048   4.084   7.041 -0.2900  0.3836  0.1858
18979THY    HA455256   7.119   4.002   7.030 -2.0769  0.8333 -1.5073
18979THY    CA555257   7.094   4.210   7.082  0.0572 -0.7422 -0.0412
18979THY    CM155258   7.237   4.240   7.120  0.5253  0.4508 -0.2017
18979THY    HM155259   7.255   4.343   7.154 -1.1595 -0.3837  0.4014
18979THY    HM255260   7.305   4.206   7.041  0.4401  0.9768 -1.6614
18979THY    HM355261   7.249   4.185   7.214  4.4662 -0.9581 -2.1462
18979THY    CA655262   7.001   4.312   7.099 -0.4842  0.5300  0.2049
18979THY    HA655263   7.040   4.403   7.144 -2.6189  0.2150  1.3317
18980THY      O55264   6.740   4.869   1.925 -0.2836 -0.1275 -0.0380
18980THY     HO55265   6.821   4.921   1.943 -0.4366 -0.5784  0.3654
18980THY    CA155266   6.666   4.880   2.042  0.6189  0.4659  0.1676
18980THY    CA255267   6.555   4.798   2.069  0.3269  0.5290 -0.2790
18980THY    CP155268   6.513   4.690   1.967  0.0781  0.0799 -0.1578
18980THY    HP155269   6.592   4.700   1.891  1.5735  1.3604 -1.6519
18980THY    CP255270   6.370   4.716   1.904 -0.8569  0.6628 -0.4478
18980THY    HP255271   6.367   4.816   1.858  0.4009 -0.3139 -0.8445
18980THY    HP355272   6.297   4.723   1.986 -2.9927 -1.1707 -0.2614
18980THY    HP455273   6.348   4.641   1.828 -1.2040  1.8878 -1.6212
18980THY    CP355274   6.508   4.548   2.018 -0.7823 -0.1439 -0.1640
18980THY    HP555275   6.433   4.541   2.098 -0.7866 -0.2842 -2.1880
18980THY    HP655276   6.600   4.513   2.066 -0.8780 -0.5498 -0.9987
18980THY    HP755277   6.493   4.475   1.938 -0.8424  0.2629 -0.6028
18980THY    CA355278   6.494   4.809   2.193  0.3088 -0.2981 -0.4895
18980THY    HA355279   6.409   4.746   2.218 -1.7041 -2.2472  1.2626
18980THY    CA455280   6.538   4.916   2.275  0.5288  0.1193 -0.5232
18980THY    HA455281   6.474   4.934   2.362 -0.4928 -1.0794  2.1021
18980THY    CA555282   6.645   5.005   2.249 -0.2585  0.2655 -0.4664
18980THY    CM155283   6.673   5.127   2.326  0.0419 -0.1048 -0.1290
18980THY    HM155284   6.619   5.212   2.282  0.1939  2.4699  1.4189
18980THY    HM255285   6.780   5.146   2.337 -0.2852  2.5283  0.5904
18980THY    HM355286   6.638   5.125   2.430  1.4964  0.4112 -2.8795
18980THY    CA655287   6.705   4.987   2.125  0.1579 -0.7440  0.1239
18980THY    HA655288   6.786   5.052   2.094 -2.0860 -1.6387  2.6945
18981THY      O55289   3.252   8.527   4.651 -0.2339  0.5288 -0.6220
18981THY     HO55290   3.299   8.546   4.734 -0.3397  0.6764 -1.0007
18981THY    CA155291   3.317   8.596   4.548 -0.4887 -0.0835  0.5237
18981THY    CA255292   3.258   8.710   4.492  0.6506 -0.5933  0.6471
18981THY    CP155293   3.121   8.754   4.544  0.3670 -0.3061  0.7362
18981THY    HP155294   3.064   8.676   4.594  0.6942 -0.2556  0.5299
18981THY    CP255295   3.024   8.793   4.433  0.6033 -0.4683 -0.1835
18981THY    HP255296   2.926   8.822   4.472  0.3861  0.4113 -1.9716
18981THY    HP355297   3.003   8.708   4.367  0.5688  1.0483 -1.3976
18981THY    HP455298   3.070   8.874   4.375  1.2830 -2.4807 -1.9113
18981THY    CP355299   3.126   8.864   4.652 -0.4450  0.4060 -0.0781
18981THY    HP555300   3.177   8.820   4.738 -1.9382 -0.5810 -4.1309
18981THY    HP655301   3.026   8.894   4.684 -0.9426 -0.6871 -0.4992
18981THY    HP755302   3.176   8.952   4.610 -0.2576  0.9149  0.0603
18981THY    CA355303   3.329   8.775   4.394 -0.8135 -0.2526 -0.5131
18981THY    HA355304   3.282   8.855   4.337 -2.0083  0.8169 -0.4393
18981THY    CA455305   3.445   8.714   4.343 -0.5100  0.2452 -0.1112
18981THY    HA455306   3.491   8.754   4.253  0.5934  0.3470 -1.0818
18981THY    CA555307   3.499   8.599   4.395 -0.4122  0.5889 -0.1115
18981THY    CM155308   3.614   8.518   4.323 -0.3564  0.1724 -0.2717
18981THY    HM155309   3.599   8.509   4.214 -1.4265  0.3044 -0.2158
18981THY    HM255310   3.614   8.414   4.357 -0.0103 -2.7089 -1.3217
18981THY    HM355311   3.711   8.561   4.350  0.4671 -0.7983 -1.4338
18981THY    CA655312   3.436   8.539   4.503  0.3095 -0.3130  0.1457
18981THY    HA655313   3.463   8.445   4.549 -1.9181  0.4535 -0.1734
18982THY      O55314   2.104   8.505   3.153 -0.5562 -0.1998  0.0810
18982THY     HO55315   2.032   8.518   3.089 -1.2531  0.8854  2.1177
18982THY    CA155316   2.189   8.607   3.134 -0.5071 -0.4082  0.1121
18982THY    CA255317   2.329   8.586   3.153  0.9664 -0.0740 -0.8765
18982THY    CP155318   2.397   8.458   3.203 -0.3912  0.7560 -0.0692
18982THY    HP155319   2.317   8.388   3.231 -0.1809  1.8589  0.1125
18982THY    CP255320   2.487   8.474   3.335  0.2219 -0.2289 -0.2862
18982THY    HP255321   2.545   8.567   3.342  0.3488 -0.3293 -0.3587
18982THY    HP355322   2.567   8.400   3.339 -0.4376  0.0804 -0.9954
18982THY    HP455323   2.417   8.468   3.419 -0.8166 -0.7927  2.3632
18982THY    CP355324   2.496   8.398   3.097 -0.2809  0.1858  0.6020
18982THY    HP555325   2.449   8.384   3.000  1.6939 -0.8632  0.9427
18982THY    HP655326   2.543   8.305   3.130  0.7428  0.3817  1.1696
18982THY    HP755327   2.579   8.470   3.098  2.9402  3.8884 -2.6179
18982THY    CA355328   2.408   8.698   3.128  0.3331 -0.2358 -0.3292
18982THY    HA355329   2.516   8.692   3.130  0.4125  0.2129  0.9843
18982THY    CA455330   2.354   8.819   3.084 -0.2548 -0.2267 -0.3819
18982THY    HA455331   2.415   8.906   3.062  0.5720  1.3158 -0.5275
18982THY    CA555332   2.226   8.830   3.057  0.5029 -0.2322  0.7561
18982THY    CM155333   2.174   8.963   3.006 -0.0074  0.3300 -0.3522
18982THY    HM155334   2.138   8.945   2.904  0.3837 -0.3410  2.2869
18982THY    HM255335   2.252   9.039   2.999 -0.9326  1.3121  0.7295
18982THY    HM355336   2.090   9.001   3.065 -0.6848 -0.5864 -0.3861
18982THY    CA655337   2.141   8.724   3.081  0.2117 -0.2811 -0.5610
18982THY    HA655338   2.034   8.741   3.085  0.7058  2.4621  3.1130
18983THY      O55339   1.754   6.479   5.146  0.6157 -0.3478 -0.3642
18983THY     HO55340   1.723   6.542   5.078 -1.8419 -1.0453 -2.1505
18983THY    CA155341   1.644   6.467   5.221 -0.1477  0.0492 -0.1504
18983THY    CA255342   1.626   6.352   5.306  0.3537  0.3641 -0.0896
18983THY    CP155343   1.733   6.240   5.308 -0.2391 -0.4350  0.8295
18983THY    HP155344   1.833   6.276   5.283 -0.0462  0.5984  1.0316
18983THY    CP255345   1.690   6.130   5.205 -0.1887 -0.2087  0.0502
18983THY    HP255346   1.593   6.083   5.226 -1.0266 -1.8128  0.9881
18983THY    HP355347   1.771   6.055   5.200 -0.6626  0.8628 -0.5659
18983THY    HP455348   1.686   6.183   5.110  1.7366 -1.8815 -2.5482
18983THY    CP355349   1.741   6.177   5.442 -0.1787 -0.2106 -0.2157
18983THY    HP555350   1.657   6.109   5.456 -0.2618  1.2081  0.1514
18983THY    HP655351   1.762   6.259   5.511 -0.1593 -1.4451  0.8467
18983THY    HP755352   1.830   6.112   5.437  1.0385  0.2778  1.3456
18983THY    CA355353   1.503   6.347   5.380 -0.2986 -0.6488 -0.4341
18983THY    HA355354   1.496   6.257   5.441 -1.1837  0.6999  0.5211
18983THY    CA455355   1.414   6.448   5.377 -0.2153  0.0758 -0.4053
18983THY    HA455356   1.331   6.446   5.446  0.1223  0.5411  0.9153
18983THY    CA555357   1.437   6.561   5.291 -0.1756  0.2226 -0.5740
18983THY    CM155358   1.354   6.692   5.292  0.7044 -0.3318  0.1329
18983THY    HM155359   1.414   6.782   5.309  0.0087 -1.1957  0.7770
18983THY    HM255360   1.269   6.684   5.361 -0.2665 -1.3132  1.5436
18983THY    HM355361   1.309   6.714   5.194  1.3301 -0.0752  2.8637
18983THY    CA655362   1.555   6.570   5.216  0.6457 -0.4388 -0.6126
18983THY    HA655363   1.575   6.663   5.164 -0.1738 -1.0911 -0.7873
18984THY      O55364   7.884   3.874   7.601 -0.1250  0.1532 -0.0561
18984THY     HO55365   7.865   3.824   7.682  1.9015  0.2192 -0.7698
18984THY    CA155366   7.845   3.799   7.494 -0.1217 -0.3442 -0.0241
18984THY    CA255367   7.909   3.792   7.372  0.6296 -0.2296 -0.1281
18984THY    CP155368   8.043   3.868   7.351 -0.2278  0.0345  0.1946
18984THY    HP155369   8.077   3.905   7.449  0.4607 -0.3489  0.6143
18984THY    CP255370   8.030   3.992   7.262 -0.0156 -0.0832  0.7624
18984THY    HP255371   8.128   4.041   7.255 -0.2992 -0.6688  1.2659
18984THY    HP355372   7.958   4.060   7.309  0.3478  2.2863 -0.3881
18984THY    HP455373   7.991   3.972   7.161 -0.6707  0.3926 -0.4405
18984THY    CP355374   8.159   3.778   7.307 -0.1774 -0.4836  0.3688
18984THY    HP555375   8.255   3.831   7.313 -0.0670  1.2278  0.0306
18984THY    HP655376   8.145   3.740   7.206 -1.0425  0.3306 -1.5960
18984THY    HP755377   8.161   3.682   7.361  1.7860  1.2508  1.2894
18984THY    CA355378   7.858   3.712   7.270  0.1998  0.4563  0.1865
18984THY    HA355379   7.912   3.713   7.176  1.0917  0.9537  0.5426
18984THY    CA455380   7.731   3.645   7.287 -0.0045 -0.0837 -0.2842
18984THY    HA455381   7.683   3.590   7.206 -0.4043 -1.7037  2.2684
18984THY    CA555382   7.673   3.652   7.410  0.1140 -0.4219 -0.1057
18984THY    CM155383   7.543   3.582   7.437 -1.1551 -0.9284 -0.1929
18984THY    HM155384   7.572   3.476   7.447 -0.5548  1.3406  0.1332
18984THY    HM255385   7.475   3.588   7.352 -1.3950 -0.6781  0.7038
18984THY    HM355386   7.489   3.619   7.524 -2.7990 -2.2562  0.6395
18984THY    CA655387   7.728   3.724   7.519  0.5870  0.7309 -0.4054
18984THY    HA655388   7.688   3.717   7.619 -1.2929  0.0063 -0.6012
18985THY      O55389   6.611   7.979   3.662  0.0459 -0.0585  0.0091
18985THY     HO55390   6.532   7.924   3.669 -0.2226 -1.4920  0.1860
18985THY    CA155391   6.708   7.932   3.741  0.4970 -0.1872  0.1264
18985THY    CA255392   6.833   7.992   3.764  0.2490  0.5461 -0.5244
18985THY    CP155393   6.880   8.116   3.681 -0.1758  0.3289  0.7604
18985THY    HP155394   6.792   8.167   3.639 -0.4221 -0.9472 -0.6494
18985THY    CP255395   6.987   8.082   3.577 -0.1877 -0.4751 -0.2332
18985THY    HP255396   7.067   8.040   3.640 -0.8799  0.5854 -0.0043
18985THY    HP355397   7.023   8.169   3.522 -1.6480 -0.7824  0.2160
18985THY    HP455398   6.943   8.013   3.504  0.2318 -1.0064  0.0610
18985THY    CP355399   6.929   8.226   3.773  0.4263  0.2854 -0.3499
18985THY    HP555400   6.869   8.240   3.864 -2.0982 -1.4089  0.7693
18985THY    HP655401   6.932   8.329   3.736 -0.9555  0.8253 -0.0902
18985THY    HP755402   7.032   8.201   3.800  0.3237  0.1271 -0.9538
18985THY    CA355403   6.920   7.941   3.856  0.0199  0.1046 -0.1180
18985THY    HA355404   7.020   7.975   3.881  0.1998 -2.8405  1.9079
18985THY    CA455405   6.884   7.821   3.923  0.2970 -0.1392  0.1451
18985THY    HA455406   6.962   7.773   3.982 -0.5348  1.5715  0.7985
18985THY    CA555407   6.757   7.773   3.917  0.2330 -0.2754 -0.5797
18985THY    CM155408   6.729   7.642   3.988  0.4862 -0.8250 -0.7953
18985THY    HM155409   6.808   7.570   3.964  1.3340  1.7628 -0.8193
18985THY    HM255410   6.631   7.606   3.954  1.0249 -2.3361 -0.9279
18985THY    HM355411   6.734   7.653   4.097  1.0065 -0.7664 -1.5613
18985THY    CA655412   6.662   7.834   3.831 -0.1914 -0.1918  0.4196
18985THY    HA655413   6.562   7.794   3.813  0.1507 -3.4920  0.7996
18986THY      O55414   5.146   1.404   3.291  0.0552  0.2161 -0.0434
18986THY     HO55415   5.100   1.482   3.256 -1.4000  1.6031 -0.2392
18986THY    CA155416   5.218   1.373   3.181  0.2783  0.2235  0.2312
18986THY    CA255417   5.328   1.281   3.190 -0.0940 -0.2455  0.7116
18986THY    CP155418   5.362   1.207   3.315 -0.5733  0.3192  0.0052
18986THY    HP155419   5.285   1.226   3.390 -0.0466  0.6889  0.7125
18986THY    CP255420   5.490   1.269   3.366  0.5550  0.0790 -0.3043
18986THY    HP255421   5.575   1.267   3.297  1.1703  0.8083  0.2338
18986THY    HP355422   5.528   1.219   3.456 -0.2529 -0.7497 -2.5663
18986THY    HP455423   5.462   1.366   3.409 -1.0453  1.2992 -1.2616
18986THY    CP355424   5.373   1.059   3.309  0.9580  0.3478  0.6531
18986THY    HP555425   5.406   1.011   3.401  0.8049 -1.5149 -3.4591
18986THY    HP655426   5.450   1.020   3.242  0.7041  0.6874 -0.4609
18986THY    HP755427   5.279   1.019   3.269  1.9406 -0.1068 -1.3318
18986THY    CA355428   5.403   1.262   3.076 -0.5464 -0.6937  0.2587
18986THY    HA355429   5.484   1.190   3.077 -1.3359  0.6298 -0.6487
18986THY    CA455430   5.383   1.341   2.961 -0.5945  0.0963  0.6341
18986THY    HA455431   5.440   1.325   2.871 -0.1663  0.7304 -1.7695
18986THY    CA555432   5.279   1.430   2.956 -0.5951  0.4940  0.0042
18986THY    CM155433   5.251   1.501   2.825 -0.3630  0.0848 -0.0588
18986THY    HM155434   5.235   1.430   2.743  1.6264 -1.2210  0.8921
18986THY    HM255435   5.341   1.548   2.784 -0.6296 -1.5485 -0.9125
18986THY    HM355436   5.165   1.568   2.826 -1.4478  1.9913 -1.3722
18986THY    CA655437   5.197   1.448   3.069  0.3256  0.5752 -0.3786
18986THY    HA655438   5.116   1.519   3.061 -0.3403  3.6568 -0.6378
18987THY      O55439   4.382   5.428   6.910 -0.4415 -0.0745 -0.4250
18987THY     HO55440   4.454   5.471   6.860  0.2380  2.5806  1.8726
18987THY    CA155441   4.321   5.348   6.827 -0.3823 -1.2588  0.1767
18987THY    CA255442   4.331   5.212   6.849 -0.6110  0.2649  1.1217
18987THY    CP155443   4.413   5.158   6.960 -1.1267 -0.1466  0.0589
18987THY    HP155444   4.465   5.237   7.016 -0.1572  2.0973 -2.0235
18987THY    CP255445   4.525   5.060   6.915  0.0322 -0.4414 -0.4966
18987THY    HP255446   4.612   5.076   6.980  1.4900 -2.6077  0.7348
18987THY    HP355447   4.557   5.086   6.814  3.4520 -0.2937 -3.4508
18987THY    HP455448   4.474   4.963   6.908 -0.2089 -0.8930 -0.3412
18987THY    CP355449   4.334   5.077   7.058  0.0944  0.2413 -0.0716
18987THY    HP555450   4.402   5.012   7.115  2.3186 -2.2045 -0.0326
18987THY    HP655451   4.270   5.004   7.007 -0.7367 -0.0546  0.8414
18987THY    HP755452   4.266   5.140   7.116 -1.1479 -1.0422 -0.1835
18987THY    CA355453   4.249   5.127   6.764 -0.2973 -0.6067 -0.5915
18987THY    HA355454   4.247   5.020   6.785  0.3968 -0.6816 -0.6225
18987THY    CA455455   4.183   5.187   6.653  0.8635 -0.1480  0.0759
18987THY    HA455456   4.122   5.119   6.594  0.0519  1.8391 -1.0065
18987THY    CA555457   4.181   5.321   6.629  0.6191 -0.3681 -0.2435
18987THY    CM155458   4.091   5.370   6.524 -0.3407 -0.1590 -0.9454
18987THY    HM155459   3.985   5.354   6.546 -0.4365 -0.4950 -0.7769
18987THY    HM255460   4.107   5.318   6.429 -1.7730 -0.7210 -0.4163
18987THY    HM355461   4.115   5.477   6.522  1.9245 -1.7476 -1.4175
18987THY    CA655462   4.248   5.407   6.722  0.3058 -0.0134  1.3207
18987THY    HA655463   4.236   5.515   6.726 -0.8929 -0.2514  1.2098
18988THY      O55464   5.859   3.272   6.441  0.3727  0.1373  0.4659
18988THY     HO55465   5.885   3.318   6.359  1.5437  0.0126 -0.3854
18988THY    CA155466   5.978   3.250   6.508  0.2536 -0.1270  0.3323
18988THY    CA255467   5.983   3.175   6.623  0.2615 -0.3442  0.6145
18988THY    CP155468   5.853   3.126   6.687 -0.0366  0.3324  0.3978
18988THY    HP155469   5.770   3.176   6.636 -1.4985 -0.2424 -2.4512
18988THY    CP255470   5.842   3.166   6.834 -0.1529  0.4157 -0.1492
18988THY    HP255471   5.740   3.151   6.871 -0.3844 -0.7128 -1.6292
18988THY    HP355472   5.878   3.269   6.849  1.3360 -0.2568 -0.5467
18988THY    HP455473   5.915   3.116   6.898 -0.6160  0.3395 -0.9334
18988THY    CP355474   5.847   2.973   6.677  0.3921 -0.3496  0.5997
18988THY    HP555475   5.780   2.942   6.759 -0.0756 -1.2363 -0.8085
18988THY    HP655476   5.930   2.909   6.707 -2.3646  0.3232 -3.0145
18988THY    HP755477   5.805   2.941   6.581 -0.8855  0.7227 -1.1413
18988THY    CA355478   6.105   3.131   6.683 -0.0412 -0.5147 -1.0650
18988THY    HA355479   6.107   3.066   6.770 -1.7439 -1.0970 -1.9776
18988THY    CA455480   6.220   3.156   6.607  0.1921  0.0222 -0.1984
18988THY    HA455481   6.317   3.117   6.639  0.2793 -0.7920 -0.6954
18988THY    CA555482   6.215   3.225   6.485  0.3064  0.1543 -0.0332
18988THY    CM155483   6.341   3.236   6.398  0.1687  0.2148  0.3662
18988THY    HM155484   6.387   3.136   6.397 -1.1447  0.0034 -0.2524
18988THY    HM255485   6.407   3.311   6.442  0.8099 -1.9934  1.2010
18988THY    HM355486   6.323   3.255   6.291  3.0290 -0.6865 -1.3421
18988THY    CA655487   6.095   3.274   6.437 -0.1367 -0.6637 -0.4547
18988THY    HA655488   6.102   3.339   6.351  1.8237 -0.5979 -0.4907
18989THY      O55489   0.996   2.960   3.824  0.1415  0.8207  0.3232
18989THY     HO55490   1.065   3.020   3.789  0.4938 -1.0470 -1.0683
18989THY    CA155491   0.890   3.042   3.828 -0.1901 -0.4735  0.2979
18989THY    CA255492   0.766   3.000   3.877  0.0237 -0.3421 -0.0879
18989THY    CP155493   0.750   2.864   3.936  1.3335 -0.3204  0.4263
18989THY    HP155494   0.847   2.835   3.977  1.0773  0.4510  0.6350
18989THY    CP255495   0.693   2.772   3.830 -0.3003 -0.1679 -0.4193
18989THY    HP255496   0.755   2.754   3.742 -0.8780 -0.5426 -0.6019
18989THY    HP355497   0.604   2.814   3.781  1.0688 -2.0063  0.4386
18989THY    HP455498   0.649   2.681   3.874 -1.2135  0.3099  0.2332
18989THY    CP355499   0.658   2.855   4.062  0.3615  0.0083  0.2162
18989THY    HP555500   0.698   2.926   4.134  1.8951 -0.9815  0.3961
18989THY    HP655501   0.665   2.751   4.097  3.3215  1.0713  0.6950
18989THY    HP755502   0.555   2.878   4.032  0.5227 -0.3674  0.4399
18989THY    CA355503   0.651   3.082   3.856  0.3760  0.4576  0.5882
18989THY    HA355504   0.552   3.055   3.891 -0.7728 -1.7247  1.6717
18989THY    CA455505   0.668   3.209   3.793  0.0200 -0.0616 -0.2677
18989THY    HA455506   0.586   3.266   3.750 -1.0501  0.4645 -1.3766
18989THY    CA555507   0.794   3.259   3.762 -0.0580 -0.5968  0.9329
18989THY    CM155508   0.814   3.379   3.672  0.4595 -0.6519 -0.0715
18989THY    HM155509   0.811   3.475   3.724 -0.7808 -0.6138 -0.1206
18989THY    HM255510   0.726   3.374   3.607 -2.1534  2.7280 -2.4036
18989THY    HM355511   0.910   3.366   3.620  0.0531 -1.7528  1.1553
18989THY    CA655512   0.907   3.172   3.774  0.3998 -0.3467 -0.2548
18989THY    HA655513   1.003   3.194   3.730 -0.5643 -1.8015  1.2940
18990THY      O55514   8.713   1.265   2.502 -0.0023  0.4594  0.1380
18990THY     HO55515   8.746   1.350   2.535 -0.8226 -2.7288  1.8640
18990THY    CA155516   8.822   1.190   2.471 -0.1061 -0.4911 -0.0782
18990THY    CA255517   8.799   1.056   2.435  0.1013 -0.0858  0.8056
18990THY    CP155518   8.669   0.977   2.431  0.4144 -0.6886  0.2379
18990THY    HP155519   8.587   1.048   2.451  0.2539  1.5552 -0.4907
18990THY    CP255520   8.646   0.883   2.549  0.0900  0.0110 -0.3490
18990THY    HP255521   8.679   0.945   2.634 -0.1395 -0.2466  0.1352
18990THY    HP355522   8.715   0.798   2.544 -0.1096  1.5764 -0.6328
18990THY    HP455523   8.544   0.847   2.562  0.0371 -1.1177 -0.6452
18990THY    CP355524   8.648   0.904   2.293 -0.1308 -0.1937  0.3546
18990THY    HP555525   8.543   0.873   2.291 -0.1045 -1.2989  0.2778
18990THY    HP655526   8.704   0.811   2.279 -1.0565  1.1506 -0.4448
18990THY    HP755527   8.664   0.981   2.216  2.3144 -0.3419 -0.2178
18990THY    CA355528   8.909   0.982   2.402 -0.6227  0.8058  0.2092
18990THY    HA355529   8.901   0.881   2.365  0.3843  0.8506  0.1026
18990THY    CA455530   9.036   1.042   2.391 -0.8576 -0.2134  0.4158
18990THY    HA455531   9.127   0.993   2.357 -0.4531  0.5369  0.6311
18990THY    CA555532   9.057   1.170   2.440  0.0788 -0.1077 -0.2760
18990THY    CM155533   9.194   1.219   2.469 -0.4003 -0.2565 -0.2651
18990THY    HM155534   9.219   1.211   2.576  1.3052 -0.7447 -2.1371
18990THY    HM255535   9.226   1.320   2.441  1.8697  0.9356 -0.5749
18990THY    HM355536   9.270   1.152   2.427 -0.3800 -2.8137  1.2012
18990THY    CA655537   8.949   1.248   2.483 -0.0729  0.5984  0.3157
18990THY    HA655538   8.964   1.350   2.517  1.3119  1.9156 -0.2834
18991THY      O55539   9.370   0.863   2.366  0.3395  0.6919 -0.0474
18991THY     HO55540   9.454   0.906   2.340  0.4554  1.6754  0.3434
18991THY    CA155541   9.364   0.879   2.503 -1.0243  0.1375  0.8639
18991THY    CA255542   9.295   0.794   2.587  0.0821 -0.2591 -0.0685
18991THY    CP155543   9.222   0.677   2.518  0.1189 -0.7989  0.4716
18991THY    HP155544   9.203   0.688   2.411 -1.3660 -0.8409 -1.8586
18991THY    CP255545   9.084   0.655   2.579 -0.6855 -0.0740  0.0047
18991THY    HP255546   9.038   0.753   2.562  0.8977 -1.9871  0.4851
18991THY    HP355547   9.087   0.621   2.683  0.5954  0.1010  0.5983
18991THY    HP455548   9.023   0.587   2.517 -0.2599 -3.5589  2.5141
18991THY    CP355549   9.307   0.554   2.524 -0.0464 -0.8299  0.9242
18991THY    HP555550   9.343   0.527   2.624 -5.0358  0.9798 -0.2078
18991THY    HP655551   9.388   0.563   2.450  0.5478 -0.7747 -2.7272
18991THY    HP755552   9.242   0.477   2.481  0.6187 -1.2331  0.5811
18991THY    CA355553   9.306   0.813   2.728 -0.2049  0.3020 -0.1811
18991THY    HA355554   9.261   0.740   2.794 -2.0169 -0.2025  0.4164
18991THY    CA455555   9.367   0.928   2.778 -0.2673  0.4482 -0.3482
18991THY    HA455556   9.383   0.940   2.885 -0.2891  0.1884  3.0265
18991THY    CA555557   9.427   1.024   2.689 -0.0745 -1.1673 -0.2105
18991THY    CM155558   9.504   1.143   2.747 -0.6508  0.4060 -0.0080
18991THY    HM155559   9.540   1.116   2.846 -1.1727  0.4552 -0.5530
18991THY    HM255560   9.438   1.231   2.750 -0.1154 -1.9688  0.5606
18991THY    HM355561   9.586   1.180   2.685 -0.9007 -0.9507 -1.6052
18991THY    CA655562   9.429   0.990   2.553 -0.3279 -0.2942  0.2636
18991THY    HA655563   9.479   1.062   2.488  0.8342  0.4065  0.1209
18992THY      O55564   4.748   1.947   7.598  0.0377 -0.0838 -0.0951
18992THY     HO55565   4.748   2.016   7.529  3.0975 -2.3449 -2.0882
18992THY    CA155566   4.624   1.936   7.651 -0.3816  0.1365  0.1212
18992THY    CA255567   4.587   1.832   7.736  0.9861 -0.5620  0.2110
18992THY    CP155568   4.689   1.724   7.761  0.0953 -0.3878 -0.0518
18992THY    HP155569   4.793   1.757   7.763 -0.2028  1.0821  0.9011
18992THY    CP255570   4.696   1.611   7.655 -0.2319 -0.4239 -0.2089
18992THY    HP255571   4.604   1.552   7.653 -1.4650 -0.5261  1.6221
18992THY    HP355572   4.776   1.541   7.682 -1.4520  1.1259 -1.0730
18992THY    HP455573   4.722   1.647   7.555  2.7852  0.0880 -0.6997
18992THY    CP355574   4.664   1.668   7.910  0.5504  0.8691  0.2953
18992THY    HP555575   4.755   1.626   7.954  0.0275  3.5421  1.7415
18992THY    HP655576   4.575   1.603   7.908  0.1447 -1.1626  0.8381
18992THY    HP755577   4.639   1.751   7.977 -2.7501 -0.1572  0.2906
18992THY    CA355578   4.455   1.819   7.786 -0.1803  0.6213 -0.1660
18992THY    HA355579   4.423   1.738   7.851  0.6652  0.2868 -0.7877
18992THY    CA455580   4.365   1.924   7.758 -0.0118 -0.1128 -0.5764
18992THY    HA455581   4.266   1.926   7.802 -1.1945 -2.5548  2.1899
18992THY    CA555582   4.405   2.037   7.682 -0.0531 -0.0744  0.2552
18992THY    CM155583   4.307   2.152   7.668  0.5856  1.1502 -0.2402
18992THY    HM155584   4.302   2.181   7.562  1.5313  1.1431 -0.0622
18992THY    HM255585   4.358   2.239   7.711  0.8096 -2.0199  1.3461
18992THY    HM355586   4.206   2.135   7.708  0.4270  0.5764 -0.6768
18992THY    CA655587   4.532   2.041   7.628 -1.0673 -0.3428 -0.3236
18992THY    HA655588   4.554   2.124   7.561 -1.5281 -1.2939 -0.9515
18993THY      O55589   7.321   5.851   2.833  0.0915  0.5904 -0.4544
18993THY     HO55590   7.406   5.818   2.866  0.1904 -1.1622 -2.1102
18993THY    CA155591   7.297   5.983   2.865  0.3638 -0.4022  0.8224
18993THY    CA255592   7.188   6.045   2.802 -0.4988 -0.6258  0.2293
18993THY    CP155593   7.085   5.956   2.720  0.1378 -0.3924  0.3507
18993THY    HP155594   7.117   5.851   2.718 -0.5025  1.0066  0.1091
18993THY    CP255595   7.056   6.005   2.573 -0.0749  0.0755  0.3991
18993THY    HP255596   7.021   5.924   2.507 -1.6561 -2.5358  2.9908
18993THY    HP355597   7.157   6.025   2.535  0.1787 -0.3389 -1.4438
18993THY    HP455598   6.987   6.090   2.572 -1.7164  2.1548 -0.8108
18993THY    CP355599   6.958   5.950   2.794 -0.5820 -0.2466  0.2845
18993THY    HP555600   6.899   5.871   2.746  1.8131  0.1749 -1.9265
18993THY    HP655601   6.904   6.045   2.798 -0.3042  0.6290  0.4102
18993THY    HP755602   6.967   5.922   2.899 -0.5221 -0.3759 -0.2034
18993THY    CA355603   7.174   6.183   2.805  0.6185  0.0766  0.0070
18993THY    HA355604   7.090   6.228   2.753 -0.1165  2.2763  1.3277
18993THY    CA455605   7.255   6.258   2.885  0.7361  0.7043 -0.1435
18993THY    HA455606   7.251   6.366   2.898 -0.3370 -0.8902  0.0556
18993THY    CA555607   7.367   6.194   2.945  0.3205  0.3846 -0.3273
18993THY    CM155608   7.463   6.270   3.032  0.4017  0.1739 -0.3700
18993THY    HM155609   7.558   6.290   2.981 -0.8621 -2.0089  0.3582
18993THY    HM255610   7.482   6.213   3.123 -1.8074 -0.2998 -2.0126
18993THY    HM355611   7.418   6.368   3.052 -2.1457 -2.8905 -0.7330
18993THY    CA655612   7.393   6.060   2.936  0.0349  0.6544  0.2337
18993THY    HA655613   7.483   6.024   2.985 -0.6104  2.5835  1.1046
18994THY      O55614   5.938   7.758   4.593 -0.5336 -0.0199 -0.1399
18994THY     HO55615   5.934   7.849   4.627  1.3044  0.2525 -0.1097
18994THY    CA155616   5.909   7.680   4.691  0.9103 -0.3709 -0.0446
18994THY    CA255617   5.920   7.538   4.679  0.3389 -0.2374  0.1983
18994THY    CP155618   5.936   7.471   4.544  0.3549 -0.1122 -0.0422
18994THY    HP155619   5.932   7.540   4.459  0.1024  1.0603  1.4628
18994THY    CP255620   5.811   7.393   4.509  0.3130 -0.2515 -0.6361
18994THY    HP255621   5.821   7.334   4.417  0.1104  0.1172 -1.2627
18994THY    HP355622   5.725   7.461   4.515  1.2501 -1.8780  0.7777
18994THY    HP455623   5.799   7.312   4.582 -0.6693  0.4056  0.0802
18994THY    CP355624   6.064   7.392   4.532  0.6829 -0.9900 -0.1182
18994THY    HP555625   6.147   7.459   4.560 -0.0455 -0.0849  0.4233
18994THY    HP655626   6.081   7.342   4.435 -0.4727 -0.8788 -0.7467
18994THY    HP755627   6.070   7.315   4.610 -0.5882 -0.8257 -0.0669
18994THY    CA355628   5.885   7.459   4.792  0.0854  0.1977 -0.0026
18994THY    HA355629   5.887   7.350   4.787  2.1941  0.3849 -0.0199
18994THY    CA455630   5.870   7.522   4.914  0.6818  0.5676 -0.4749
18994THY    HA455631   5.838   7.462   4.999 -1.7866 -1.4593 -2.2266
18994THY    CA555632   5.867   7.661   4.926 -0.5903  0.1736 -0.1600
18994THY    CM155633   5.826   7.724   5.054 -0.1787  0.8989  0.6875
18994THY    HM155634   5.882   7.674   5.133  0.9223 -0.7464 -0.8258
18994THY    HM255635   5.719   7.704   5.066 -0.2954 -2.1563 -1.2011
18994THY    HM355636   5.860   7.829   5.059  1.4786  0.8079  0.1803
18994THY    CA655637   5.887   7.737   4.814 -1.0442 -0.3046 -0.0924
18994THY    HA655638   5.888   7.845   4.827 -0.3311  1.4731 -0.2900
18995THY      O55639   0.979   0.143   3.425  0.3115 -0.9563  0.2970
18995THY     HO55640   0.956   0.151   3.519 -2.5402 -1.3261 -1.7726
18995THY    CA155641   0.974   0.270   3.376 -0.1343  0.1447  0.4889
18995THY    CA255642   1.015   0.304   3.241 -0.2164  0.3579 -0.3693
18995THY    CP155643   1.069   0.196   3.144 -0.3090  0.5431  0.6615
18995THY    HP155644   1.055   0.102   3.198 -2.0730 -0.6210  0.1969
18995THY    CP255645   1.216   0.211   3.121 -0.1386 -0.5865 -0.5863
18995THY    HP255646   1.268   0.178   3.211 -4.4064  1.8702 -1.3686
18995THY    HP355647   1.236   0.315   3.092  1.1856 -0.7475 -0.8753
18995THY    HP455648   1.262   0.137   3.054 -1.8611 -2.3280 -0.1722
18995THY    CP355649   0.978   0.189   3.014  0.2842 -0.4670 -0.2324
18995THY    HP555650   1.007   0.109   2.945  0.9896 -0.4722  0.0241
18995THY    HP655651   0.997   0.284   2.962 -0.2799 -1.1396 -0.4753
18995THY    HP755652   0.876   0.173   3.053  0.3580 -0.2385 -0.1533
18995THY    CA355653   1.007   0.442   3.200  0.1537 -0.0258 -0.1138
18995THY    HA355654   1.043   0.469   3.100 -3.5771 -1.6225 -0.4858
18995THY    CA455655   0.948   0.533   3.283 -0.1991 -0.0655  0.2488
18995THY    HA455656   0.944   0.639   3.262  0.4044 -0.1693  0.2564
18995THY    CA555657   0.922   0.497   3.417  0.0130 -0.0676 -0.6654
18995THY    CM155658   0.884   0.603   3.519 -0.2302 -0.7980 -0.2142
18995THY    HM155659   0.776   0.622   3.520 -0.1803  1.0613  0.2180
18995THY    HM255660   0.926   0.698   3.486  0.8065  1.8952  0.3736
18995THY    HM355661   0.914   0.582   3.623  0.5101 -1.1071 -0.7438
18995THY    CA655662   0.937   0.369   3.464 -0.3889 -0.1820 -0.3965
18995THY    HA655663   0.907   0.343   3.565  0.9663  0.6254  1.0541
18996THY      O55664   3.764   5.912   6.278  0.7869  0.8919  0.6067
18996THY     HO55665   3.708   5.958   6.213 -0.0097  1.2563  0.1754
18996THY    CA155666   3.812   6.020   6.352 -0.2335 -0.8609  0.1550
18996THY    CA255667   3.928   6.002   6.434  0.0906  0.7257  0.7826
18996THY    CP155668   4.009   5.871   6.440 -0.3021  0.0201  0.5033
18996THY    HP155669   3.951   5.788   6.400  1.1929  1.6149 -1.4323
18996THY    CP255670   4.038   5.817   6.586 -0.3980 -0.5870  0.1635
18996THY    HP255671   4.058   5.710   6.580 -1.0860 -1.8928  0.0830
18996THY    HP355672   3.944   5.817   6.643 -0.0904 -0.0661  0.8709
18996THY    HP455673   4.122   5.874   6.627  0.5620 -2.2245 -0.0058
18996THY    CP355674   4.132   5.885   6.349  0.2674 -0.4912 -0.0514
18996THY    HP555675   4.173   5.985   6.369  1.0723  1.6428 -0.7511
18996THY    HP655676   4.084   5.873   6.251 -1.2306  0.4150 -1.9172
18996THY    HP755677   4.206   5.811   6.378 -0.5433  0.5268 -0.4930
18996THY    CA355678   3.972   6.115   6.508 -0.2004  0.0069 -0.1243
18996THY    HA355679   4.058   6.105   6.573  2.2080 -2.9680  0.0442
18996THY    CA455680   3.886   6.229   6.517 -0.3301  0.4869  0.4164
18996THY    HA455681   3.912   6.309   6.586  2.3214 -2.0384  1.9142
18996THY    CA555682   3.771   6.235   6.444  0.4282  0.4411 -0.5191
18996THY    CM155683   3.672   6.341   6.468  0.1207 -0.0837 -0.5024
18996THY    HM155684   3.689   6.411   6.551 -1.8405 -1.8428  2.2690
18996THY    HM255685   3.579   6.285   6.485  0.1271 -0.5998 -0.6727
18996THY    HM355686   3.653   6.398   6.377  0.7809  0.0464 -0.0630
18996THY    CA655687   3.735   6.131   6.353 -0.8740 -0.4959  0.4017
18996THY    HA655688   3.641   6.143   6.299 -1.5741  0.6965  0.4343
18997THY      O55689   0.670   5.516   2.294  1.0114  0.1887 -0.4436
18997THY     HO55690   0.627   5.548   2.375 -1.2608 -1.0473 -0.1626
18997THY    CA155691   0.584   5.425   2.240 -0.7183  0.2851  0.5872
18997THY    CA255692   0.639   5.307   2.173 -0.6756  0.5411  0.5894
18997THY    CP155693   0.792   5.288   2.162  0.1554  0.3793 -0.1613
18997THY    HP155694   0.834   5.342   2.249 -1.1542  0.8181  0.1773
18997THY    CP255695   0.852   5.338   2.038 -0.4907  0.0452  0.4074
18997THY    HP255696   0.962   5.343   2.046 -0.4747  0.0399  0.0786
18997THY    HP355697   0.827   5.444   2.027  1.6321  1.7846  1.1633
18997THY    HP455698   0.816   5.288   1.948 -3.7652  0.9758  0.8677
18997THY    CP355699   0.833   5.136   2.174 -0.2240  0.9927  0.2601
18997THY    HP555700   0.941   5.127   2.191  0.3273 -1.5964  1.1825
18997THY    HP655701   0.806   5.079   2.085 -1.0494  0.6945  1.0959
18997THY    HP755702   0.766   5.090   2.248 -2.3003 -0.3001  1.0846
18997THY    CA355703   0.548   5.216   2.133 -0.1167 -0.1898  0.1237
18997THY    HA355704   0.576   5.126   2.077  2.0908  0.7721  0.1697
18997THY    CA455705   0.410   5.225   2.162 -0.8223  0.7681  0.2209
18997THY    HA455706   0.341   5.143   2.149 -1.1416 -0.2131  0.6364
18997THY    CA555707   0.367   5.338   2.228  0.4768  0.2597  0.2202
18997THY    CM155708   0.221   5.357   2.256  1.2142  0.1401  0.3773
18997THY    HM155709   0.167   5.277   2.205  0.0436  1.3894  0.3226
18997THY    HM255710   0.179   5.451   2.218  0.8636 -0.7698 -0.1369
18997THY    HM355711   0.204   5.341   2.363 -2.4773 -0.4495 -0.4025
18997THY    CA655712   0.452   5.443   2.264  0.0753 -0.1152 -0.0100
18997THY    HA655713   0.419   5.536   2.309  0.2149 -2.0117  0.9903
18998THY      O55714   2.039   0.297   2.153  0.1961  0.0723  0.3693
18998THY     HO55715   1.949   0.265   2.136 -0.2386  1.4608  0.7990
18998THY    CA155716   2.124   0.274   2.053 -0.0974 -0.3623  0.2277
18998THY    CA255717   2.246   0.348   2.050 -0.3520 -0.3860  0.5407
18998THY    CP155718   2.277   0.442   2.167 -0.3296  0.0662 -0.4314
18998THY    HP155719   2.231   0.399   2.257  1.2071  2.0935  1.9013
18998THY    CP255720   2.207   0.587   2.155 -0.5648 -0.2267  0.0878
18998THY    HP255721   2.098   0.583   2.167 -0.6006 -0.1662  0.9489
18998THY    HP355722   2.226   0.626   2.055  2.6279  0.5089  0.7489
18998THY    HP455723   2.234   0.655   2.238 -1.2439 -0.4621  0.6574
18998THY    CP355724   2.429   0.447   2.208 -0.4141 -0.2625 -0.5528
18998THY    HP555725   2.488   0.488   2.126 -0.0044  0.5934  0.6463
18998THY    HP655726   2.454   0.349   2.249 -0.6840  0.8455 -0.1804
18998THY    HP755727   2.437   0.513   2.296  0.7282 -0.4073 -0.4875
18998THY    CA355728   2.332   0.320   1.946  0.4502  0.6317 -0.1780
18998THY    HA355729   2.424   0.374   1.928  0.5526 -0.0928 -0.5887
18998THY    CA455730   2.292   0.241   1.837 -0.7606 -0.4347 -0.0093
18998THY    HA455731   2.352   0.246   1.747 -0.0251  0.1273  2.8249
18998THY    CA555732   2.167   0.172   1.837  0.5522  0.8204 -0.3007
18998THY    CM155733   2.113   0.092   1.723 -0.1064  0.6074 -0.0062
18998THY    HM155734   2.197   0.037   1.680  0.2681  1.5072 -0.1522
18998THY    HM255735   2.074   0.159   1.645  0.0330  2.4067  2.2748
18998THY    HM355736   2.031   0.021   1.741  1.2251 -1.9709 -2.4059
18998THY    CA655737   2.086   0.195   1.944  0.6243  0.2160 -0.7633
18998THY    HA655738   1.982   0.166   1.931  0.8574 -1.8693 -0.8500
18999THY      O55739   6.912   4.829   7.260  0.3917 -0.2319 -0.3866
18999THY     HO55740   6.821   4.806   7.281 -0.1303  0.0036  1.6440
18999THY    CA155741   6.943   4.759   7.151 -0.0928  0.6189  0.3844
18999THY    CA255742   7.064   4.702   7.128 -0.2570 -0.5071 -0.3617
18999THY    CP155743   7.167   4.723   7.237 -0.8825  0.7715  0.1053
18999THY    HP155744   7.128   4.766   7.330  0.6633  1.2273  0.5875
18999THY    CP255745   7.279   4.828   7.209  0.8638  0.3388 -0.2203
18999THY    HP255746   7.338   4.840   7.301  1.2088  0.3557 -1.8332
18999THY    HP355747   7.231   4.924   7.190  1.4950 -1.8674 -0.2861
18999THY    HP455748   7.346   4.817   7.123  0.0749 -0.3519  0.2673
18999THY    CP355749   7.243   4.595   7.276 -0.2601 -0.1238 -0.1628
18999THY    HP555750   7.313   4.569   7.195  1.3111  1.6886 -1.9562
18999THY    HP655751   7.190   4.507   7.314 -0.4442 -0.5215 -0.2222
18999THY    HP755752   7.319   4.611   7.354 -1.9086  1.4403  0.3236
18999THY    CA355753   7.090   4.631   7.016  0.5258 -0.0796 -0.2269
18999THY    HA355754   7.188   4.589   6.993  0.3894 -0.2915 -0.4297
18999THY    CA455755   6.994   4.611   6.921 -0.6114 -0.0945  0.2584
18999THY    HA455756   7.012   4.555   6.830  0.8751  1.0869 -1.2666
18999THY    CA555757   6.870   4.687   6.935 -0.5918  0.2794  0.1663
18999THY    CM155758   6.772   4.685   6.818 -0.7782  0.1663  0.7012
18999THY    HM155759   6.826   4.643   6.733  1.1729  1.9910 -0.7081
18999THY    HM255760   6.749   4.790   6.796  0.4497 -1.8336  0.5923
18999THY    HM355761   6.682   4.625   6.838 -0.0398 -1.6341 -1.0849
18999THY    CA655762   6.848   4.760   7.051  0.5834 -0.1995  0.2641
18999THY    HA655763   6.760   4.823   7.060  0.3981 -2.1615  0.3467
19000THY      O55764   1.657   1.954   3.335  0.1375  0.2986  0.1055
19000THY     HO55765   1.655   1.902   3.253 -3.4065  0.4096 -0.1778
19000THY    CA155766   1.679   2.076   3.292 -0.6525  0.6671  0.4434
19000THY    CA255767   1.665   2.181   3.386  0.0762 -0.0290  0.0737
19000THY    CP155768   1.632   2.148   3.531  1.0540  0.5265 -1.2922
19000THY    HP155769   1.602   2.043   3.545  2.1162  0.5607 -1.6053
19000THY    CP255770   1.515   2.239   3.581 -0.3595 -0.3915 -0.6548
19000THY    HP255771   1.474   2.182   3.665 -0.3758 -1.8582 -2.9329
19000THY    HP355772   1.441   2.253   3.501  1.2842 -1.9714 -0.5907
19000THY    HP455773   1.551   2.339   3.608  0.3845 -0.9677 -0.7610
19000THY    CP355774   1.756   2.163   3.623 -0.2666  0.2409 -0.1624
19000THY    HP555775   1.801   2.258   3.594  0.2798 -1.9774 -1.0304
19000THY    HP655776   1.831   2.088   3.595 -1.3461  0.1036 -1.2147
19000THY    HP755777   1.743   2.158   3.732 -1.0328  0.3371  2.6620
19000THY    CA355778   1.681   2.314   3.332 -0.3550 -0.0126 -1.2262
19000THY    HA355779   1.665   2.406   3.388  3.2224 -2.0463  0.8160
19000THY    CA455780   1.720   2.339   3.199  0.4934 -0.2177  0.0875
19000THY    HA455781   1.740   2.441   3.170 -0.4668 -1.2800 -0.0043
19000THY    CA555782   1.733   2.225   3.117 -0.8102  0.2804  0.3727
19000THY    CM155783   1.782   2.244   2.975 -0.0021 -0.4263  0.6100
19000THY    HM155784   1.891   2.252   2.963  0.1869  1.7508  1.8167
19000THY    HM255785   1.741   2.338   2.937  0.1632  1.6668  1.5763
19000THY    HM355786   1.747   2.161   2.911  1.6087 -1.6042  0.7828
19000THY    CA655787   1.702   2.096   3.159 -0.0220 -0.2595 -0.1579
19000THY    HA655788   1.725   2.016   3.090  2.4124  0.3291 -0.0548
19001THY      O55789   2.824   6.066   5.743 -0.4689 -0.4074  0.0571
19001THY     HO55790   2.736   6.066   5.786 -0.4800 -0.4070 -0.9939
19001THY    CA155791   2.895   6.164   5.811 -0.2436  1.3165 -0.0836
19001THY    CA255792   3.032   6.188   5.784 -0.3970 -0.1504 -0.5102
19001THY    CP155793   3.114   6.107   5.683  0.7916  0.2393 -0.0704
19001THY    HP155794   3.076   6.005   5.671 -0.3505 -0.4293  0.4195
19001THY    CP255795   3.268   6.101   5.712  0.7202  0.1980  0.0061
19001THY    HP255796   3.320   6.039   5.639  0.6823  1.6494 -1.8122
19001THY    HP355797   3.279   6.044   5.805  2.1264 -0.4893 -0.8912
19001THY    HP455798   3.331   6.191   5.702 -0.2823 -3.3028  0.4673
19001THY    CP355799   3.095   6.170   5.544  0.0672  0.0263 -0.2504
19001THY    HP555800   3.102   6.280   5.544 -2.6808 -0.8442 -0.0050
19001THY    HP655801   2.990   6.152   5.521  0.3706 -0.2517 -1.7284
19001THY    HP755802   3.167   6.134   5.470  0.7190  1.5685 -2.3125
19001THY    CA355803   3.095   6.288   5.858 -0.5886 -0.7649  0.0701
19001THY    HA355804   3.193   6.329   5.833 -1.9200  0.1728  4.3904
19001THY    CA455805   3.027   6.348   5.963 -0.1949  0.5308  0.1693
19001THY    HA455806   3.069   6.431   6.020  0.3951  0.6995 -0.2417
19001THY    CA555807   2.898   6.305   5.995  0.3454  0.6119  0.2149
19001THY    CM155808   2.820   6.367   6.108 -0.4053  0.0449  0.4275
19001THY    HM155809   2.821   6.322   6.208 -0.0116  0.6063  1.6436
19001THY    HM255810   2.712   6.374   6.090 -0.3035 -2.0189 -1.8327
19001THY    HM355811   2.854   6.470   6.124 -0.2763  0.9978  0.2474
19001THY    CA655812   2.828   6.217   5.916 -0.2215 -0.5695  0.2171
19001THY    HA655813   2.730   6.183   5.947  0.1000 -0.3257 -0.5024
19002THY      O55814   2.951   8.485   4.850 -0.1812 -0.0951 -1.0239
19002THY     HO55815   2.983   8.467   4.760  0.3499  0.0344 -0.7488
19002THY    CA155816   2.814   8.470   4.853  0.5571 -0.2553 -0.7733
19002THY    CA255817   2.746   8.405   4.956 -0.0795 -0.0851  0.5204
19002THY    CP155818   2.818   8.373   5.082 -0.0755  0.0113  0.5198
19002THY    HP155819   2.927   8.386   5.073  0.0622  1.0807  0.1995
19002THY    CP255820   2.792   8.234   5.146  0.1834 -0.6082  0.0804
19002THY    HP255821   2.837   8.148   5.094  0.7246  2.6383 -1.7974
19002THY    HP355822   2.685   8.226   5.167  0.3085  0.6504  1.3031
19002THY    HP455823   2.841   8.225   5.244  0.3541 -0.7538 -0.7424
19002THY    CP355824   2.778   8.478   5.183 -0.0174 -0.0781 -0.1778
19002THY    HP555825   2.670   8.471   5.202 -0.5750 -2.3000  1.3009
19002THY    HP655826   2.792   8.579   5.143 -2.0785  0.8129  0.5093
19002THY    HP755827   2.819   8.461   5.283 -1.5726  0.8599  1.2066
19002THY    CA355828   2.608   8.389   4.951  0.1691  0.1107 -0.2902
19002THY    HA355829   2.557   8.342   5.034  2.2471  2.0235  0.6196
19002THY    CA455830   2.534   8.435   4.842 -0.5484 -0.2269  0.3352
19002THY    HA455831   2.428   8.413   4.832 -0.5354 -0.5351  0.4003
19002THY    CA555832   2.605   8.507   4.742  0.2358 -0.5774  0.5045
19002THY    CM155833   2.535   8.547   4.619 -0.3994 -0.6234 -0.0029
19002THY    HM155834   2.426   8.539   4.625 -0.6392  1.2828  3.1627
19002THY    HM255835   2.576   8.486   4.538 -1.1417 -0.1237 -1.1992
19002THY    HM355836   2.550   8.655   4.607  1.9757  1.3708 -0.0112
19002THY    CA655837   2.747   8.522   4.739 -0.1963  0.4122 -0.6314
19002THY    HA655838   2.800   8.567   4.656 -1.5143 -0.5934 -0.8794
19003THY      O55839   4.794   7.625   3.267  0.8254  0.0310  0.0805
19003THY     HO55840   4.853   7.563   3.221  0.7254 -0.8820  0.6365
19003THY    CA155841   4.663   7.599   3.237 -0.0197 -0.0239  0.4207
19003THY    CA255842   4.555   7.656   3.312  0.3333  0.2334  0.4376
19003THY    CP155843   4.586   7.747   3.428  0.0281  0.5636 -0.4646
19003THY    HP155844   4.668   7.813   3.399  0.1251  1.9847  0.0926
19003THY    CP255845   4.627   7.670   3.557 -0.2354 -0.4044  0.0450
19003THY    HP255846   4.627   7.738   3.643  0.6026 -0.2407 -0.1505
19003THY    HP355847   4.728   7.628   3.550 -0.2895 -0.4522 -0.0789
19003THY    HP455848   4.555   7.588   3.566  0.6772  1.4979 -0.5980
19003THY    CP355849   4.466   7.837   3.468 -0.7275  0.0557  0.3486
19003THY    HP555850   4.383   7.791   3.522 -1.0366 -1.6029 -1.1493
19003THY    HP655851   4.418   7.887   3.383  0.4456 -1.2628 -0.6944
19003THY    HP755852   4.510   7.913   3.534 -3.2529  0.7760  1.2884
19003THY    CA355853   4.429   7.596   3.302  0.3347 -0.0769 -0.1945
19003THY    HA355854   4.346   7.632   3.362  1.1433  1.9838 -1.5909
19003THY    CA455855   4.406   7.514   3.196 -0.2165  0.3187  0.1228
19003THY    HA455856   4.304   7.482   3.174  0.2442 -1.2999 -0.3581
19003THY    CA555857   4.500   7.471   3.105  0.1035 -0.2671 -0.2512
19003THY    CM155858   4.472   7.373   3.003  1.0881 -0.4064  0.2722
19003THY    HM155859   4.375   7.325   3.018  1.2202  1.9678  0.6274
19003THY    HM255860   4.548   7.296   3.022 -1.2080  0.8064 -1.8578
19003THY    HM355861   4.480   7.412   2.901 -1.7218 -0.2765  1.3966
19003THY    CA655862   4.635   7.514   3.128 -0.3932 -0.2471  0.5536
19003THY    HA655863   4.715   7.486   3.060 -0.9225 -0.5939 -0.1391
19004THY      O55864   0.971   4.649   4.227 -0.7939  0.7824  0.5635
19004THY     HO55865   0.976   4.731   4.279 -0.4653  0.0382  1.0349
19004THY    CA155866   0.931   4.551   4.302 -0.0607  0.4553 -0.0317
19004THY    CA255867   0.952   4.410   4.270 -0.2795  1.2656  0.2794
19004THY    CP155868   1.025   4.364   4.141  0.2082 -0.7945 -0.5657
19004THY    HP155869   1.049   4.441   4.067  0.6341 -0.1999 -0.1167
19004THY    CP255870   0.955   4.268   4.065  0.0401 -0.2173  0.3106
19004THY    HP255871   0.993   4.250   3.963  0.5461 -0.0715  0.5359
19004THY    HP355872   0.853   4.306   4.052  0.2322  0.8226  1.2307
19004THY    HP455873   0.934   4.172   4.112  1.4714  1.4251  0.7584
19004THY    CP355874   1.164   4.327   4.183  0.5379  0.0814 -0.2528
19004THY    HP555875   1.164   4.238   4.247  1.1103  0.6849  0.1615
19004THY    HP655876   1.219   4.409   4.232 -1.0216  0.3446  0.6868
19004THY    HP755877   1.233   4.310   4.100 -0.7613 -1.2210  0.6501
19004THY    CA355878   0.915   4.312   4.363  0.2649 -0.4060 -0.2462
19004THY    HA355879   0.916   4.205   4.349 -0.0621  0.9183 -0.4339
19004THY    CA455880   0.848   4.358   4.476  0.3305 -0.4166 -0.2886
19004THY    HA455881   0.793   4.286   4.535 -2.2617 -0.8360  1.2090
19004THY    CA555882   0.834   4.496   4.507  0.1234 -0.3812  0.1154
19004THY    CM155883   0.748   4.530   4.625  0.1102  0.2603 -0.1846
19004THY    HM155884   0.725   4.441   4.685  0.0630 -0.1372 -0.4426
19004THY    HM255885   0.652   4.575   4.596  0.3249 -0.8206 -0.4051
19004THY    HM355886   0.809   4.598   4.685 -1.9823  1.1195  1.0405
19004THY    CA655887   0.875   4.592   4.416  0.1292 -0.1682 -0.2668
19004THY    HA655888   0.853   4.697   4.428  3.2514 -1.1455  0.6041
19005THY      O55889   2.362   4.155   6.226  0.4426  0.0169 -0.0988
19005THY     HO55890   2.420   4.230   6.247 -0.7134  1.0406  0.5463
19005THY    CA155891   2.417   4.046   6.279 -0.2935 -0.2071 -0.2491
19005THY    CA255892   2.385   3.918   6.234  0.2327 -0.9769  0.3984
19005THY    CP155893   2.286   3.906   6.120  0.2475 -0.0933  0.3925
19005THY    HP155894   2.285   3.994   6.055  2.4839  0.2614  0.7284
19005THY    CP255895   2.143   3.888   6.181  0.4705 -0.0817  0.3449
19005THY    HP255896   2.066   3.884   6.103  0.7083 -0.3564  0.9534
19005THY    HP355897   2.122   3.966   6.256  0.8428 -0.7585  1.1075
19005THY    HP455898   2.142   3.793   6.236  0.5101  0.8251  0.8530
19005THY    CP355899   2.305   3.781   6.024 -0.4959 -0.7553  0.3133
19005THY    HP555900   2.273   3.821   5.927  0.0192 -0.2978  1.9020
19005THY    HP655901   2.264   3.684   6.052  1.3431 -1.5849 -0.7596
19005THY    HP755902   2.413   3.766   6.018 -0.2998 -0.0862  1.3335
19005THY    CA355903   2.433   3.807   6.303 -0.2060 -0.0012  0.2891
19005THY    HA355904   2.407   3.707   6.271  0.1495  2.5998 -0.7301
19005THY    CA455905   2.519   3.832   6.417 -0.3431 -0.5595 -0.1153
19005THY    HA455906   2.562   3.748   6.470  0.8005  1.1482  1.4583
19005THY    CA555907   2.554   3.964   6.448  0.0913  0.5072  0.5402
19005THY    CM155908   2.642   3.989   6.567  0.1062  0.5301  0.0781
19005THY    HM155909   2.591   4.001   6.663 -0.6175 -0.0784  2.4169
19005THY    HM255910   2.706   4.078   6.558  2.1859  1.4803 -1.2251
19005THY    HM355911   2.714   3.908   6.584 -0.2903  4.1719  0.3381
19005THY    CA655912   2.507   4.069   6.378 -0.7707 -0.8188  0.3273
19005THY    HA655913   2.535   4.167   6.416  1.4334  0.9105 -0.8837
19006THY      O55914   4.320   2.115   2.776  0.3207 -0.3867 -0.1412
19006THY     HO55915   4.234   2.142   2.741  0.3894 -0.8551 -0.5185
19006THY    CA155916   4.334   2.174   2.898  0.4207  0.5067  0.5063
19006THY    CA255917   4.391   2.106   3.006  0.2542 -0.1049  0.1825
19006THY    CP155918   4.425   1.962   2.983 -0.6201 -0.0423  0.7797
19006THY    HP155919   4.356   1.921   2.908  0.9294 -1.9029  1.4546
19006THY    CP255920   4.418   1.866   3.102 -0.5113 -0.1475  0.4446
19006THY    HP255921   4.319   1.852   3.146 -0.4692 -0.9753 -3.8599
19006THY    HP355922   4.478   1.905   3.185 -0.0339  1.0793 -2.6181
19006THY    HP455923   4.455   1.766   3.075  0.5521 -1.3929  1.1442
19006THY    CP355924   4.562   1.926   2.924 -0.2394  0.2631  0.2180
19006THY    HP555925   4.568   1.818   2.903 -2.2645  0.1652  0.0748
19006THY    HP655926   4.641   1.962   2.990 -0.3437 -0.6314  2.2158
19006THY    HP755927   4.575   1.976   2.827  1.1409  1.6964  2.8475
19006THY    CA355928   4.431   2.177   3.119  0.3660 -0.3387  0.0243
19006THY    HA355929   4.485   2.132   3.202  0.6604  0.1435  1.2211
19006THY    CA455930   4.387   2.314   3.128 -0.0215 -0.2912 -0.3376
19006THY    HA455931   4.405   2.379   3.213 -0.6580 -0.9321  0.6969
19006THY    CA555932   4.317   2.376   3.021 -0.3394 -0.0906 -0.2077
19006THY    CM155933   4.285   2.524   3.025  0.2627 -0.6965  0.4333
19006THY    HM155934   4.316   2.580   2.936  1.6749 -1.2322 -1.1013
19006THY    HM255935   4.347   2.569   3.103  3.3408 -2.3877 -0.5711
19006THY    HM355936   4.181   2.542   3.053  0.4717  0.4862 -0.1045
19006THY    CA655937   4.292   2.306   2.906 -0.2863  0.7337  0.6024
19006THY    HA655938   4.247   2.341   2.814 -0.7466  0.0128 -1.7104
19007THY      O55939   2.743   1.289   6.952  0.6348  0.5222  0.1268
19007THY     HO55940   2.741   1.302   7.048  0.7507  0.3820  1.3202
19007THY    CA155941   2.815   1.187   6.924  0.1326  0.2016  0.4907
19007THY    CA255942   2.856   1.163   6.793 -0.1162 -0.7649 -0.0052
19007THY    CP155943   2.824   1.264   6.683  0.3970 -0.2508 -0.2384
19007THY    HP155944   2.753   1.344   6.709  0.5862 -0.4584 -0.0019
19007THY    CP255945   2.753   1.200   6.562  0.3034 -0.2487  0.3950
19007THY    HP255946   2.816   1.119   6.523  1.7595  0.3466  1.1964
19007THY    HP355947   2.735   1.259   6.472 -0.5507 -1.5045 -1.6628
19007THY    HP455948   2.654   1.165   6.594  0.5655 -0.3730 -0.4767
19007THY    CP355949   2.942   1.343   6.626 -0.0602  0.3651 -0.0361
19007THY    HP555950   2.904   1.405   6.543 -1.1469 -0.9903 -2.3470
19007THY    HP655951   3.017   1.280   6.577  0.9145  2.0163 -0.1946
19007THY    HP755952   2.990   1.405   6.702  2.7855 -2.5102  1.5921
19007THY    CA355953   2.954   1.061   6.770 -0.5082 -0.4631  0.0503
19007THY    HA355954   2.990   1.041   6.670  1.1061  0.0723  0.0886
19007THY    CA455955   2.991   0.973   6.875 -0.0093 -0.5936  0.2283
19007THY    HA455956   3.060   0.890   6.863 -0.1358  0.8734 -0.1262
19007THY    CA555957   2.932   0.984   6.999  0.2709  0.1711 -0.1939
19007THY    CM155958   2.970   0.888   7.103  0.5952 -0.3175  0.2435
19007THY    HM155959   2.929   0.787   7.094 -0.1818 -2.3347  0.6843
19007THY    HM255960   2.946   0.924   7.204  0.6742  0.3296 -1.4324
19007THY    HM355961   3.078   0.869   7.101  1.0896  2.1294  2.2639
19007THY    CA655962   2.851   1.097   7.025  0.2747 -0.3463  0.0891
19007THY    HA655963   2.821   1.108   7.129  1.2503 -0.1083  0.6244
19008THY      O55964   0.948   2.642   7.549  0.0193 -0.3553 -0.1706
19008THY     HO55965   1.025   2.690   7.584 -0.3548  1.5836 -0.8987
19008THY    CA155966   0.855   2.737   7.534 -0.3365 -0.0531 -0.1326
19008THY    CA255967   0.734   2.714   7.472  0.0021  0.7176  0.1174
19008THY    CP155968   0.711   2.565   7.430  0.7405  0.4853 -0.5542
19008THY    HP155969   0.811   2.519   7.423  1.7831 -0.3793  1.7217
19008THY    CP255970   0.638   2.552   7.298  0.1512 -0.3394  0.1156
19008THY    HP255971   0.538   2.595   7.309  0.7550 -0.9451  1.7733
19008THY    HP355972   0.623   2.447   7.271 -0.7362  1.8728 -0.3759
19008THY    HP455973   0.671   2.605   7.207 -1.1212 -0.2390  1.1341
19008THY    CP355974   0.622   2.493   7.538  0.5324  0.0704  0.1363
19008THY    HP555975   0.606   2.386   7.519 -1.2393  0.7271  0.2535
19008THY    HP655976   0.522   2.538   7.532  0.4167  1.4880  0.1233
19008THY    HP755977   0.655   2.514   7.640 -0.0073  0.3097 -0.1437
19008THY    CA355978   0.639   2.809   7.452 -0.1286  0.1696  0.7319
19008THY    HA355979   0.547   2.785   7.399  0.3385 -0.3923  0.1340
19008THY    CA455980   0.666   2.934   7.510 -0.4943 -0.2229 -0.0194
19008THY    HA455981   0.585   3.007   7.504 -2.5458  0.7022 -2.0918
19008THY    CA555982   0.786   2.964   7.568 -0.9363 -0.2504  0.2250
19008THY    CM155983   0.818   3.100   7.615  0.0690  0.3124 -0.3159
19008THY    HM155984   0.901   3.145   7.560 -0.4611  0.3158  0.7043
19008THY    HM255985   0.851   3.092   7.719  2.1426 -0.4315 -2.4090
19008THY    HM355986   0.728   3.164   7.607 -0.4666 -1.5183 -1.2345
19008THY    CA655987   0.885   2.860   7.582  0.0578 -0.2453 -0.1141
19008THY    HA655988   0.983   2.883   7.623 -0.2837  0.8802 -0.5724
19009THY      O55989   7.299   3.937   5.910 -0.3195  0.7203 -0.4635
19009THY     HO55990   7.337   3.856   5.948 -1.8283  0.0326 -1.5412
19009THY    CA155991   7.291   4.027   6.013 -0.5618  0.4264  0.2615
19009THY    CA255992   7.282   4.165   5.982  0.0432  0.0328  0.0820
19009THY    CP155993   7.322   4.218   5.839  0.1889 -0.6453  0.1353
19009THY    HP155994   7.340   4.143   5.762 -2.0138  0.4540 -1.6711
19009THY    CP255995   7.455   4.303   5.855  0.0837  0.2922  0.5075
19009THY    HP255996   7.429   4.390   5.916  2.6305 -0.4235  1.8910
19009THY    HP355997   7.481   4.349   5.759  0.4841  0.7736  1.3009
19009THY    HP455998   7.529   4.237   5.902  0.7254 -0.3867  0.7196
19009THY    CP355999   7.214   4.298   5.768  0.2495  0.2022 -0.2672
19009THY    HP556000   7.148   4.226   5.718 -0.0196 -0.7373  0.6127
19009THY    HP656001   7.248   4.371   5.694 -0.6447  0.6240  0.6025
19009THY    HP756002   7.158   4.363   5.836  0.2827 -0.2007  0.1909
19009THY    CA356003   7.269   4.256   6.087 -0.6947 -0.4133 -0.2871
19009THY    HA356004   7.261   4.362   6.069 -1.1939 -0.8322 -0.3927
19009THY    CA456005   7.255   4.211   6.223 -0.4434  0.1545 -0.0760
19009THY    HA456006   7.235   4.276   6.308  2.0276  0.5912  0.2040
19009THY    CA556007   7.268   4.075   6.249  0.3520 -0.1789  0.0679
19009THY    CM156008   7.277   4.029   6.394  0.7525 -0.1678 -0.3765
19009THY    HM156009   7.369   4.055   6.447  1.6392 -1.2651 -1.1501
19009THY    HM256010   7.285   3.920   6.382 -0.6906 -0.4181 -0.4778
19009THY    HM356011   7.187   4.037   6.455  1.1548  0.4188 -0.2701
19009THY    CA656012   7.285   3.984   6.145  0.6134 -0.4361 -0.2610
19009THY    HA656013   7.291   3.879   6.171  2.0416  0.2494 -0.0414
19010THY      O56014   4.073   0.764   2.369 -0.3056  0.3176  0.1804
19010THY     HO56015   4.125   0.817   2.432  1.7686 -0.3643 -0.9637
19010THY    CA156016   4.083   0.630   2.402  0.2356  0.0581 -0.2925
19010THY    CA256017   4.067   0.528   2.309  0.4107 -0.6256 -0.1380
19010THY    CP156018   4.077   0.566   2.159  0.4463  0.4140 -0.0621
19010THY    HP156019   4.055   0.672   2.147 -2.6301  1.4843 -0.4811
19010THY    CP256020   3.964   0.499   2.080  0.6308 -0.2915 -0.4471
19010THY    HP256021   3.967   0.528   1.974 -0.4260 -0.2118  0.0040
19010THY    HP356022   3.869   0.526   2.126 -0.1634 -3.8783  4.3271
19010THY    HP456023   3.984   0.392   2.093  0.9324 -0.0492 -0.3629
19010THY    CP356024   4.204   0.522   2.086  0.6386  0.0973  0.0922
19010THY    HP556025   4.210   0.548   1.980  1.1299  0.1408  0.1711
19010THY    HP656026   4.202   0.413   2.098  0.7428 -1.1704 -0.0652
19010THY    HP756027   4.291   0.558   2.142  0.0263  0.0294  1.7590
19010THY    CA356028   4.091   0.398   2.354 -0.4170  0.4632 -0.4906
19010THY    HA356029   4.097   0.316   2.283  0.0349  0.6751 -0.6480
19010THY    CA456030   4.094   0.370   2.491 -0.0144 -0.2495  0.1424
19010THY    HA456031   4.084   0.268   2.527  1.2239 -1.4102 -0.4168
19010THY    CA556032   4.101   0.477   2.581  0.1494 -0.5928  0.1555
19010THY    CM156033   4.116   0.456   2.730  0.5241 -0.3067  0.2103
19010THY    HM156034   4.159   0.357   2.751  1.2120 -0.2289  0.5138
19010THY    HM256035   4.023   0.479   2.782  0.2019 -0.0807 -1.5132
19010THY    HM356036   4.196   0.517   2.773 -0.7603  3.4867 -0.5039
19010THY    CA656037   4.099   0.608   2.534  0.3920  0.0520 -0.2988
19010THY    HA656038   4.095   0.692   2.602  0.5296  0.4960 -0.6454
19011THY      O56039   7.160   4.909   2.230  0.1832 -0.2075  0.2076
19011THY     HO56040   7.223   4.983   2.241 -0.5573  0.9090  0.6928
19011THY    CA156041   7.196   4.809   2.316 -0.4350  0.0804  0.4141
19011THY    CA256042   7.115   4.696   2.339  0.5196  0.1930 -0.7893
19011THY    CP156043   6.987   4.680   2.258  0.3559  1.2260 -0.5416
19011THY    HP156044   6.963   4.778   2.213 -1.7272  0.6824 -1.2553
19011THY    CP256045   6.868   4.631   2.334  0.5542  0.1938  0.2669
19011THY    HP256046   6.852   4.693   2.423 -0.1612 -0.4323  1.0040
19011THY    HP356047   6.881   4.527   2.366  0.3171  0.0318  0.1860
19011THY    HP456048   6.773   4.630   2.280 -0.0921  1.2856 -0.8638
19011THY    CP356049   7.016   4.600   2.124 -0.4695 -0.3989  0.1115
19011THY    HP556050   7.109   4.633   2.077 -1.4047 -2.8912 -0.6096
19011THY    HP656051   6.930   4.600   2.056  0.2042 -1.2665  0.2046
19011THY    HP756052   7.035   4.496   2.151  1.0898 -0.1375  0.4474
19011THY    CA356053   7.150   4.607   2.444 -0.2827 -0.1389 -0.5263
19011THY    HA356054   7.079   4.533   2.482 -2.3467  2.1067  2.3854
19011THY    CA456055   7.271   4.625   2.515 -0.4820  0.1385  0.0460
19011THY    HA456056   7.303   4.554   2.591 -3.2386  0.9170 -0.4870
19011THY    CA556057   7.349   4.741   2.484  0.2089  0.2492  0.4728
19011THY    CM156058   7.484   4.753   2.545 -0.2805  0.3357 -0.1294
19011THY    HM156059   7.486   4.731   2.652  4.5230  0.0458 -2.5120
19011THY    HM256060   7.516   4.858   2.536 -2.5847  1.6069  0.7511
19011THY    HM356061   7.556   4.687   2.495  0.0365  1.1603 -0.4155
19011THY    CA656062   7.315   4.835   2.387  0.0037  0.3930  0.1005
19011THY    HA656063   7.368   4.928   2.369 -2.3824 -2.5574  1.0535
19012THY      O56064   3.343   4.078   3.789  0.1429 -0.3960 -0.3638
19012THY     HO56065   3.314   4.153   3.844 -0.1264 -1.4137  0.3093
19012THY    CA156066   3.321   4.121   3.664 -0.3046 -0.6995 -0.2333
19012THY    CA256067   3.351   4.048   3.550 -0.0732 -0.1725  0.2433
19012THY    CP156068   3.426   3.912   3.556  0.4987 -0.2951  0.1831
19012THY    HP156069   3.464   3.906   3.658 -0.5768  0.3047  2.3347
19012THY    CP256070   3.549   3.908   3.470 -0.1384  1.0344 -0.3681
19012THY    HP256071   3.605   3.816   3.493 -0.1546  1.1153 -0.3576
19012THY    HP356072   3.612   3.995   3.489 -0.5613  0.7777 -0.0013
19012THY    HP456073   3.520   3.915   3.364 -1.3584  1.4139  0.6138
19012THY    CP356074   3.333   3.793   3.535  0.5514  0.6987  0.7136
19012THY    HP556075   3.253   3.803   3.610 -1.8836 -1.4821 -0.8270
19012THY    HP656076   3.390   3.702   3.553 -0.9159  0.8437 -0.2163
19012THY    HP756077   3.289   3.786   3.435 -0.1966  1.1241 -1.2668
19012THY    CA356078   3.311   4.095   3.426  0.3712 -0.5009 -0.5119
19012THY    HA356079   3.321   4.037   3.335  2.1513 -1.5425  1.3399
19012THY    CA456080   3.228   4.201   3.420 -0.1129  0.6984  0.0185
19012THY    HA456081   3.186   4.227   3.324  1.3606  0.2234  0.7328
19012THY    CA556082   3.183   4.269   3.533  0.0245 -0.3054 -0.5069
19012THY    CM156083   3.083   4.374   3.525 -0.0906  0.6802  0.4551
19012THY    HM156084   3.131   4.467   3.557 -1.2173  1.2721  0.8547
19012THY    HM256085   3.007   4.346   3.600 -0.0558  0.0577 -1.4170
19012THY    HM356086   3.046   4.392   3.423  1.7911  0.2369  2.1772
19012THY    CA656087   3.235   4.230   3.655 -0.3266  0.5634 -0.1458
19012THY    HA656088   3.195   4.279   3.744  1.1946  1.9974 -1.3923
19013THY      O56089   5.133   3.735   6.982  0.0368  0.0243  0.0492
19013THY     HO56090   5.194   3.794   7.029 -0.0306 -0.3420  0.4177
19013THY    CA156091   5.032   3.819   6.954 -0.2918  0.3593  0.1453
19013THY    CA256092   4.923   3.780   6.873 -0.5049 -0.9041 -0.1415
19013THY    CP156093   4.917   3.628   6.830  0.2146  0.2853  0.2950
19013THY    HP156094   5.012   3.576   6.847  0.1500 -0.3086 -0.0187
19013THY    CP256095   4.884   3.624   6.681  0.1317 -0.1661 -0.4236
19013THY    HP256096   4.957   3.684   6.626 -0.5718 -0.3700  0.2653
19013THY    HP356097   4.790   3.674   6.655  1.5236 -1.2083  1.7913
19013THY    HP456098   4.898   3.521   6.645  0.9927  0.4842 -0.5422
19013THY    CP356099   4.805   3.548   6.908 -0.1687 -0.5829 -0.8544
19013THY    HP556100   4.790   3.445   6.875 -1.3312 -2.0914 -0.2346
19013THY    HP656101   4.710   3.600   6.892 -0.1871 -1.3206 -1.1041
19013THY    HP756102   4.830   3.555   7.015 -3.4047  0.2030  0.3948
19013THY    CA356103   4.817   3.861   6.845 -0.3600 -0.3390  0.9368
19013THY    HA356104   4.727   3.839   6.788 -1.9230  1.9388  0.9482
19013THY    CA456105   4.810   3.993   6.898 -0.0509  0.5554  0.3186
19013THY    HA456106   4.747   4.076   6.867  0.7566 -0.7633  0.4736
19013THY    CA556107   4.918   4.029   6.981 -0.2987 -0.1227 -0.5143
19013THY    CM156108   4.936   4.174   7.012  0.4748 -0.7289 -0.2567
19013THY    HM156109   5.004   4.192   7.096  0.9618 -1.3900  1.1398
19013THY    HM256110   4.847   4.231   7.037  2.4229 -0.1467  2.7484
19013THY    HM356111   4.971   4.234   6.927 -3.1483 -0.0398  3.2679
19013THY    CA656112   5.032   3.947   7.002 -0.4309 -0.5118 -0.1100
19013THY    HA656113   5.108   3.981   7.072 -0.5315  0.9112 -2.5176
19014THY      O56114   2.816   2.051   7.447 -0.2663 -0.0355 -0.1404
19014THY     HO56115   2.901   2.022   7.484  0.1133  0.0488  1.0132
19014THY    CA156116   2.820   2.161   7.366  0.5796 -0.3062  0.3234
19014THY    CA256117   2.711   2.197   7.287  0.5390  0.5864  1.4569
19014THY    CP156118   2.585   2.110   7.293 -0.0795 -0.0224  0.1235
19014THY    HP156119   2.581   2.049   7.383  2.3097 -1.2390 -2.0510
19014THY    CP256120   2.578   2.009   7.179  0.2683  0.1560 -0.0804
19014THY    HP256121   2.641   1.923   7.202 -0.7854  0.2999 -0.8254
19014THY    HP356122   2.614   2.059   7.088 -0.7982  1.0533  2.4594
19014THY    HP456123   2.477   1.971   7.162 -0.5681 -0.4632  2.2325
19014THY    CP356124   2.458   2.200   7.286  0.2154 -0.4143 -0.1963
19014THY    HP556125   2.464   2.272   7.203  0.4684 -0.5632 -0.3861
19014THY    HP656126   2.440   2.257   7.378 -2.5534 -1.1558  0.2578
19014THY    HP756127   2.372   2.133   7.277 -0.6465  2.3041  0.4289
19014THY    CA356128   2.730   2.308   7.202 -0.5111  0.5149  0.2231
19014THY    HA356129   2.658   2.353   7.134  0.5324  0.2369  1.5187
19014THY    CA456130   2.854   2.383   7.207 -1.2365 -0.0384  0.3269
19014THY    HA456131   2.858   2.477   7.151 -0.5331  0.0351  0.3397
19014THY    CA556132   2.955   2.341   7.287  0.0146 -0.3201  1.0003
19014THY    CM156133   3.079   2.417   7.290  0.0965 -0.7083 -0.1749
19014THY    HM156134   3.063   2.510   7.346  0.7373  1.2429 -1.1799
19014THY    HM256135   3.107   2.441   7.187  1.1931 -0.3605  0.1016
19014THY    HM356136   3.170   2.365   7.322  0.1110  0.7798  0.7111
19014THY    CA656137   2.939   2.234   7.374  0.0450  0.3576  0.6057
19014THY    HA656138   3.013   2.198   7.445  2.4299 -2.2064  0.1236
19015THY      O56139   5.541   3.321   6.152 -0.9380  0.0222 -0.3199
19015THY     HO56140   5.514   3.247   6.209 -3.4050 -0.9385 -0.2561
19015THY    CA156141   5.429   3.404   6.148 -0.3658  0.6608  0.2954
19015THY    CA256142   5.391   3.463   6.029  0.1353 -0.2000  0.5267
19015THY    CP156143   5.463   3.425   5.890 -0.4808  0.0347 -0.1510
19015THY    HP156144   5.557   3.372   5.907 -0.7360 -2.0130 -1.4100
19015THY    CP256145   5.500   3.557   5.812 -0.3455  0.3707  0.0917
19015THY    HP256146   5.407   3.590   5.765 -0.0009  0.7096  1.6326
19015THY    HP356147   5.570   3.532   5.732  0.0196  1.3752 -2.3642
19015THY    HP456148   5.548   3.635   5.873 -0.7718 -0.3537  0.9351
19015THY    CP356149   5.368   3.331   5.819  0.6209  0.1286 -0.6212
19015THY    HP556150   5.367   3.242   5.882  0.3002 -1.3553 -1.7041
19015THY    HP656151   5.409   3.292   5.725  1.4515  0.6276 -0.9870
19015THY    HP756152   5.270   3.379   5.812  1.0608 -1.1531  0.1332
19015THY    CA356153   5.279   3.552   6.031  0.8952 -0.4011  0.3253
19015THY    HA356154   5.260   3.609   5.940  0.6864 -1.2751 -1.0672
19015THY    CA456155   5.202   3.566   6.151  0.0080  0.3855  0.1136
19015THY    HA456156   5.109   3.622   6.149  0.2961 -3.4658  0.6832
19015THY    CA556157   5.238   3.493   6.261 -0.8523  0.3466 -0.1332
19015THY    CM156158   5.145   3.500   6.385  0.1798 -1.4730  0.3064
19015THY    HM156159   5.161   3.584   6.453  0.3174  1.5502 -1.9939
19015THY    HM256160   5.162   3.406   6.439  4.3424 -1.1854  1.0435
19015THY    HM356161   5.040   3.481   6.356 -0.4553  1.8992 -2.1194
19015THY    CA656162   5.351   3.419   6.259 -1.1445 -0.1235  0.2165
19015THY    HA656163   5.383   3.371   6.352 -0.3548  0.7432  2.3129
19016THY      O56164   8.508   4.529   5.701  0.5014 -0.0863 -0.6037
19016THY     HO56165   8.483   4.526   5.794 -1.0854 -0.5023 -0.9444
19016THY    CA156166   8.595   4.439   5.664  0.2246  0.5721 -0.7217
19016THY    CA256167   8.643   4.423   5.537  0.8080  0.2480  0.6948
19016THY    CP156168   8.601   4.515   5.418  0.6395 -0.7204  0.2817
19016THY    HP156169   8.536   4.597   5.450  1.1550  2.4269 -0.4244
19016THY    CP256170   8.529   4.440   5.300 -0.2732  0.1096 -0.1892
19016THY    HP256171   8.592   4.369   5.245  1.1310  0.5667  0.6497
19016THY    HP356172   8.496   4.511   5.223  0.8992 -0.2995 -0.0536
19016THY    HP456173   8.446   4.386   5.345  0.4061  1.0037 -0.5119
19016THY    CP356174   8.732   4.574   5.355  0.2660 -0.1846 -0.2594
19016THY    HP556175   8.791   4.630   5.429 -1.3513 -0.1471  1.4859
19016THY    HP656176   8.699   4.640   5.274  0.5251  0.8694  1.2129
19016THY    HP756177   8.783   4.488   5.310 -1.4788 -2.1653 -0.3180
19016THY    CA356178   8.700   4.296   5.506  0.4698 -0.2485 -0.2247
19016THY    HA356179   8.736   4.279   5.405 -1.3846 -1.0593  0.3707
19016THY    CA456180   8.733   4.201   5.604 -0.1244 -0.3013 -0.0855
19016THY    HA456181   8.794   4.113   5.585 -2.0261 -0.7572 -1.3441
19016THY    CA556182   8.694   4.228   5.737  0.3898 -0.5907 -0.0251
19016THY    CM156183   8.735   4.136   5.850 -0.1552  0.2704 -0.1451
19016THY    HM156184   8.662   4.064   5.888 -0.2565 -0.9202 -0.7024
19016THY    HM256185   8.767   4.196   5.936  0.0666 -0.1814  0.4063
19016THY    HM356186   8.821   4.079   5.814  0.2157 -1.6495  1.5132
19016THY    CA656187   8.620   4.344   5.764  0.7572 -0.1996  0.0828
19016THY    HA656188   8.587   4.346   5.867 -1.0735 -0.6019 -3.1834
19017THY      O56189   7.506   1.363   2.255  0.3863 -0.1850  0.0392
19017THY     HO56190   7.412   1.388   2.250  0.0706  1.1234 -0.7483
19017THY    CA156191   7.505   1.251   2.182  0.7149 -0.7280 -0.0426
19017THY    CA256192   7.606   1.224   2.088  0.2065  0.0517  0.0727
19017THY    CP156193   7.724   1.328   2.076  0.0260  0.1078  0.2165
19017THY    HP156194   7.725   1.401   2.158 -0.7592 -0.2608  0.6557
19017THY    CP256195   7.712   1.409   1.936 -0.6671  0.1111 -0.3493
19017THY    HP256196   7.734   1.347   1.848  2.6194 -1.9299  3.2785
19017THY    HP356197   7.779   1.496   1.935 -0.4164 -1.8106 -0.5113
19017THY    HP456198   7.611   1.448   1.925 -0.4102  0.7940  0.5490
19017THY    CP356199   7.869   1.265   2.095 -0.1965  0.4602 -0.3472
19017THY    HP556200   7.881   1.175   2.034  0.1533  0.7002 -0.4622
19017THY    HP656201   7.873   1.229   2.198 -1.7135  0.9866  0.8505
19017THY    HP756202   7.951   1.337   2.086 -0.0848 -1.9702 -0.6784
19017THY    CA356203   7.594   1.107   2.003  1.2859 -0.2784  0.0289
19017THY    HA356204   7.678   1.070   1.945  1.6434  0.6404 -0.6182
19017THY    CA456205   7.474   1.034   2.011  0.4672  0.8867  0.1620
19017THY    HA456206   7.446   0.941   1.962 -0.1446  0.8819  0.3467
19017THY    CA556207   7.377   1.068   2.102 -0.2230  0.1155  0.3663
19017THY    CM156208   7.254   0.987   2.098  0.1845 -0.2946 -0.1273
19017THY    HM156209   7.277   0.880   2.095 -2.2716 -0.5991 -0.7087
19017THY    HM256210   7.203   1.018   2.006  0.1181  0.0700  0.8928
19017THY    HM356211   7.201   1.007   2.192  3.1902  1.9456 -1.8750
19017THY    CA656212   7.388   1.184   2.187  0.3596 -0.2616  0.2798
19017THY    HA656213   7.312   1.215   2.258  0.8778  0.3965  0.0650
19018THY      O56214   7.114   8.242   6.722  0.0875  0.4030  0.4162
19018THY     HO56215   7.124   8.180   6.796  3.3341 -0.0920  0.1560
19018THY    CA156216   6.978   8.280   6.710  0.1029  0.8394  0.2307
19018THY    CA256217   6.929   8.360   6.603  0.0789 -0.1171  0.1566
19018THY    CP156218   7.017   8.391   6.481 -0.6109  0.3850  0.9673
19018THY    HP156219   7.115   8.411   6.525 -0.3636 -0.4370  1.6249
19018THY    CP256220   6.974   8.515   6.409  0.0712 -0.1549 -0.3379
19018THY    HP256221   6.967   8.590   6.489  0.4970 -0.3273 -0.1077
19018THY    HP356222   6.874   8.504   6.365 -0.9472  2.1946 -1.0179
19018THY    HP456223   7.050   8.554   6.340  0.3478  0.7851  0.8262
19018THY    CP356224   7.024   8.261   6.388 -0.1376  0.6497 -0.0471
19018THY    HP556225   7.076   8.187   6.450  0.2516  0.7455  0.3095
19018THY    HP656226   7.086   8.284   6.301  0.2321  0.6610 -0.9416
19018THY    HP756227   6.922   8.226   6.367  0.0826 -0.0893 -0.2649
19018THY    CA356228   6.786   8.385   6.598 -0.9901 -0.5680 -0.0039
19018THY    HA356229   6.736   8.436   6.517  1.2338 -1.8462  0.2812
19018THY    CA456230   6.707   8.339   6.700 -0.4219 -0.5041  0.8519
19018THY    HA456231   6.599   8.347   6.704 -0.4580 -0.6175  0.4657
19018THY    CA556232   6.765   8.260   6.801  0.4896 -0.6804  0.0817
19018THY    CM156233   6.671   8.208   6.908 -0.0249  0.0361  0.6979
19018THY    HM156234   6.681   8.101   6.928 -1.3687  0.6569  0.6651
19018THY    HM256235   6.571   8.229   6.869  1.2788 -2.9394  1.9854
19018THY    HM356236   6.686   8.259   7.004 -0.2464  1.9578 -2.5693
19018THY    CA656237   6.899   8.230   6.804 -0.2349  0.4910 -0.0954
19018THY    HA656238   6.936   8.163   6.881 -3.8759  2.4260 -0.1310
19019THY      O56239   8.277   0.701   6.035  0.3615 -0.2999 -0.1103
19019THY     HO56240   8.251   0.635   5.968  0.8804  0.0238 -0.6515
19019THY    CA156241   8.307   0.632   6.149 -0.5961  0.7631  0.4047
19019THY    CA256242   8.404   0.672   6.237 -0.2273  0.4619 -0.5695
19019THY    CP156243   8.474   0.809   6.211 -0.5281  0.2411  0.2594
19019THY    HP156244   8.414   0.879   6.152  1.2934  2.1837  3.8009
19019THY    CP256245   8.603   0.799   6.121  0.7569  0.1995  0.3763
19019THY    HP256246   8.639   0.901   6.105 -1.4424 -1.1357  1.0228
19019THY    HP356247   8.575   0.760   6.023 -0.3388  0.7618 -0.3076
19019THY    HP456248   8.679   0.737   6.169  0.5210  0.8227  0.5604
19019THY    CP356249   8.508   0.881   6.342 -0.8948 -0.0545  0.5481
19019THY    HP556250   8.602   0.843   6.382 -0.1739 -0.9254  1.3820
19019THY    HP656251   8.431   0.858   6.417  1.2148  1.7201 -1.2777
19019THY    HP756252   8.517   0.990   6.331 -0.9294  0.1070  0.5685
19019THY    CA356253   8.437   0.589   6.347 -0.1224  0.1195 -0.8616
19019THY    HA356254   8.523   0.613   6.409 -0.3633 -0.1441  0.7560
19019THY    CA456255   8.372   0.469   6.361 -0.0762 -0.4183 -0.8098
19019THY    HA456256   8.396   0.409   6.448  1.2120  0.5564  1.0265
19019THY    CA556257   8.268   0.432   6.273 -0.2940 -0.1673 -0.6205
19019THY    CM156258   8.186   0.311   6.292 -0.0049  0.3769 -0.1639
19019THY    HM156259   8.080   0.339   6.306  0.4078  0.2110  1.5710
19019THY    HM256260   8.234   0.246   6.366  1.9079  1.9330  2.8144
19019THY    HM356261   8.185   0.253   6.199 -0.7487 -0.0182  0.4587
19019THY    CA656262   8.249   0.509   6.164 -0.2138 -0.7009  0.1746
19019THY    HA656263   8.165   0.482   6.101 -0.3884  0.0775 -1.1733
19020THY      O56264   1.755   8.074   7.193 -0.0291 -0.3194  0.7043
19020THY     HO56265   1.689   8.145   7.198 -2.0758 -1.7291 -0.9545
19020THY    CA156266   1.807   8.083   7.318 -0.7475  0.3389  0.7160
19020THY    CA256267   1.948   8.071   7.337 -0.3060 -0.7549  0.4311
19020THY    CP156268   2.046   8.005   7.235  0.0973 -0.1252 -0.4030
19020THY    HP156269   1.997   7.966   7.145  0.7674 -0.7884  0.2663
19020THY    CP256270   2.123   7.889   7.294  0.2792 -0.2748  0.4698
19020THY    HP256271   2.167   7.844   7.204 -0.1537 -1.2145  1.8577
19020THY    HP356272   2.053   7.814   7.333  1.4199 -0.0156 -0.4924
19020THY    HP456273   2.203   7.908   7.366 -1.4312  1.7665  0.2545
19020THY    CP356274   2.148   8.114   7.190 -0.1935  1.3868  1.3010
19020THY    HP556275   2.087   8.196   7.149  1.3812  1.5450  2.6191
19020THY    HP656276   2.222   8.080   7.116  0.9363  0.8631  4.5125
19020THY    HP756277   2.211   8.154   7.271  1.0061  1.6343 -0.9774
19020THY    CA356278   1.997   8.117   7.456  0.2309  0.1585 -0.6248
19020THY    HA356279   2.102   8.108   7.480  0.0407  0.8737 -0.9742
19020THY    CA456280   1.910   8.164   7.558 -0.7333  0.4271 -0.3946
19020THY    HA456281   1.955   8.188   7.654  0.8559 -0.6478  1.1744
19020THY    CA556282   1.777   8.186   7.537  0.7395  0.0490  0.4754
19020THY    CM156283   1.676   8.239   7.635 -0.1605  0.1216 -0.7484
19020THY    HM156284   1.707   8.227   7.739  1.1089 -0.0075  1.0637
19020THY    HM256285   1.572   8.212   7.613  0.5353 -1.8296 -2.1423
19020THY    HM356286   1.691   8.345   7.613  0.8995 -0.6863 -1.0480
19020THY    CA656287   1.725   8.147   7.412 -0.6141 -0.4662 -0.4174
19020THY    HA656288   1.621   8.168   7.390 -0.8074  0.6256 -0.1851
19021THY      O56289   5.789   1.096   4.487 -0.2238  0.2187  0.0530
19021THY     HO56290   5.779   1.104   4.391 -0.4759 -0.0905 -2.9343
19021THY    CA156291   5.788   1.223   4.533 -0.1798 -0.1095 -0.8036
19021THY    CA256292   5.729   1.247   4.654 -0.0754 -0.1262 -0.7130
19021THY    CP156293   5.700   1.132   4.743 -0.5560 -0.1439  0.1992
19021THY    HP156294   5.653   1.052   4.684 -4.3266  0.1739  1.9641
19021THY    CP256295   5.592   1.161   4.841  0.4909  0.7922  0.2268
19021THY    HP256296   5.497   1.192   4.795  1.0177 -1.1514 -0.8132
19021THY    HP356297   5.622   1.245   4.905  0.0395  0.5346  0.5892
19021THY    HP456298   5.567   1.076   4.906  0.4495  1.6660  0.8955
19021THY    CP356299   5.822   1.069   4.814 -0.5199 -0.2485  0.0232
19021THY    HP556300   5.801   0.993   4.890  1.1806  0.7962  0.5317
19021THY    HP656301   5.887   1.141   4.866  1.2457 -1.4674 -0.6182
19021THY    HP756302   5.889   1.024   4.741  0.3612  2.1701 -2.8903
19021THY    CA356303   5.713   1.385   4.690  0.3880  0.4795  0.6797
19021THY    HA356304   5.674   1.412   4.788  1.0918  0.9250  0.1191
19021THY    CA456305   5.768   1.486   4.612 -0.0079 -0.1742 -0.3440
19021THY    HA456306   5.739   1.589   4.630 -1.5662 -0.5034 -0.6981
19021THY    CA556307   5.828   1.453   4.490  0.2186  0.1461 -0.0092
19021THY    CM156308   5.865   1.567   4.395  0.3793  0.3375 -0.0906
19021THY    HM156309   5.936   1.637   4.440  0.6609 -0.6491  0.2603
19021THY    HM256310   5.774   1.620   4.364 -1.2884  2.3481 -1.5630
19021THY    HM356311   5.919   1.539   4.304 -0.5296 -0.4361  0.6180
19021THY    CA656312   5.838   1.323   4.454 -0.3794 -0.0034 -0.5743
19021THY    HA656313   5.876   1.304   4.354 -0.6899 -0.8813  2.7201
19022THY      O56314   0.459   2.127   5.959  0.5148 -0.3721 -0.7910
19022THY     HO56315   0.459   2.056   6.027  0.5166  2.8028  2.0116
19022THY    CA156316   0.551   2.210   6.002  0.1884 -0.3720 -0.3466
19022THY    CA256317   0.572   2.340   5.948  0.3602 -0.2363  0.4903
19022THY    CP156318   0.481   2.392   5.832  0.0371 -0.2967 -0.2208
19022THY    HP156319   0.393   2.330   5.818  0.3971  0.0831 -0.8253
19022THY    CP256320   0.552   2.362   5.698  0.0502 -0.2648  0.4418
19022THY    HP256321   0.612   2.272   5.716 -2.2729  2.2898 -0.7139
19022THY    HP356322   0.615   2.443   5.662  1.5557 -0.8908 -0.9423
19022THY    HP456323   0.472   2.351   5.624 -0.1536 -0.0699  0.6150
19022THY    CP356324   0.433   2.538   5.838 -0.3360 -0.5025 -0.0851
19022THY    HP556325   0.365   2.538   5.924  1.0129  0.6164  1.0036
19022THY    HP656326   0.373   2.576   5.755 -0.1835 -0.6067 -0.0695
19022THY    HP756327   0.517   2.608   5.851 -0.3912  1.9897 -0.3850
19022THY    CA356328   0.676   2.422   5.992  0.5340 -0.1331 -0.2795
19022THY    HA356329   0.694   2.522   5.952 -2.6014  2.8806  1.7311
19022THY    CA456330   0.762   2.373   6.101  0.5560  0.0740  0.6008
19022THY    HA456331   0.848   2.432   6.129  0.1993 -1.9042  2.1803
19022THY    CA556332   0.734   2.250   6.155  0.5425  0.0030 -0.2206
19022THY    CM156333   0.813   2.193   6.268  0.3545 -0.5567  0.2729
19022THY    HM156334   0.919   2.179   6.246  0.2890  0.7904 -3.5142
19022THY    HM256335   0.781   2.090   6.288  1.7513 -1.7968 -0.4346
19022THY    HM356336   0.805   2.251   6.361 -2.2664  1.6390 -3.2489
19022THY    CA656337   0.625   2.170   6.109 -0.0802 -0.8741 -0.0303
19022THY    HA656338   0.595   2.086   6.171  0.9000  1.7607  1.4298
19023THY      O56339   4.312   7.119   5.581 -0.1171 -0.2729  0.0198
19023THY     HO56340   4.272   7.207   5.571  3.0168 -1.2839  1.5004
19023THY    CA156341   4.221   7.069   5.679  0.0568 -0.6138  0.0837
19023THY    CA256342   4.277   6.985   5.780  0.1200  0.2644 -0.2234
19023THY    CP156343   4.430   6.949   5.790  0.1783  0.1250  0.5499
19023THY    HP156344   4.478   6.961   5.692 -0.7498 -0.5153 -0.7646
19023THY    CP256345   4.458   6.808   5.831  0.1097 -0.8410  0.3418
19023THY    HP256346   4.551   6.778   5.780  0.4698  0.3827 -0.7051
19023THY    HP356347   4.380   6.737   5.801 -0.0649  1.2506 -0.3943
19023THY    HP456348   4.479   6.785   5.936  0.9069 -0.7537  1.4231
19023THY    CP356349   4.488   7.055   5.878 -0.0490 -0.1368 -0.2823
19023THY    HP556350   4.483   7.147   5.817 -2.1148  0.8209  0.3077
19023THY    HP656351   4.586   7.019   5.908 -1.1599  0.6652 -2.8898
19023THY    HP756352   4.422   7.073   5.963  0.0345  0.2927 -1.9211
19023THY    CA356353   4.189   6.952   5.884  0.0740 -0.0198  0.0710
19023THY    HA356354   4.223   6.897   5.971  1.8938  0.9834  2.5806
19023THY    CA456355   4.052   6.994   5.883 -0.5971  0.0624  0.0120
19023THY    HA456356   3.986   6.954   5.960 -0.8307  0.1337  0.5355
19023THY    CA556357   3.999   7.063   5.773 -0.0848  0.2432 -0.4590
19023THY    CM156358   3.850   7.095   5.769 -0.3041  0.4508  0.2491
19023THY    HM156359   3.817   7.109   5.665 -1.2697  0.5055 -1.3999
19023THY    HM256360   3.825   7.187   5.823 -2.8422  0.9995 -0.6821
19023THY    HM356361   3.805   7.010   5.822  0.4402  0.3164 -0.2464
19023THY    CA656362   4.087   7.111   5.678  0.0922  0.0621 -0.8879
19023THY    HA656363   4.046   7.156   5.587  0.8912  0.8769  1.7065
19024THY      O56364   1.550   1.759   1.911 -0.2747 -0.1438  0.2403
19024THY     HO56365   1.635   1.805   1.910  0.3090 -1.1582 -0.8032
19024THY    CA156366   1.447   1.849   1.943 -0.4648 -0.0264  0.2421
19024THY    CA256367   1.320   1.802   1.965 -0.4633  0.4987  0.5574
19024THY    CP156368   1.286   1.663   1.942 -0.0969  0.2324 -0.1375
19024THY    HP156369   1.371   1.597   1.919  1.0379  1.4146  0.8555
19024THY    CP256370   1.207   1.653   1.810 -0.8050  0.4107 -0.1467
19024THY    HP256371   1.275   1.684   1.729  0.5275  2.6205  3.3026
19024THY    HP356372   1.118   1.715   1.797 -0.7262  0.3459 -0.0445
19024THY    HP456373   1.177   1.548   1.803 -0.3174  1.4688 -0.3676
19024THY    CP356374   1.202   1.597   2.051 -0.0639  0.8162 -0.1139
19024THY    HP556375   1.185   1.491   2.027  1.3503 -0.5927 -0.0482
19024THY    HP656376   1.108   1.653   2.056 -1.2699 -2.8842 -1.5032
19024THY    HP756377   1.251   1.605   2.149 -3.1957  2.4704  0.3602
19024THY    CA356378   1.219   1.900   1.982  0.3405 -0.0523  0.1471
19024THY    HA356379   1.114   1.871   1.986 -0.4622  1.8237  2.9106
19024THY    CA456380   1.248   2.036   1.999 -0.2871 -0.3862 -0.4495
19024THY    HA456381   1.165   2.106   2.000 -2.1009  1.9143 -2.4419
19024THY    CA556382   1.385   2.078   1.988  0.2111  0.6939  0.1827
19024THY    CM156383   1.421   2.222   1.996 -0.8192  0.4197  0.2884
19024THY    HM156384   1.407   2.253   2.100  0.5398  1.5206 -2.4413
19024THY    HM256385   1.378   2.285   1.917 -0.3349 -0.3839 -0.3676
19024THY    HM356386   1.530   2.226   1.988 -0.9613 -1.9564  0.4962
19024THY    CA656387   1.483   1.981   1.958  0.5878 -1.1546 -0.8411
19024THY    HA656388   1.587   2.009   1.950  0.3771 -2.0101 -0.2903
19025THY      O56389   4.600   7.756   8.161 -1.0882 -1.0661 -0.4402
19025THY     HO56390   4.576   7.850   8.166  0.9365 -0.4832  0.1099
19025THY    CA156391   4.591   7.724   8.031  0.4074  0.5153  0.2068
19025THY    CA256392   4.687   7.639   7.975 -0.4068  1.1264 -0.6208
19025THY    CP156393   4.801   7.584   8.053  0.2541  0.2818  0.2370
19025THY    HP156394   4.801   7.615   8.158  2.3578  1.1486 -2.3684
19025THY    CP256395   4.937   7.628   7.999 -0.3967  0.8219  0.7976
19025THY    HP256396   4.945   7.736   7.984 -1.2741 -0.5096  0.7000
19025THY    HP356397   4.950   7.590   7.896  1.4037  0.9180  1.0512
19025THY    HP456398   5.023   7.598   8.059 -0.8407  0.6632 -0.8831
19025THY    CP356399   4.796   7.435   8.063 -0.0319  0.5015  0.5025
19025THY    HP556400   4.703   7.406   8.112  0.3938 -0.0684 -2.0264
19025THY    HP656401   4.876   7.396   8.128  1.1494 -0.6964  0.8382
19025THY    HP756402   4.804   7.384   7.966  2.3017  0.4150  0.9185
19025THY    CA356403   4.676   7.624   7.836 -0.0630  0.7706  1.1338
19025THY    HA356404   4.742   7.563   7.776 -2.7138 -0.5957 -0.5811
19025THY    CA456405   4.564   7.670   7.764  0.1158 -0.1412 -0.3989
19025THY    HA456406   4.555   7.656   7.657 -1.0717  0.2082 -2.9922
19025THY    CA556407   4.467   7.742   7.825 -0.0385 -0.2630 -0.9671
19025THY    CM156408   4.349   7.809   7.760 -0.5785 -0.1112  0.7326
19025THY    HM156409   4.368   7.917   7.761  3.7960 -0.9680  0.1714
19025THY    HM256410   4.255   7.793   7.813 -0.4932 -0.4710 -1.2586
19025THY    HM356411   4.345   7.773   7.656 -1.1849  0.9379 -2.6233
19025THY    CA656412   4.483   7.776   7.962  0.5987 -0.2571 -0.0993
19025THY    HA656413   4.405   7.837   8.007 -1.2250 -1.5113 -1.3709
19026THY      O56414   1.055   8.650   7.716 -0.4097  0.1648 -0.0098
19026THY     HO56415   0.981   8.614   7.767  1.6010  3.2798 -0.0742
19026THY    CA156416   1.077   8.576   7.602 -1.4037  0.8223 -0.4092
19026THY    CA256417   1.208   8.561   7.541  0.3711  0.1619  0.0981
19026THY    CP156418   1.329   8.635   7.604  0.1323 -0.1527  0.3967
19026THY    HP156419   1.305   8.727   7.658  2.8088 -0.1259  1.1640
19026THY    CP256420   1.426   8.682   7.494  0.6607 -0.4740  0.4992
19026THY    HP256421   1.476   8.598   7.445  0.5207  0.1952  0.0176
19026THY    HP356422   1.501   8.743   7.545  0.7996  1.7239 -1.3704
19026THY    HP456423   1.377   8.740   7.415 -1.9488  0.2298 -0.5628
19026THY    CP356424   1.398   8.548   7.704  0.7272  0.1877  0.5234
19026THY    HP556425   1.330   8.506   7.779  2.4858  2.9446  2.3287
19026THY    HP656426   1.476   8.608   7.752  1.7694 -1.1346  0.2808
19026THY    HP756427   1.446   8.461   7.657  1.1057  1.2783  0.1284
19026THY    CA356428   1.218   8.471   7.431  0.6267 -0.3746  1.0949
19026THY    HA356429   1.313   8.450   7.383  1.5438  1.5630  0.5952
19026THY    CA456430   1.106   8.414   7.373 -0.0253  0.3806 -0.5094
19026THY    HA456431   1.118   8.360   7.280  0.7953  0.5509 -0.6365
19026THY    CA556432   0.983   8.445   7.429  0.8677  0.6975 -0.1113
19026THY    CM156433   0.854   8.410   7.349 -0.6507  0.2165  0.5161
19026THY    HM156434   0.789   8.498   7.342 -1.7422  0.1118 -0.2772
19026THY    HM256435   0.795   8.335   7.403  1.7308 -0.8450 -2.2900
19026THY    HM356436   0.876   8.360   7.254 -2.6039 -0.3332  0.5820
19026THY    CA656437   0.968   8.523   7.546 -0.2147 -0.4442  0.3278
19026THY    HA656438   0.868   8.545   7.582  0.4756  3.2629 -1.7548
19027THY      O56439   7.529   8.967   5.873  0.1471 -0.2768  0.4976
19027THY     HO56440   7.547   8.893   5.813 -0.5056 -0.2094  0.2762
19027THY    CA156441   7.438   9.051   5.826  0.6732 -0.2666  0.0242
19027THY    CA256442   7.395   9.156   5.911 -0.3869 -0.4161  0.0528
19027THY    CP156443   7.476   9.185   6.043  0.0775 -0.5644  0.0395
19027THY    HP156444   7.581   9.154   6.034  0.0471  2.1167 -1.1273
19027THY    CP256445   7.417   9.114   6.166  0.1191 -0.4714  0.0647
19027THY    HP256446   7.430   9.007   6.146 -1.6348 -1.3052 -0.0158
19027THY    HP356447   7.309   9.130   6.176  0.2707  0.9531  0.3446
19027THY    HP456448   7.464   9.146   6.260 -1.3217  0.5411 -0.6895
19027THY    CP356449   7.475   9.329   6.080  0.1559 -0.4075  0.0800
19027THY    HP556450   7.565   9.354   6.138  1.0620 -2.8023  2.9109
19027THY    HP656451   7.378   9.357   6.122 -0.2185 -0.2994 -1.3291
19027THY    HP756452   7.488   9.393   5.992 -1.4323 -0.6678  0.0786
19027THY    CA356453   7.294   9.234   5.862  1.0531 -0.2003 -0.5875
19027THY    HA356454   7.262   9.319   5.921 -0.4189 -0.9441 -0.5784
19027THY    CA456455   7.223   9.198   5.749  0.6436 -0.1327 -0.4333
19027THY    HA456456   7.134   9.258   5.730 -0.0201  2.7376 -0.3820
19027THY    CA556457   7.265   9.091   5.673  0.4991  0.0803 -0.2870
19027THY    CM156458   7.187   9.064   5.543 -0.0896 -0.1861  0.1731
19027THY    HM156459   7.186   9.157   5.485 -2.2787  0.9008  0.9041
19027THY    HM256460   7.083   9.028   5.553 -0.4317 -1.1308  0.8672
19027THY    HM356461   7.237   8.991   5.478 -0.3355 -0.4296  0.2189
19027THY    CA656462   7.382   9.023   5.702  0.3695 -0.7706  0.9313
19027THY    HA656463   7.415   8.930   5.657  0.3561  3.9817 -1.6793
19028THY      O56464   1.614   1.438   1.868 -0.4407  0.3619  0.4295
19028THY     HO56465   1.571   1.483   1.794  1.4371  0.0314  1.8140
19028THY    CA156466   1.530   1.342   1.911  0.1165 -0.5583 -0.4336
19028THY    CA256467   1.558   1.268   2.024 -0.6090 -1.2704  0.3366
19028THY    CP156468   1.683   1.298   2.109  0.2293  0.4326 -0.4617
19028THY    HP156469   1.726   1.395   2.079  1.3205  0.2565 -0.9914
19028THY    CP256470   1.790   1.190   2.088  1.0806  0.6384 -0.5179
19028THY    HP256471   1.746   1.097   2.123  1.8891  0.4889 -0.9684
19028THY    HP356472   1.883   1.221   2.139 -1.1683  3.0652  2.9881
19028THY    HP456473   1.816   1.183   1.982 -0.4185  0.0838  1.4822
19028THY    CP356474   1.656   1.312   2.254  0.3328  0.4161 -0.3098
19028THY    HP556475   1.639   1.214   2.300  2.0224 -2.0432 -1.8751
19028THY    HP656476   1.566   1.371   2.270  0.4295 -1.2275  0.3200
19028THY    HP756477   1.743   1.360   2.301 -1.8409  3.9141  0.6071
19028THY    CA356478   1.481   1.152   2.044 -0.1912 -0.4674 -0.0820
19028THY    HA356479   1.505   1.093   2.132 -2.4996  1.8409  2.1124
19028THY    CA456480   1.364   1.131   1.966  0.1973  0.1860 -0.2212
19028THY    HA456481   1.305   1.042   1.989  1.7892  0.1673 -1.3289
19028THY    CA556482   1.328   1.220   1.859 -0.7248  0.0501  0.1366
19028THY    CM156483   1.203   1.215   1.780  0.5718 -0.7341 -0.1626
19028THY    HM156484   1.117   1.264   1.828 -2.0100 -2.5212 -2.5942
19028THY    HM256485   1.167   1.111   1.770 -1.2300 -1.4341  0.4895
19028THY    HM356486   1.214   1.246   1.675 -2.3947 -0.4871  2.1580
19028THY    CA656487   1.426   1.318   1.831  0.4306  0.6498  0.6951
19028THY    HA656488   1.397   1.383   1.749  0.0558 -0.4637 -0.8375
19029THY      O56489   3.099   1.909   4.727 -0.0385 -0.1437  0.6230
19029THY     HO56490   3.143   1.826   4.705 -0.2222 -2.3527  1.0673
19029THY    CA156491   3.142   1.952   4.849  0.0274  0.7177 -0.2919
19029THY    CA256492   3.195   2.079   4.859  0.2052  0.1043  0.5328
19029THY    CP156493   3.212   2.165   4.739 -0.0458 -0.3117 -0.2540
19029THY    HP156494   3.235   2.099   4.654 -0.2934  0.1385 -0.9233
19029THY    CP256495   3.325   2.270   4.744 -0.0163  0.3754  0.9512
19029THY    HP256496   3.339   2.287   4.637 -1.0334 -0.3588 -2.1167
19029THY    HP356497   3.412   2.222   4.791 -1.0812  1.2234 -0.2387
19029THY    HP456498   3.300   2.362   4.799  0.1466  2.3140 -0.1042
19029THY    CP356499   3.090   2.243   4.704 -0.3626 -0.8982  0.3146
19029THY    HP556500   3.109   2.307   4.617  2.7248  0.8794  2.0637
19029THY    HP656501   3.071   2.313   4.786 -0.7663 -0.2610 -0.5264
19029THY    HP756502   3.001   2.179   4.702 -0.5024  1.2124  0.3968
19029THY    CA356503   3.205   2.128   4.993 -0.2954 -0.9349 -0.2682
19029THY    HA356504   3.231   2.231   5.014 -0.4693 -0.9374 -0.2224
19029THY    CA456505   3.185   2.044   5.102  0.5643  0.2713 -0.0982
19029THY    HA456506   3.186   2.076   5.206 -1.7531  1.1236 -2.4687
19029THY    CA556507   3.147   1.911   5.079  0.5802 -0.6065  0.6787
19029THY    CM156508   3.126   1.815   5.195 -0.6095 -0.4471  1.1040
19029THY    HM156509   3.208   1.820   5.268 -1.1571  0.1004  2.9239
19029THY    HM256510   3.095   1.711   5.177 -2.1572  0.6373  1.3459
19029THY    HM356511   3.047   1.854   5.260 -0.5979 -0.4395  1.1142
19029THY    CA656512   3.127   1.867   4.952 -0.0876  0.6097 -0.6576
19029THY    HA656513   3.091   1.769   4.922  2.0696 -1.7800 -0.8352
19030THY      O56514   8.033   4.861   6.331 -0.0832  0.2843  0.1711
19030THY     HO56515   8.087   4.833   6.255  2.1986  1.2906  1.5532
19030THY    CA156516   8.136   4.871   6.419  0.0366  0.3835 -0.1826
19030THY    CA256517   8.134   4.927   6.553 -0.3641 -0.4544  0.2619
19030THY    CP156518   8.005   4.993   6.605 -0.0219  0.0479  0.2591
19030THY    HP156519   7.940   5.017   6.520 -1.8529  0.9169 -1.3645
19030THY    CP256520   8.033   5.130   6.655  0.4217  0.4491 -0.0258
19030THY    HP256521   7.937   5.167   6.691  0.9130  2.8816 -0.8943
19030THY    HP356522   8.072   5.197   6.577  1.1223  0.8163  0.0105
19030THY    HP456523   8.106   5.132   6.737  1.3852 -0.3637  2.7441
19030THY    CP356524   7.932   4.906   6.713  0.3704 -0.6388  0.1276
19030THY    HP556525   7.848   4.954   6.764 -0.9323 -3.2351  0.8072
19030THY    HP656526   7.995   4.877   6.798 -1.1954  0.7856  0.7318
19030THY    HP756527   7.891   4.813   6.673  0.3953  0.3647 -0.3170
19030THY    CA356528   8.250   4.921   6.628 -0.0158 -0.8736  0.2438
19030THY    HA356529   8.248   4.973   6.723 -2.5887 -0.9817  0.4464
19030THY    CA456530   8.361   4.842   6.586  0.0080 -0.0082 -0.2585
19030THY    HA456531   8.450   4.832   6.648  0.2569 -0.0947  1.1611
19030THY    CA556532   8.365   4.799   6.455 -0.4479  0.4284  0.7574
19030THY    CM156533   8.492   4.723   6.403 -0.6328  0.1182  0.2549
19030THY    HM156534   8.570   4.785   6.449 -1.4883 -0.0455  1.4744
19030THY    HM256535   8.518   4.705   6.298 -0.9761  0.3596 -1.9155
19030THY    HM356536   8.516   4.627   6.450 -0.2998  0.2075  0.3804
19030THY    CA656537   8.252   4.812   6.372  0.4183  0.6152 -1.0130
19030THY    HA656538   8.254   4.763   6.275 -1.7265  0.3339 -0.6690
19031THY      O56539   3.010   0.889   5.688 -0.4981  0.2703  0.5632
19031THY     HO56540   2.942   0.859   5.751  0.0894  1.1349  0.9926
19031THY    CA156541   3.061   1.014   5.727  0.0423  0.1451 -0.1046
19031THY    CA256542   3.171   1.075   5.660  0.1346  0.5735  1.2334
19031THY    CP156543   3.214   0.996   5.530 -0.5078  0.3111 -0.2004
19031THY    HP156544   3.131   0.940   5.484 -0.5552  0.7865 -0.5272
19031THY    CP256545   3.328   0.892   5.567  0.1511 -0.5982  0.4128
19031THY    HP256546   3.416   0.938   5.614  0.0579  0.9332 -0.8876
19031THY    HP356547   3.353   0.821   5.487 -0.7655 -1.1316  0.6669
19031THY    HP456548   3.275   0.826   5.637 -0.8381 -1.2803  0.4656
19031THY    CP356549   3.264   1.101   5.421  0.0721 -0.5732 -0.7844
19031THY    HP556550   3.201   1.191   5.429 -1.1278 -0.7211 -1.5841
19031THY    HP656551   3.248   1.061   5.320 -2.3059 -1.8255  2.8092
19031THY    HP756552   3.368   1.130   5.439 -0.3746 -1.2794  1.4605
19031THY    CA356553   3.233   1.182   5.722 -0.0485  0.0928 -0.4606
19031THY    HA356554   3.319   1.223   5.670 -1.1117 -0.5096  1.0868
19031THY    CA456555   3.184   1.233   5.841  0.0981  0.7700  0.1528
19031THY    HA456556   3.231   1.319   5.887  1.2776  2.2872 -1.2297
19031THY    CA556557   3.067   1.183   5.900 -0.6510  0.1990 -0.0542
19031THY    CM156558   3.018   1.250   6.017 -0.3952  0.0290  0.8023
19031THY    HM156559   3.088   1.230   6.100  0.8509 -1.3320 -0.7460
19031THY    HM256560   2.922   1.205   6.045  0.0393  0.2325 -0.0155
19031THY    HM356561   3.010   1.358   5.999 -2.7331  0.0429  0.6876
19031THY    CA656562   3.005   1.073   5.844 -0.1755  0.0741  0.2472
19031THY    HA656563   2.921   1.030   5.897 -1.1905 -2.3258 -0.8961
19032THY      O56564   9.136   7.575   7.558  0.0338  0.7852  0.2530
19032THY     HO56565   9.219   7.528   7.539 -0.7114 -1.9397 -0.1519
19032THY    CA156566   9.114   7.589   7.692 -0.3547  0.3579  0.0078
19032THY    CA256567   8.991   7.609   7.750 -0.3935 -0.5232  0.3963
19032THY    CP156568   8.863   7.608   7.665  0.0378 -0.2203  0.5224
19032THY    HP156569   8.890   7.587   7.561  1.8139  0.5809 -1.5809
19032THY    CP256570   8.783   7.741   7.665 -0.7967 -1.1245 -0.8710
19032THY    HP256571   8.745   7.770   7.763 -0.8779 -1.6029  0.7485
19032THY    HP356572   8.709   7.741   7.583 -0.1428 -1.7808  1.6222
19032THY    HP456573   8.860   7.817   7.648 -0.1308 -2.1077 -1.7306
19032THY    CP356574   8.766   7.510   7.720  0.5927  0.3216  0.3701
19032THY    HP556575   8.673   7.509   7.661  1.1972 -0.7803 -3.0075
19032THY    HP656576   8.731   7.525   7.823 -1.0153 -0.0728 -0.3994
19032THY    HP756577   8.820   7.415   7.710  1.2218  2.0476  0.5143
19032THY    CA356578   8.984   7.654   7.884 -0.2186 -1.2274 -0.5681
19032THY    HA356579   8.891   7.664   7.940  0.5231  0.1734 -1.2926
19032THY    CA456580   9.103   7.670   7.956  0.1234 -0.6220 -0.2576
19032THY    HA456581   9.106   7.691   8.063 -0.1146 -0.7359  0.3683
19032THY    CA556582   9.224   7.646   7.903 -0.1358  0.0638  0.2639
19032THY    CM156583   9.354   7.668   7.982 -0.2698  0.5894 -0.2073
19032THY    HM156584   9.340   7.658   8.091  1.4247  0.9188  0.7006
19032THY    HM256585   9.378   7.774   7.984  1.0304  2.5995 -0.4804
19032THY    HM356586   9.440   7.609   7.948  0.5400 -1.9383  2.2478
19032THY    CA656587   9.229   7.603   7.769 -0.0717  0.3858  0.6405
19032THY    HA656588   9.329   7.585   7.731  0.3529  2.3596 -1.7734
19033THY      O56589   1.046   5.443   3.444  0.5633  0.7088 -0.1647
19033THY     HO56590   1.143   5.445   3.451  0.6958 -0.3891 -1.4510
19033THY    CA156591   0.995   5.506   3.548  0.1261 -0.0516 -0.3696
19033THY    CA256592   0.868   5.566   3.538  0.3350 -0.3795  0.1196
19033THY    CP156593   0.786   5.567   3.401  0.2387 -0.6035 -0.4799
19033THY    HP156594   0.832   5.491   3.335 -0.6418  0.9473 -2.4501
19033THY    CP256595   0.804   5.707   3.333 -0.7158 -0.2689 -0.5036
19033THY    HP256596   0.717   5.750   3.282  0.4120 -1.2019  0.7858
19033THY    HP356597   0.868   5.692   3.245 -1.3372 -1.2717  2.0799
19033THY    HP456598   0.862   5.773   3.398 -0.9820  0.9427 -1.4235
19033THY    CP356599   0.638   5.529   3.407  0.3552  0.3260  0.3961
19033THY    HP556600   0.630   5.435   3.462  0.8046 -0.0772  0.1185
19033THY    HP656601   0.597   5.519   3.305 -0.5913  0.4404  2.4999
19033THY    HP756602   0.582   5.604   3.463 -1.2369 -1.5651  0.7102
19033THY    CA356603   0.816   5.623   3.657  0.2671 -0.2608 -0.4461
19033THY    HA356604   0.715   5.661   3.656  0.9217 -1.7512  1.3718
19033THY    CA456605   0.882   5.611   3.781  0.2325  0.8048 -0.5469
19033THY    HA456606   0.848   5.664   3.870  0.1798 -0.2728  1.3432
19033THY    CA556607   1.006   5.548   3.787  0.0020 -0.1292 -0.4258
19033THY    CM156608   1.088   5.536   3.918  1.0199 -0.6889  0.1915
19033THY    HM156609   1.195   5.551   3.899  1.5397 -1.6158 -3.6710
19033THY    HM256610   1.075   5.436   3.960 -0.1087 -0.6040  0.3628
19033THY    HM356611   1.062   5.618   3.985 -0.5132 -2.0788  0.8964
19033THY    CA656612   1.064   5.506   3.665 -0.5929 -0.0668 -0.3053
19033THY    HA656613   1.163   5.460   3.670 -0.1307  0.4338  0.7232
19034THY      O56614   8.366   4.976   3.908 -0.1341  0.8262  0.8516
19034THY     HO56615   8.365   5.067   3.941  0.6624  2.3931  0.3340
19034THY    CA156616   8.337   4.996   3.776 -0.4864  0.7711 -0.2550
19034THY    CA256617   8.365   4.902   3.673 -0.0029  0.2164 -0.2657
19034THY    CP156618   8.457   4.776   3.703 -0.2972 -0.2519  0.2710
19034THY    HP156619   8.457   4.740   3.806  4.0636  0.0351  0.5514
19034THY    CP256620   8.603   4.819   3.676  0.4389 -0.2774 -0.0738
19034THY    HP256621   8.641   4.867   3.767 -0.1101  0.5525 -1.1755
19034THY    HP356622   8.607   4.902   3.604  2.2355 -0.1453 -0.0063
19034THY    HP456623   8.666   4.735   3.647  2.0459  1.2956  0.5157
19034THY    CP356624   8.413   4.655   3.618  0.1260 -0.3314  0.0518
19034THY    HP556625   8.306   4.644   3.596  0.4278 -1.9615  0.1269
19034THY    HP656626   8.452   4.556   3.641 -0.3368 -1.7002 -0.4632
19034THY    HP756627   8.448   4.673   3.516  2.0380  0.1950 -0.4725
19034THY    CA356628   8.312   4.932   3.550 -0.0618 -0.3990  0.5545
19034THY    HA356629   8.329   4.858   3.472  0.6991  0.3755 -0.1105
19034THY    CA456630   8.235   5.049   3.527  0.6290 -0.5903  0.5663
19034THY    HA456631   8.197   5.054   3.426  1.7852 -1.1401 -1.0626
19034THY    CA556632   8.206   5.137   3.625 -0.1848  0.0989 -0.0240
19034THY    CM156633   8.119   5.254   3.602 -0.8814 -0.2024 -0.1038
19034THY    HM156634   8.072   5.235   3.504  0.1299 -0.7655  0.2183
19034THY    HM256635   8.178   5.346   3.609 -3.8134  1.2336  1.8501
19034THY    HM356636   8.040   5.256   3.677  0.5244  1.3360 -0.6315
19034THY    CA656637   8.260   5.116   3.753  0.5465  0.3664 -0.5180
19034THY    HA656638   8.227   5.182   3.832 -0.8883  0.9272 -1.8403
19035THY      O56639   9.002   8.316   2.507 -0.1930 -0.1850 -0.7118
19035THY     HO56640   8.950   8.371   2.445 -0.6999 -0.5977 -1.6379
19035THY    CA156641   8.934   8.203   2.546 -0.4430  0.2726 -0.4765
19035THY    CA256642   8.989   8.111   2.639 -0.4236  0.1765 -0.5680
19035THY    CP156643   9.130   8.118   2.682 -0.1926 -0.3220 -0.0472
19035THY    HP156644   9.173   8.212   2.647  2.4348  0.2486 -0.9532
19035THY    CP256645   9.211   8.010   2.614  0.0424 -0.1312  0.8028
19035THY    HP256646   9.202   8.006   2.505 -1.9830 -0.0612  1.9702
19035THY    HP356647   9.181   7.912   2.651 -0.1983  0.3449  1.0510
19035THY    HP456648   9.316   8.033   2.635  0.2350 -0.6910  0.4645
19035THY    CP356649   9.137   8.120   2.840 -0.7691 -0.1004  0.0243
19035THY    HP556650   9.240   8.139   2.872 -0.5346 -0.3249 -0.8161
19035THY    HP656651   9.090   8.030   2.882 -0.4199 -0.6870 -0.4440
19035THY    HP756652   9.072   8.202   2.871  0.2086  1.3561  0.2880
19035THY    CA356653   8.907   8.009   2.684 -0.7830  0.6698  0.4139
19035THY    HA356654   8.936   7.941   2.763 -0.5529 -0.5421 -0.9461
19035THY    CA456655   8.783   7.990   2.629 -0.2851  0.3784 -0.3176
19035THY    HA456656   8.723   7.910   2.672 -0.6790  1.9645  0.8018
19035THY    CA556657   8.732   8.075   2.532  0.0125  0.2890 -0.3543
19035THY    CM156658   8.590   8.061   2.478 -0.4891 -0.2773 -0.7225
19035THY    HM156659   8.531   8.154   2.476 -1.4495 -3.7507 -1.2883
19035THY    HM256660   8.535   7.990   2.541 -0.5447  0.4430 -0.0624
19035THY    HM356661   8.587   8.021   2.377 -0.3380  0.1206 -1.7647
19035THY    CA656662   8.808   8.186   2.496  0.5754 -0.1377 -0.8648
19035THY    HA656663   8.771   8.264   2.430 -0.3289 -0.6123 -1.6751
19036THY      O56664   2.540   7.562   1.737 -0.6271  0.3237 -0.6982
19036THY     HO56665   2.490   7.531   1.659 -1.4030  0.1632  0.8599
19036THY    CA156666   2.587   7.454   1.793 -0.4090 -0.7515  0.2342
19036THY    CA256667   2.532   7.399   1.910 -0.2886 -0.8085  0.3729
19036THY    CP156668   2.404   7.470   1.975 -0.0685  0.9381  0.0510
19036THY    HP156669   2.342   7.495   1.888  0.1058  0.5540 -0.7990
19036THY    CP256670   2.436   7.597   2.048  0.7609  0.3784 -0.6941
19036THY    HP256671   2.484   7.579   2.145  0.4627  0.8893  1.0184
19036THY    HP356672   2.346   7.654   2.074 -0.5481  3.0367 -3.6601
19036THY    HP456673   2.508   7.657   1.992  2.9115  3.0902 -0.5534
19036THY    CP356674   2.318   7.377   2.075 -0.0458 -0.0594  0.0706
19036THY    HP556675   2.276   7.302   2.007  1.9396 -3.2876  1.6511
19036THY    HP656676   2.232   7.433   2.116 -0.4875 -0.8504 -0.0187
19036THY    HP756677   2.373   7.328   2.156  0.3457 -1.3908 -1.7779
19036THY    CA356678   2.589   7.282   1.960  0.0060  0.0675  0.0945
19036THY    HA356679   2.553   7.231   2.049  0.7364  0.7005  0.6622
19036THY    CA456680   2.703   7.229   1.896  0.6014  0.2907  0.9888
19036THY    HA456681   2.742   7.133   1.927 -0.0057 -0.4698  0.4805
19036THY    CA556682   2.761   7.287   1.785 -0.3520 -0.2910 -0.4748
19036THY    CM156683   2.860   7.208   1.705 -0.5465  0.4156 -0.0204
19036THY    HM156684   2.913   7.120   1.742 -0.0703  2.3717  1.0136
19036THY    HM256685   2.933   7.271   1.654 -0.3788 -1.6160 -1.7853
19036THY    HM356686   2.798   7.183   1.619 -0.0298 -0.1427  0.6009
19036THY    CA656687   2.700   7.402   1.729 -0.3673  0.2762 -0.7316
19036THY    HA656688   2.735   7.449   1.638  0.1084  1.8351  2.1384
19037THY      O56689   4.597   5.717   2.784 -0.0606  0.5823 -0.0718
19037THY     HO56690   4.617   5.635   2.832 -0.0858  0.7087 -0.0045
19037THY    CA156691   4.564   5.812   2.876 -0.7838  0.1769 -0.1253
19037THY    CA256692   4.516   5.943   2.845 -0.0387  0.7130  0.3339
19037THY    CP156693   4.505   5.984   2.707 -0.2707  0.1756 -0.6400
19037THY    HP156694   4.502   5.891   2.648 -3.1176 -0.1384 -0.4587
19037THY    CP256695   4.632   6.064   2.675 -0.2776 -0.4129  0.0601
19037THY    HP256696   4.633   6.172   2.692  0.2526  0.0467 -0.0175
19037THY    HP356697   4.653   6.058   2.567 -3.1237 -1.0053 -1.4166
19037THY    HP456698   4.719   6.032   2.733  2.1637 -3.9424 -0.3037
19037THY    CP356699   4.386   6.076   2.671  0.6846 -0.2286 -0.1943
19037THY    HP556700   4.367   6.148   2.752  1.6719 -2.3031  2.5859
19037THY    HP656701   4.301   6.009   2.656  0.1847  0.0375  0.3718
19037THY    HP756702   4.396   6.130   2.577 -0.2416  0.7631  1.8134
19037THY    CA356703   4.490   6.038   2.946  0.0038  0.4586 -0.1250
19037THY    HA356704   4.467   6.142   2.923 -2.2235 -0.5277 -0.7710
19037THY    CA456705   4.506   5.997   3.081 -0.1404 -0.2841  0.2662
19037THY    HA456706   4.493   6.075   3.156  1.1504 -2.2004  2.4751
19037THY    CA556707   4.549   5.864   3.109 -0.2070  0.2503 -0.2753
19037THY    CM156708   4.558   5.808   3.249 -0.3531  0.1982 -0.1433
19037THY    HM156709   4.657   5.766   3.266 -0.1443  0.9418  0.6246
19037THY    HM256710   4.479   5.734   3.269 -0.3061 -0.2656 -0.3234
19037THY    HM356711   4.546   5.891   3.319  0.0032 -0.4277  0.4450
19037THY    CA656712   4.584   5.776   3.008 -0.4639  0.3053 -0.0848
19037THY    HA656713   4.620   5.676   3.032 -1.6665  0.3553 -0.5176
19038THY      O56714   4.600   0.887   7.293  0.2210  0.0760 -0.3846
19038THY     HO56715   4.657   0.899   7.215 -0.4128 -0.7615 -2.3247
19038THY    CA156716   4.548   1.012   7.314  0.3729  0.7442 -0.3899
19038THY    CA256717   4.471   1.040   7.430  0.2650  0.0628  0.2345
19038THY    CP156718   4.477   0.943   7.543  0.4457 -0.2578 -0.3442
19038THY    HP156719   4.485   0.842   7.503  1.1825 -0.1345 -0.3400
19038THY    CP256720   4.347   0.938   7.629  0.7667 -0.7479 -0.1660
19038THY    HP256721   4.348   0.857   7.703 -0.3755 -1.1122 -0.5266
19038THY    HP356722   4.260   0.939   7.562 -0.0289  0.1744  2.9283
19038THY    HP456723   4.338   1.027   7.692  0.7448 -2.1362  0.8512
19038THY    CP356724   4.599   0.956   7.634  0.1036 -0.9473 -0.8080
19038THY    HP556725   4.692   0.958   7.576  0.0724 -0.9720  0.4509
19038THY    HP656726   4.608   0.866   7.697 -0.2543  3.4160  1.9009
19038THY    HP756727   4.585   1.046   7.694  0.1271 -1.9010 -0.1557
19038THY    CA356728   4.410   1.169   7.438  0.0215 -0.2986 -0.3063
19038THY    HA356729   4.341   1.192   7.520  1.4858  0.8406  0.1967
19038THY    CA456730   4.415   1.252   7.324  0.2241  0.3340  0.0405
19038THY    HA456731   4.352   1.341   7.324  0.8516 -2.4234  0.5729
19038THY    CA556732   4.491   1.224   7.211 -0.4556 -0.3960  0.4739
19038THY    CM156733   4.516   1.313   7.087 -0.6373 -0.1831  0.4287
19038THY    HM156734   4.619   1.347   7.071 -0.9814 -1.8716  0.7666
19038THY    HM256735   4.471   1.411   7.102 -0.7890  1.0621  0.1761
19038THY    HM356736   4.490   1.251   7.000  1.7026 -0.0403 -0.9122
19038THY    CA656737   4.558   1.104   7.207  0.6098 -0.1003 -0.5547
19038THY    HA656738   4.619   1.083   7.120  1.8323  0.7435 -0.6553
19039THY      O56739   4.094   3.040   5.192 -0.4742 -0.1717  0.1160
19039THY     HO56740   4.186   3.051   5.164 -0.9333 -1.3133  1.4009
19039THY    CA156741   4.091   3.146   5.271 -0.1823 -0.2663 -0.0992
19039THY    CA256742   3.978   3.195   5.328  0.1444  0.2826 -0.9123
19039THY    CP156743   3.838   3.125   5.306  0.0112 -0.3259 -0.2913
19039THY    HP156744   3.859   3.020   5.281  0.1757  1.5118 -0.7445
19039THY    CP256745   3.762   3.207   5.192 -0.8164 -0.2571  0.6834
19039THY    HP256746   3.815   3.234   5.100  0.7474  0.9764  2.0027
19039THY    HP356747   3.722   3.298   5.237 -0.3272  0.1278  0.7081
19039THY    HP456748   3.675   3.148   5.161 -1.2167  2.4139 -0.2678
19039THY    CP356749   3.764   3.128   5.439 -0.1882  0.0502 -0.7811
19039THY    HP556750   3.676   3.066   5.421 -0.6405 -0.5800  0.0157
19039THY    HP656751   3.716   3.225   5.460 -6.6565 -2.6015 -2.8376
19039THY    HP756752   3.822   3.096   5.526 -3.0501  2.7857  0.9196
19039THY    CA356753   3.985   3.312   5.398  0.1035  0.1644  0.0836
19039THY    HA356754   3.895   3.357   5.438 -0.4437 -0.4111 -0.4891
19039THY    CA456755   4.108   3.374   5.417  0.6994  0.2569  0.1055
19039THY    HA456756   4.099   3.467   5.472 -0.1217 -1.0474  0.8199
19039THY    CA556757   4.229   3.314   5.374 -0.2060 -0.8318  0.4527
19039THY    CM156758   4.360   3.377   5.402 -0.1508  0.0601  0.5845
19039THY    HM156759   4.388   3.396   5.506  0.6033  0.0116 -0.2040
19039THY    HM256760   4.360   3.471   5.344 -0.8951  1.2130  1.3238
19039THY    HM356761   4.441   3.314   5.363 -1.4093  0.4498 -1.3461
19039THY    CA656762   4.217   3.203   5.296 -1.0693  0.3525  0.2201
19039THY    HA656763   4.308   3.161   5.254  0.2012  1.4463  1.7930
19040THY      O56764   4.207   2.535   2.606  0.2920 -0.1448  0.1019
19040THY     HO56765   4.295   2.538   2.564  0.1696 -0.3660  1.2978
19040THY    CA156766   4.149   2.657   2.620 -0.4263  0.4455 -0.6338
19040THY    CA256767   4.026   2.668   2.685  0.0003 -0.3187 -0.6527
19040THY    CP156768   3.955   2.546   2.735  0.2985 -0.0419  1.2798
19040THY    HP156769   4.014   2.456   2.753 -2.8352 -1.7013 -1.3288
19040THY    CP256770   3.861   2.494   2.625  0.0437 -0.5535 -0.4329
19040THY    HP256771   3.828   2.393   2.652 -0.4780  0.9586  0.1135
19040THY    HP356772   3.913   2.500   2.528 -0.7457 -0.8846  2.1088
19040THY    HP456773   3.779   2.567   2.620  0.2736 -1.7940 -0.2363
19040THY    CP356774   3.866   2.569   2.871 -0.3581  0.1496  0.4036
19040THY    HP556775   3.933   2.609   2.948 -0.7092  0.7683 -0.1864
19040THY    HP656776   3.826   2.476   2.913 -0.1411  2.9144  1.4481
19040THY    HP756777   3.782   2.638   2.862  0.8036 -0.4348  1.7972
19040THY    CA356778   3.979   2.804   2.703  0.5096 -0.2657 -0.4613
19040THY    HA356779   3.887   2.824   2.757  1.2915  0.8303  0.2713
19040THY    CA456780   4.052   2.916   2.656  0.1691 -0.6274  0.2161
19040THY    HA456781   4.010   3.014   2.679  1.2747  0.0907  0.5522
19040THY    CA556782   4.177   2.901   2.593  0.0829  0.7872  0.4538
19040THY    CM156783   4.229   3.016   2.512 -0.8063  0.6305 -0.0388
19040THY    HM156784   4.240   2.999   2.404  0.0459  0.9217 -1.4464
19040THY    HM256785   4.327   3.047   2.550  0.6277 -1.1800 -2.0863
19040THY    HM356786   4.162   3.103   2.507  0.3080 -2.3123  0.7955
19040THY    CA656787   4.217   2.769   2.573 -0.6920 -0.4403 -0.6970
19040THY    HA656788   4.309   2.757   2.515 -0.5239 -0.5517  0.9026
19041THY      O56789   1.083   0.740   5.435  0.3630 -0.1461  0.6568
19041THY     HO56790   1.156   0.703   5.487 -0.7097  0.6354 -0.4397
19041THY    CA156791   1.029   0.650   5.355 -0.4064 -0.6077  0.4651
19041THY    CA256792   0.956   0.686   5.238  1.0669  0.4408  0.3042
19041THY    CP156793   0.931   0.832   5.196  0.2032 -0.3919 -0.2772
19041THY    HP156794   0.980   0.901   5.265 -1.0846 -1.2169  1.5323
19041THY    CP256795   0.781   0.861   5.190  0.0032  0.4722  0.7016
19041THY    HP256796   0.757   0.868   5.297  3.9332  1.4817  0.7026
19041THY    HP356797   0.718   0.792   5.132  1.7364 -2.6084  1.5066
19041THY    HP456798   0.757   0.958   5.146 -1.0874 -2.6409 -0.8553
19041THY    CP356799   0.995   0.861   5.061 -0.7401  0.4600 -0.0291
19041THY    HP556800   0.980   0.964   5.025  2.5133 -1.1697 -0.0029
19041THY    HP656801   0.960   0.788   4.988 -0.1454  0.2034 -0.0622
19041THY    HP756802   1.104   0.848   5.067 -0.9757 -0.3159 -2.8031
19041THY    CA356803   0.893   0.582   5.161  0.2615 -0.2200 -0.2384
19041THY    HA356804   0.846   0.606   5.066  2.8695 -1.1926  1.5793
19041THY    CA456805   0.891   0.450   5.206 -0.4167  0.4274 -0.2357
19041THY    HA456806   0.835   0.372   5.155 -3.0782  3.2570 -0.3851
19041THY    CA556807   0.964   0.414   5.317 -0.6513  0.3606 -0.5745
19041THY    CM156808   0.975   0.268   5.349 -0.2986 -0.3018  0.1301
19041THY    HM156809   0.994   0.198   5.267 -0.7786 -1.8607  1.7541
19041THY    HM256810   0.894   0.238   5.417 -1.4437 -0.7942  1.9112
19041THY    HM356811   1.068   0.257   5.405  0.3567 -1.4936 -0.5368
19041THY    CA656812   1.035   0.512   5.389 -0.3236  0.1078 -0.3454
19041THY    HA656813   1.081   0.484   5.483  2.4420 -0.8786  0.5945
19042THY      O56814   2.979   2.357   7.651  0.3224 -0.7196  0.5225
19042THY     HO56815   2.923   2.338   7.573 -0.8139  0.2031  0.0159
19042THY    CA156816   3.000   2.488   7.642  0.5351  0.0690  0.3085
19042THY    CA256817   3.097   2.544   7.719 -0.4062 -0.2931 -0.3946
19042THY    CP156818   3.187   2.463   7.814 -0.2570 -0.1322 -0.4809
19042THY    HP156819   3.147   2.361   7.819 -1.2210 -3.1701 -0.3442
19042THY    CP256820   3.201   2.518   7.957 -0.8192 -0.2052  0.0307
19042THY    HP256821   3.103   2.536   8.004 -0.9155  0.0192 -1.0193
19042THY    HP356822   3.259   2.611   7.962 -3.2992 -1.4801  1.7628
19042THY    HP456823   3.260   2.442   8.010  2.7687 -3.4206  0.2767
19042THY    CP356824   3.328   2.460   7.742 -0.3186  0.1568 -0.1562
19042THY    HP556825   3.373   2.559   7.754  0.4118  0.5482 -0.5270
19042THY    HP656826   3.309   2.450   7.635  2.0222 -0.6402  2.5934
19042THY    HP756827   3.383   2.373   7.778 -1.9969  0.8773 -0.9663
19042THY    CA356828   3.111   2.687   7.714  0.7620  0.0789  0.2141
19042THY    HA356829   3.195   2.731   7.767  0.9356 -0.5289  0.6251
19042THY    CA456830   3.019   2.764   7.628  0.2795  0.1565  0.2103
19042THY    HA456831   3.030   2.871   7.642  2.5189 -0.5492  0.1246
19042THY    CA556832   2.922   2.703   7.554  0.0625  0.0805 -0.2598
19042THY    CM156833   2.832   2.788   7.469 -0.2719 -0.2410  0.6762
19042THY    HM156834   2.777   2.850   7.541 -1.1221 -0.7793  0.5565
19042THY    HM256835   2.754   2.726   7.423  0.4420 -0.7820  0.1682
19042THY    HM356836   2.890   2.837   7.390 -0.1766 -0.3818  0.3330
19042THY    CA656837   2.909   2.566   7.566  0.1040 -0.0784  1.2693
19042THY    HA656838   2.833   2.519   7.504  1.1445 -0.8195  0.5082
19043THY      O56839   2.507   7.387   3.283  0.6778  0.3416  0.0286
19043THY     HO56840   2.547   7.326   3.347 -2.1778  0.6632 -1.6977
19043THY    CA156841   2.607   7.427   3.202  0.4197 -0.1973 -0.1061
19043THY    CA256842   2.581   7.528   3.104 -0.2265 -0.5947 -0.5157
19043THY    CP156843   2.440   7.591   3.098 -0.5649  0.6375  0.3966
19043THY    HP156844   2.366   7.539   3.160 -0.0892  1.5850  0.8228
19043THY    CP256845   2.385   7.606   2.954 -0.0116  0.1981 -0.3270
19043THY    HP256846   2.280   7.636   2.962 -0.2227  3.1517 -1.5281
19043THY    HP356847   2.384   7.524   2.881  0.0651  1.4312 -1.4458
19043THY    HP456848   2.451   7.686   2.916  1.1401  0.5933 -1.0680
19043THY    CP356849   2.442   7.738   3.163 -0.0598 -0.6567 -0.0056
19043THY    HP556850   2.462   7.726   3.270 -0.1134 -0.7158 -0.6560
19043THY    HP656851   2.350   7.796   3.149  0.0828  0.1609  0.4270
19043THY    HP756852   2.528   7.791   3.120  1.8290  1.2394 -1.3535
19043THY    CA356853   2.690   7.567   3.017  0.4855 -0.4432  0.0146
19043THY    HA356854   2.679   7.646   2.943 -0.3581 -0.2753  0.0551
19043THY    CA456855   2.811   7.503   3.021 -0.6293 -0.3242  0.6289
19043THY    HA456856   2.886   7.524   2.945 -0.8926 -0.9546 -0.6588
19043THY    CA556857   2.834   7.397   3.110 -0.0954  0.0423  0.7081
19043THY    CM156858   2.964   7.318   3.115  0.4471  1.2045 -0.0674
19043THY    HM156859   3.052   7.370   3.152  1.1269 -0.6850  0.2217
19043THY    HM256860   2.984   7.289   3.011  0.8565  1.3391 -0.2719
19043THY    HM356861   2.954   7.226   3.174 -0.6268  1.5536  0.2552
19043THY    CA656862   2.731   7.367   3.199 -0.0870  0.0856  0.2127
19043THY    HA656863   2.757   7.291   3.273 -0.1884  1.0296  1.0770
19044THY      O56864   5.826   5.489   2.151  0.1264  0.9252 -0.2133
19044THY     HO56865   5.732   5.485   2.127  0.6183 -1.5671  0.8493
19044THY    CA156866   5.844   5.483   2.281  0.5639  0.4898 -0.2011
19044THY    CA256867   5.968   5.495   2.347 -0.3504 -0.0658 -0.2312
19044THY    CP156868   6.102   5.543   2.272  0.2726 -0.5473  0.2894
19044THY    HP156869   6.096   5.551   2.163 -0.4311 -0.6034 -0.7663
19044THY    CP256870   6.213   5.450   2.304  0.0701 -0.5585 -0.4663
19044THY    HP256871   6.185   5.344   2.303 -2.2942  0.4049  0.1011
19044THY    HP356872   6.268   5.481   2.393 -0.5396 -0.8654  1.6753
19044THY    HP456873   6.287   5.461   2.223  0.6127 -0.0856 -0.5821
19044THY    CP356874   6.133   5.687   2.309 -0.2682  0.4867  0.0868
19044THY    HP556875   6.059   5.752   2.260  2.1960  0.4385  3.1131
19044THY    HP656876   6.228   5.721   2.265  0.0914 -0.0331 -1.5112
19044THY    HP756877   6.127   5.694   2.418 -0.2150  0.4950  0.0057
19044THY    CA356878   5.981   5.474   2.485  0.1414 -0.6629 -0.5708
19044THY    HA356879   6.073   5.497   2.538  0.1809  0.2006 -2.4665
19044THY    CA456880   5.868   5.430   2.553  0.1074 -0.2323  0.0135
19044THY    HA456881   5.877   5.403   2.657  1.5978 -0.1285  0.8103
19044THY    CA556882   5.749   5.394   2.488  0.7138 -0.4218  0.0290
19044THY    CM156883   5.632   5.342   2.559  0.4046  0.7434  0.1757
19044THY    HM156884   5.552   5.323   2.487 -0.2286  1.2799  0.7414
19044THY    HM256885   5.598   5.411   2.637 -2.0540 -1.1317  1.2423
19044THY    HM356886   5.657   5.244   2.603 -2.4312  0.8814 -0.5632
19044THY    CA656887   5.736   5.424   2.351 -0.5026  0.5592 -0.4201
19044THY    HA656888   5.640   5.421   2.300 -0.2959 -0.4510  3.8276
19045THY      O56889   5.947   4.238   7.142  0.0587  0.4565  0.7471
19045THY     HO56890   5.859   4.252   7.102  0.3047 -0.0292  0.9228
19045THY    CA156891   6.015   4.144   7.075 -0.0091  0.2317  0.0087
19045THY    CA256892   6.125   4.074   7.134 -0.7521 -0.0946 -0.6921
19045THY    CP156893   6.190   4.099   7.276 -0.6802  0.1283 -1.2261
19045THY    HP156894   6.156   4.194   7.319  0.8606  2.5867 -1.7010
19045THY    CP256895   6.346   4.110   7.262  0.3303  0.5120  0.6734
19045THY    HP256896   6.392   4.170   7.341 -0.8708  1.5982  0.1878
19045THY    HP356897   6.374   4.161   7.169 -0.6380 -0.4159 -0.4226
19045THY    HP456898   6.396   4.012   7.263  1.4334 -0.2332  1.2037
19045THY    CP356899   6.152   3.989   7.367 -0.0560 -1.3238  0.2926
19045THY    HP556900   6.189   3.893   7.328 -0.0625 -0.5403 -0.0356
19045THY    HP656901   6.043   3.984   7.376 -0.0588 -1.9408 -1.5068
19045THY    HP756902   6.195   4.011   7.465  0.5443 -1.6779  0.7254
19045THY    CA356903   6.197   3.983   7.047  0.4789 -0.1689 -0.3747
19045THY    HA356904   6.288   3.930   7.073  1.7658 -0.6299  1.5282
19045THY    CA456905   6.155   3.964   6.913  0.0978 -0.5402  0.1370
19045THY    HA456906   6.196   3.887   6.849 -0.9255  0.2491 -1.1176
19045THY    CA556907   6.047   4.032   6.869 -0.3737 -0.7953 -0.6398
19045THY    CM156908   5.990   4.026   6.724 -0.5588 -0.0651 -0.3944
19045THY    HM156909   6.003   4.115   6.662 -1.5495  1.9359  1.2066
19045THY    HM256910   5.885   3.996   6.739 -1.0467 -0.4297  1.0576
19045THY    HM356911   6.042   3.941   6.679  1.0056 -0.0007  0.5086
19045THY    CA656912   5.976   4.125   6.950 -0.0118  0.1220  0.2687
19045THY    HA656913   5.900   4.187   6.903  0.1828 -0.4074  0.1181
19046THY      O56914   0.873   5.866   4.817  0.3123  0.2751  0.5476
19046THY     HO56915   0.887   5.961   4.802  1.7291  0.4164  0.3938
19046THY    CA156916   0.990   5.801   4.818  0.3458  0.9309  0.6532
19046THY    CA256917   0.995   5.660   4.803  0.1716 -0.5015  0.3022
19046THY    CP156918   0.865   5.580   4.780  0.0185 -0.5424 -1.1667
19046THY    HP156919   0.782   5.628   4.832  0.4783 -2.6370  2.1776
19046THY    CP256920   0.876   5.436   4.826 -0.1788 -0.5300  0.8292
19046THY    HP256921   0.781   5.383   4.845 -0.0983  2.5320  1.5847
19046THY    HP356922   0.923   5.429   4.924  0.3442 -0.8547 -0.4087
19046THY    HP456923   0.941   5.366   4.772 -0.2626 -0.0216  0.3543
19046THY    CP356924   0.837   5.571   4.627  0.5342 -0.2963  1.1996
19046THY    HP556925   0.732   5.597   4.606  0.4560  1.0243  2.0442
19046THY    HP656926   0.839   5.468   4.591 -0.1497 -0.5946  1.2843
19046THY    HP756927   0.896   5.642   4.568  0.4088 -2.8273 -0.6655
19046THY    CA356928   1.122   5.599   4.800  0.0489 -0.3999  0.5741
19046THY    HA356929   1.140   5.492   4.801  0.4859 -0.7450  0.6430
19046THY    CA456930   1.234   5.679   4.817  0.6170  0.4805 -0.1255
19046THY    HA456931   1.330   5.633   4.839  0.4270  0.6738 -0.4275
19046THY    CA556932   1.231   5.815   4.818 -0.0639 -0.4145 -0.1778
19046THY    CM156933   1.358   5.891   4.841 -0.1545  0.1941  0.2113
19046THY    HM156934   1.339   5.969   4.915  1.5498  0.6861  0.2041
19046THY    HM256935   1.382   5.949   4.751  1.3749  0.5082  0.1135
19046THY    HM356936   1.450   5.837   4.865  0.6055  0.0969  1.4191
19046THY    CA656937   1.108   5.879   4.822  0.3877 -1.1582  0.2940
19046THY    HA656938   1.099   5.986   4.836 -2.3672  0.2052 -0.0372
19047THY      O56939   5.568   5.412   2.024 -0.6345  0.1150 -0.0487
19047THY     HO56940   5.602   5.333   1.979 -0.0638  0.3330  0.0685
19047THY    CA156941   5.443   5.438   1.979  0.2950 -0.0498  0.7921
19047THY    CA256942   5.334   5.478   2.065  0.0577 -0.4413  0.5260
19047THY    CP156943   5.361   5.481   2.217  0.4820 -0.4109 -0.2672
19047THY    HP156944   5.424   5.396   2.243  1.5841 -1.3349  0.2373
19047THY    CP256945   5.229   5.460   2.295 -0.6082 -0.4305  0.0867
19047THY    HP256946   5.243   5.473   2.403  1.2196 -0.3918 -1.6993
19047THY    HP356947   5.195   5.359   2.272 -0.3399  1.5031 -0.4830
19047THY    HP456948   5.150   5.533   2.272 -0.9882 -1.1047 -0.5259
19047THY    CP356949   5.429   5.615   2.269 -0.2088  0.0294  0.4917
19047THY    HP556950   5.485   5.590   2.359  0.7000  0.2865  3.1562
19047THY    HP656951   5.352   5.686   2.301 -0.7154  0.5738 -0.2746
19047THY    HP756952   5.496   5.648   2.189 -0.2912  0.0716  0.7635
19047THY    CA356953   5.202   5.488   2.013  0.6418  0.7737 -0.7320
19047THY    HA356954   5.112   5.515   2.067 -0.2595 -1.0383  0.1009
19047THY    CA456955   5.194   5.475   1.874 -1.2109 -0.0657  0.1770
19047THY    HA456956   5.099   5.487   1.823 -1.4063 -0.1745 -1.5643
19047THY    CA556957   5.301   5.435   1.792  0.3698  0.2630 -0.4422
19047THY    CM156958   5.299   5.433   1.643  0.4964 -0.8713  0.2911
19047THY    HM156959   5.348   5.349   1.591  1.1346 -0.9021  0.6799
19047THY    HM256960   5.332   5.534   1.616  0.6479  0.9524  0.7551
19047THY    HM356961   5.196   5.426   1.604 -1.0043  2.3063  2.4904
19047THY    CA656962   5.426   5.416   1.849 -0.2687 -1.3936  0.0475
19047THY    HA656963   5.515   5.382   1.796 -0.6417 -0.8981 -1.8313
19048THY      O56964   2.052   6.226   4.381 -0.2815  0.1316 -0.1461
19048THY     HO56965   2.144   6.195   4.383 -0.2527  0.0473 -0.0662
19048THY    CA156966   2.043   6.321   4.484  0.2262  0.5826  0.2354
19048THY    CA256967   1.925   6.378   4.505 -1.9244 -0.7050 -0.1007
19048THY    CP156968   1.821   6.360   4.398  0.6335 -0.1952  0.5480
19048THY    HP156969   1.867   6.341   4.300  0.3218 -0.4428  1.0403
19048THY    CP256970   1.722   6.472   4.371  0.7612 -0.2069 -0.1755
19048THY    HP256971   1.640   6.480   4.443 -0.2508 -0.9968 -2.5400
19048THY    HP356972   1.668   6.469   4.276 -1.5553  1.0482 -0.6386
19048THY    HP456973   1.764   6.572   4.381 -1.9734  0.6419  0.9859
19048THY    CP356974   1.745   6.226   4.430  0.2788 -0.2860 -0.4649
19048THY    HP556975   1.717   6.232   4.536  2.2257  0.3010 -0.8631
19048THY    HP656976   1.816   6.142   4.420  0.1459  2.7839 -1.0530
19048THY    HP756977   1.660   6.210   4.363 -0.1610  0.5311 -1.6410
19048THY    CA356978   1.895   6.430   4.641  0.5967  0.5187  0.0098
19048THY    HA356979   1.796   6.461   4.670 -0.3510  0.4181 -2.6946
19048THY    CA456980   2.001   6.439   4.733 -0.1753 -0.4415 -0.0335
19048THY    HA456981   1.986   6.481   4.832 -1.2592 -0.0477 -1.2666
19048THY    CA556982   2.129   6.398   4.694  0.9905 -0.2528  0.0913
19048THY    CM156983   2.236   6.386   4.800 -0.0356  0.5033  0.4309
19048THY    HM156984   2.337   6.382   4.758 -0.0953  0.3981 -0.0389
19048THY    HM256985   2.222   6.291   4.852  0.9317 -0.3668 -0.1979
19048THY    HM356986   2.231   6.473   4.866 -2.3146  1.2336 -0.1624
19048THY    CA656987   2.151   6.338   4.570  0.3456  0.5615  0.4384
19048THY    HA656988   2.252   6.304   4.548  0.7671 -0.7714  2.3691
19049THY      O56989   1.504   0.972   3.790 -0.8912  0.1890  0.1946
19049THY     HO56990   1.533   1.022   3.868 -0.6528  0.7888 -0.8604
19049THY    CA156991   1.375   0.998   3.779 -0.2563  0.6993  0.1220
19049THY    CA256992   1.286   0.933   3.692  0.2765 -0.2483  0.4506
19049THY    CP156993   1.333   0.805   3.611  0.1275 -0.4628  0.2984
19049THY    HP156994   1.442   0.811   3.613  0.2231 -0.7761 -1.0492
19049THY    CP256995   1.267   0.808   3.468 -0.4497  0.5558  0.1966
19049THY    HP256996   1.312   0.739   3.397 -2.7272 -1.4419  0.6166
19049THY    HP356997   1.278   0.903   3.415  0.6158 -1.6489 -1.0940
19049THY    HP456998   1.160   0.787   3.479 -0.4696  0.2049  0.1076
19049THY    CP356999   1.304   0.669   3.685 -0.1266  0.1698  0.0397
19049THY    HP557000   1.357   0.582   3.644 -1.7231 -1.5358 -0.1891
19049THY    HP657001   1.197   0.647   3.677 -0.0845 -0.0715 -0.0832
19049THY    HP757002   1.325   0.669   3.792 -0.5089  0.2588 -1.0495
19049THY    CA357003   1.156   0.976   3.681  0.2856  0.1183 -0.1713
19049THY    HA357004   1.078   0.924   3.626 -1.5925  2.8439 -0.4437
19049THY    CA457005   1.104   1.077   3.762 -0.0140  0.2340 -0.0693
19049THY    HA457006   1.003   1.113   3.750  0.5409 -1.3372  1.1269
19049THY    CA557007   1.195   1.145   3.846 -0.5015 -0.5740  1.0583
19049THY    CM157008   1.149   1.255   3.942 -0.3184  0.2499  0.0532
19049THY    HM157009   1.151   1.353   3.893  1.1454 -0.3781 -0.2643
19049THY    HM257010   1.216   1.261   4.029 -0.4262  0.4749 -1.4377
19049THY    HM357011   1.052   1.235   3.989 -0.7374 -0.7312 -0.3132
19049THY    CA657012   1.327   1.110   3.855 -0.1129  0.0854  0.1406
19049THY    HA657013   1.399   1.168   3.911  0.7260 -2.4973  1.7358
19050THY      O57014   0.657   1.120   2.554  0.7109 -0.0179  0.8257
19050THY     HO57015   0.671   1.085   2.465 -0.4638  0.1803 -0.2010
19050THY    CA157016   0.727   1.045   2.642 -0.6934  0.6451 -0.0393
19050THY    CA257017   0.676   1.018   2.770 -0.0565 -0.0204  0.3494
19050THY    CP157018   0.541   1.081   2.816 -0.4991  0.0690 -0.0853
19050THY    HP157019   0.515   1.164   2.750  2.1061 -0.4071  0.4597
19050THY    CP257020   0.550   1.140   2.963  0.7924 -0.0785  0.2730
19050THY    HP257021   0.623   1.221   2.970 -0.3594 -0.2778  1.3703
19050THY    HP357022   0.554   1.062   3.040  0.4688 -2.3184 -2.1028
19050THY    HP457023   0.455   1.187   2.992  1.3515  0.3519  1.1620
19050THY    CP357024   0.428   0.977   2.808 -0.1155  0.5126  0.0520
19050THY    HP557025   0.421   0.926   2.711 -1.0031  0.4953  0.1925
19050THY    HP657026   0.329   1.018   2.829 -0.6117  0.5616 -1.1381
19050THY    HP757027   0.454   0.907   2.889  1.1192  2.1308  2.2291
19050THY    CA357028   0.743   0.928   2.857  0.5494  0.4293  0.3583
19050THY    HA357029   0.709   0.909   2.958 -0.4236 -0.2588 -1.9384
19050THY    CA457030   0.866   0.878   2.811 -0.1011 -0.2796  0.3915
19050THY    HA457031   0.919   0.794   2.856  0.2491 -1.1140  0.1499
19050THY    CA557032   0.921   0.908   2.685 -0.0323  0.9171 -1.0173
19050THY    CM157033   1.057   0.859   2.645  0.0991  0.1236 -0.0239
19050THY    HM157034   1.071   0.829   2.540 -0.8578  0.4371 -1.7332
19050THY    HM257035   1.098   0.776   2.705 -1.4147  0.8873 -0.2508
19050THY    HM357036   1.126   0.940   2.671  1.7836  0.4775 -1.5122
19050THY    CA657037   0.854   0.996   2.600 -0.0384 -0.1226  0.0867
19050THY    HA657038   0.896   1.032   2.507  1.3774  0.6038  0.3814
19051THY      O57039   5.956   4.549   3.885 -0.1662 -0.5497  1.1103
19051THY     HO57040   5.944   4.632   3.935 -1.6267  0.5523  0.2763
19051THY    CA157041   6.092   4.545   3.870  0.6568  0.8685  0.3589
19051THY    CA257042   6.150   4.459   3.769  0.0103  1.4166 -0.5175
19051THY    CP157043   6.056   4.376   3.676 -0.4809  0.4639  0.0310
19051THY    HP157044   5.974   4.439   3.641 -1.3343  0.3465 -1.1050
19051THY    CP257045   6.009   4.252   3.752 -1.1196  0.1042 -0.0929
19051THY    HP257046   5.936   4.192   3.696  0.5765 -1.5078 -0.7502
19051THY    HP357047   5.973   4.288   3.849 -0.4906 -0.2603  1.6246
19051THY    HP457048   6.085   4.178   3.779 -1.3411  1.7367  0.2476
19051THY    CP357049   6.123   4.334   3.546  0.3104 -0.1764 -0.1520
19051THY    HP557050   6.191   4.249   3.558 -2.2607 -0.2121 -2.3761
19051THY    HP657051   6.177   4.412   3.492  1.3276  1.5088  0.3455
19051THY    HP757052   6.044   4.289   3.484  0.4886  1.5577 -3.1366
19051THY    CA357053   6.288   4.452   3.759  0.2911 -0.6652  0.0802
19051THY    HA357054   6.332   4.397   3.676  3.6293  1.5031 -0.7870
19051THY    CA457055   6.369   4.521   3.850  1.1521  0.0026 -0.3375
19051THY    HA457056   6.477   4.507   3.844  0.9091  0.8294 -3.1924
19051THY    CA557057   6.313   4.609   3.952  0.0254 -0.1598  0.8624
19051THY    CM157058   6.406   4.687   4.047  0.5979  0.1138  0.4266
19051THY    HM157059   6.395   4.650   4.149  2.5544  1.0579  2.2127
19051THY    HM257060   6.369   4.790   4.053 -2.4742 -1.2573 -0.4985
19051THY    HM357061   6.515   4.674   4.042  0.8890  2.7268  1.2373
19051THY    CA657062   6.171   4.617   3.959  0.0348  0.2950 -0.6156
19051THY    HA657063   6.132   4.690   4.029  0.0993 -0.5084  0.2085
19052THY      O57064   2.221   8.336   6.428  0.3179  0.0689 -0.0477
19052THY     HO57065   2.309   8.318   6.465  0.0690  0.2253 -0.9781
19052THY    CA157066   2.191   8.242   6.334  0.3208  0.0077 -0.0779
19052THY    CA257067   2.070   8.229   6.266  0.4628 -0.0233 -0.1809
19052THY    CP157068   1.962   8.337   6.271 -0.0012 -0.4148 -0.2796
19052THY    HP157069   1.984   8.418   6.340 -1.2720  0.0294 -0.2913
19052THY    CP257070   1.830   8.266   6.317 -0.9757  0.9497 -0.3008
19052THY    HP257071   1.754   8.338   6.352  0.4864  1.4479  1.0518
19052THY    HP357072   1.851   8.193   6.396  4.9217  0.1878  0.0709
19052THY    HP457073   1.788   8.223   6.225  0.0085  0.1471  0.4037
19052THY    CP357074   1.944   8.414   6.139 -0.3807 -0.3001  0.5801
19052THY    HP557075   1.858   8.481   6.150 -1.4352  1.2871 -0.9493
19052THY    HP657076   1.922   8.342   6.059 -2.8495  0.9410 -0.1620
19052THY    HP757077   2.040   8.461   6.116 -0.0375 -0.4423 -0.1668
19052THY    CA357078   2.059   8.126   6.166 -0.0962  0.2379  0.7350
19052THY    HA357079   1.977   8.125   6.095 -0.4160  0.5547 -1.8119
19052THY    CA457080   2.152   8.030   6.161 -0.1440 -0.7233  0.2956
19052THY    HA457081   2.165   7.963   6.076  0.8934  0.1636 -0.6627
19052THY    CA557082   2.269   8.032   6.241 -0.3179 -0.3740  1.2409
19052THY    CM157083   2.379   7.931   6.243 -0.4688  0.2961  0.2349
19052THY    HM157084   2.476   7.978   6.264 -0.1029  0.3015 -0.5203
19052THY    HM257085   2.387   7.895   6.140  1.9588  0.2338  0.7862
19052THY    HM357086   2.367   7.851   6.316  0.8727 -1.8741 -2.1157
19052THY    CA657087   2.290   8.149   6.315 -0.3872  0.5810  0.2227
19052THY    HA657088   2.382   8.162   6.370 -0.0673  0.1638 -0.2169
19053THY      O57089   3.162   7.334   6.895 -0.2991 -0.3964  0.1555
19053THY     HO57090   3.066   7.342   6.911 -0.5326 -0.3483 -2.0572
19053THY    CA157091   3.180   7.367   6.764  0.6400 -0.0420  0.4454
19053THY    CA257092   3.307   7.410   6.715 -0.2105  0.3179  0.0121
19053THY    CP157093   3.424   7.407   6.812  0.2631 -0.5798  0.5910
19053THY    HP157094   3.405   7.324   6.881  0.7481 -2.6147 -1.2952
19053THY    CP257095   3.419   7.538   6.892 -0.2691  0.2602 -0.3121
19053THY    HP257096   3.489   7.529   6.976  0.7215 -0.6325 -1.0538
19053THY    HP357097   3.318   7.559   6.928 -0.9496 -1.3708 -0.6637
19053THY    HP457098   3.450   7.613   6.818  1.0214 -0.9759 -1.9997
19053THY    CP357099   3.565   7.393   6.749  0.0063  0.2309 -0.3935
19053THY    HP557100   3.581   7.468   6.670  1.3140  0.6648 -0.2011
19053THY    HP657101   3.577   7.296   6.701 -0.0247  0.1077 -0.3377
19053THY    HP757102   3.637   7.406   6.830  0.2408 -0.2563  1.8234
19053THY    CA357103   3.311   7.458   6.577 -0.6820 -0.6528 -0.1232
19053THY    HA357104   3.399   7.489   6.522 -0.5228 -0.3715 -0.0690
19053THY    CA457105   3.195   7.453   6.503 -0.1544  0.7825  1.0843
19053THY    HA457106   3.212   7.471   6.398  1.1774  0.8406  0.2675
19053THY    CA557107   3.072   7.401   6.552 -0.7558  0.1106  0.7721
19053THY    CM157108   2.952   7.387   6.469  0.0108 -0.2274 -0.1875
19053THY    HM157109   2.892   7.303   6.506 -1.2961 -1.3309  0.2283
19053THY    HM257110   2.980   7.375   6.364  2.4056  0.2433  0.6508
19053THY    HM357111   2.888   7.476   6.463 -0.6591 -0.2850 -0.6697
19053THY    CA657112   3.067   7.363   6.687  0.5414 -0.0386  0.0930
19053THY    HA657113   2.977   7.321   6.731  0.1062 -0.2718  0.7578
19054THY      O57114   9.340   8.407   4.796 -0.2944 -0.6337 -0.0035
19054THY     HO57115   9.429   8.393   4.832 -0.1985 -0.3280  1.2987
19054THY    CA157116   9.238   8.358   4.875 -0.2460  0.7144  0.3934
19054THY    CA257117   9.112   8.325   4.817 -0.6255 -0.2506 -0.0846
19054THY    CP157118   9.085   8.357   4.671 -0.5894  0.2882 -0.2780
19054THY    HP157119   9.104   8.464   4.662 -1.2980  0.7976 -0.1019
19054THY    CP257120   8.936   8.345   4.641 -0.1430  0.5598 -0.0152
19054THY    HP257121   8.878   8.414   4.705  0.9094  1.2022  0.3059
19054THY    HP357122   8.897   8.243   4.648  0.8734  1.5885 -0.3614
19054THY    HP457123   8.920   8.367   4.535 -1.1767  0.7540  0.2445
19054THY    CP357124   9.175   8.276   4.574  0.0230  0.5556  0.5242
19054THY    HP557125   9.128   8.289   4.475  0.5408  0.2228 -0.0668
19054THY    HP657126   9.183   8.171   4.607  1.5503  1.1344  0.7993
19054THY    HP757127   9.274   8.320   4.586 -0.6716 -0.2597  2.4085
19054THY    CA357128   9.011   8.279   4.911 -1.2576  0.4517  0.6652
19054THY    HA357129   8.907   8.260   4.884 -1.4692  1.8181 -0.2497
19054THY    CA457130   9.048   8.256   5.042  0.2456 -0.6281 -0.2800
19054THY    HA457131   8.976   8.226   5.117  2.1316  1.3244 -0.1595
19054THY    CA557132   9.181   8.285   5.088  0.7335 -0.3611  0.5253
19054THY    CM157133   9.221   8.253   5.230 -0.2459  0.0654  0.7876
19054THY    HM157134   9.258   8.150   5.235 -1.4119  1.1538  0.3974
19054THY    HM257135   9.137   8.248   5.300  1.8113  2.6082 -0.6616
19054THY    HM357136   9.297   8.323   5.267 -1.3873  1.9942  1.0804
19054THY    CA657137   9.274   8.321   5.005 -0.1608  0.2705  0.5798
19054THY    HA657138   9.371   8.326   5.054 -0.8579  1.9224 -1.0287
19055THY      O57139   5.656   3.107   6.322 -0.0149  0.1386 -0.3138
19055THY     HO57140   5.731   3.165   6.347 -1.0722 -3.0801  2.8392
19055THY    CA157141   5.715   3.021   6.232  0.1104 -0.0246  0.8620
19055THY    CA257142   5.633   2.946   6.147 -0.3577  0.5481  0.3321
19055THY    CP157143   5.477   2.951   6.152  0.1594 -0.2723  0.3555
19055THY    HP157144   5.442   3.028   6.222  0.6646  0.2913  0.0776
19055THY    CP257145   5.428   2.811   6.190 -0.4333 -0.1902  0.4120
19055THY    HP257146   5.319   2.810   6.200 -0.7099 -2.5399 -0.2247
19055THY    HP357147   5.478   2.775   6.280 -0.3030 -0.6617 -0.6201
19055THY    HP457148   5.457   2.741   6.111 -0.3618  0.0098  0.2178
19055THY    CP357149   5.418   3.004   6.025 -0.1606 -0.9447 -0.2778
19055THY    HP557150   5.316   3.037   6.049  0.9751  1.6861  1.6946
19055THY    HP657151   5.424   2.926   5.949 -0.0828  1.0622 -2.3367
19055THY    HP757152   5.482   3.087   5.995 -0.1176  1.5626  0.6844
19055THY    CA357153   5.700   2.866   6.051 -0.4422 -0.0593  0.4888
19055THY    HA357154   5.651   2.805   5.975 -0.5152 -0.8478  1.4859
19055THY    CA457155   5.841   2.861   6.047 -0.2292 -0.1579 -0.5696
19055THY    HA457156   5.886   2.794   5.975  0.2591 -0.3079 -0.0833
19055THY    CA557157   5.921   2.936   6.132 -0.1607  0.4969  0.3501
19055THY    CM157158   6.076   2.927   6.126 -0.4356  0.3662  0.2221
19055THY    HM157159   6.125   2.914   6.029  2.4976  1.9838 -1.8938
19055THY    HM257160   6.095   2.832   6.177  1.3809  0.5937  0.6762
19055THY    HM357161   6.120   3.011   6.181 -0.4183  1.7075 -0.6257
19055THY    CA657162   5.855   3.013   6.230 -0.4254 -0.1635 -0.6614
19055THY    HA657163   5.920   3.070   6.297 -3.1962  0.7927  1.6400
19056THY      O57164   4.589   5.818   6.882  0.2961 -0.5249 -0.0076
19056THY     HO57165   4.517   5.822   6.948  1.3218  0.6612 -0.7264
19056THY    CA157166   4.605   5.692   6.827  0.3831 -0.3913  1.3763
19056THY    CA257167   4.660   5.578   6.901  0.0249  0.2582 -0.2343
19056THY    CP157168   4.706   5.589   7.047  0.6360 -0.4944  0.1008
19056THY    HP157169   4.673   5.677   7.103 -1.7900  0.4323 -1.3044
19056THY    CP257170   4.856   5.597   7.054  0.5641  0.1297 -0.3473
19056THY    HP257171   4.885   5.589   7.160 -1.3069  0.7025 -0.1017
19056THY    HP357172   4.904   5.682   7.005  1.5924  1.2089 -0.2705
19056THY    HP457173   4.901   5.506   7.012  1.4212  0.4324 -0.0765
19056THY    CP357174   4.645   5.477   7.142 -0.0432 -0.1700  0.2038
19056THY    HP557175   4.689   5.379   7.121 -1.3169 -3.1052  0.1760
19056THY    HP657176   4.540   5.460   7.117  0.4788 -1.7574 -0.9329
19056THY    HP757177   4.655   5.505   7.248 -0.6466 -0.4864  1.7175
19056THY    CA357178   4.671   5.458   6.834 -0.6356 -0.2028  0.3387
19056THY    HA357179   4.717   5.370   6.880 -2.4846  0.7029 -0.2132
19056THY    CA457180   4.605   5.439   6.708 -0.3525 -0.5222  0.2027
19056THY    HA457181   4.597   5.343   6.657  0.9033  0.5933 -0.5286
19056THY    CA557182   4.542   5.545   6.649  0.0805  0.3648 -0.5799
19056THY    CM157183   4.474   5.532   6.514 -0.3696  0.0420 -1.3517
19056THY    HM157184   4.466   5.428   6.478  0.3075 -1.6725 -0.8401
19056THY    HM257185   4.538   5.589   6.445  0.3514  0.6476 -1.4072
19056THY    HM357186   4.372   5.572   6.512 -0.0488 -1.8906 -0.5306
19056THY    CA657187   4.554   5.673   6.701 -0.1015 -0.6774 -0.1988
19056THY    HA657188   4.498   5.756   6.660  0.2730  0.2771  0.5410
19057THY      O57189   9.000   3.474   4.221  0.4022 -0.5431 -0.3972
19057THY     HO57190   8.970   3.490   4.129  0.7219 -0.4343  0.9535
19057THY    CA157191   9.085   3.573   4.242  0.6216 -0.2910 -0.4224
19057THY    CA257192   9.187   3.576   4.344 -0.5364  0.4248  0.6851
19057THY    CP157193   9.217   3.444   4.429  0.3894  0.5448 -0.2816
19057THY    HP157194   9.129   3.379   4.421 -0.6986  2.9121  0.7876
19057THY    CP257195   9.238   3.478   4.569  0.0470  0.0361 -0.6140
19057THY    HP257196   9.157   3.542   4.604  1.2447  0.2310  0.8534
19057THY    HP357197   9.323   3.545   4.590 -1.3783  2.0734  0.6721
19057THY    HP457198   9.244   3.384   4.625  0.3874 -0.3211 -0.8093
19057THY    CP357199   9.338   3.370   4.375 -0.5501  0.5670  0.3197
19057THY    HP557200   9.340   3.271   4.422  1.0568 -1.4345 -0.6812
19057THY    HP657201   9.439   3.410   4.386  0.2803 -0.7888 -1.2770
19057THY    HP757202   9.320   3.336   4.272  1.4501  0.2034  0.2730
19057THY    CA357203   9.280   3.685   4.342 -0.7173 -0.6069 -0.1990
19057THY    HA357204   9.363   3.689   4.412 -2.2357  1.5787 -3.2416
19057THY    CA457205   9.266   3.790   4.247  0.1786 -0.0439  0.1379
19057THY    HA457206   9.338   3.871   4.243  0.6406 -1.3921 -0.3130
19057THY    CA557207   9.165   3.783   4.155  0.4518  0.0063  0.5366
19057THY    CM157208   9.135   3.895   4.062 -0.3148 -0.3715  0.1215
19057THY    HM157209   9.037   3.941   4.081  0.4752 -0.5102  1.9634
19057THY    HM257210   9.139   3.861   3.958 -0.1064 -0.0147 -0.9733
19057THY    HM357211   9.218   3.966   4.075 -0.3884 -2.9309  0.7778
19057THY    CA657212   9.083   3.676   4.148  0.1422 -0.3083 -0.2184
19057THY    HA657213   9.019   3.668   4.061  1.6803 -1.5067  0.0848
19058THY      O57214   7.563   0.473   7.346 -0.0486 -0.1667  0.0153
19058THY     HO57215   7.561   0.378   7.326  1.2390 -1.8820  0.3052
19058THY    CA157216   7.511   0.491   7.466  0.3028  0.4319 -0.0132
19058THY    CA257217   7.513   0.614   7.530 -0.4417  0.3041  0.5951
19058THY    CP157218   7.560   0.743   7.451 -0.4471 -0.1048  0.0917
19058THY    HP157219   7.592   0.723   7.348  1.7025  0.7730 -1.3549
19058THY    CP257220   7.685   0.814   7.520 -0.4858  0.0747  0.1366
19058THY    HP257221   7.654   0.869   7.609  2.1227  0.6247  0.8391
19058THY    HP357222   7.729   0.887   7.451 -0.6667  1.0480  1.1880
19058THY    HP457223   7.756   0.741   7.561 -0.9975  2.1514  0.7633
19058THY    CP357224   7.436   0.836   7.432  0.3692  0.1202  0.1469
19058THY    HP557225   7.469   0.907   7.355  1.1171 -1.7453 -2.0765
19058THY    HP657226   7.426   0.899   7.521  0.2966  0.5358 -0.4438
19058THY    HP757227   7.348   0.774   7.411  1.1554  1.2310 -1.4190
19058THY    CA357228   7.459   0.624   7.653 -0.8159  0.4217 -0.4249
19058THY    HA357229   7.461   0.721   7.703  0.0671  1.5826 -1.0093
19058THY    CA457230   7.438   0.513   7.727 -0.9189  0.0617 -0.4463
19058THY    HA457231   7.408   0.519   7.831  1.5904  0.7546  2.1237
19058THY    CA557232   7.438   0.387   7.668  0.4203 -0.4996  0.0819
19058THY    CM157233   7.394   0.262   7.743 -0.4896  0.6231 -0.1470
19058THY    HM157234   7.337   0.207   7.667  0.5503  0.9389 -1.7326
19058THY    HM257235   7.332   0.304   7.823  0.7071  0.2917  2.4238
19058THY    HM357236   7.485   0.211   7.778  1.4241  1.4219  3.4968
19058THY    CA657237   7.470   0.375   7.533  0.3817 -0.5462  0.1688
19058THY    HA657238   7.483   0.283   7.476  1.5541 -1.7772  1.0471
19059THY      O57239   3.783   4.407   2.559 -0.3771 -0.4691  0.6836
19059THY     HO57240   3.836   4.327   2.568 -0.1523  0.0500  0.8822
19059THY    CA157241   3.787   4.480   2.672 -0.1044  0.3066 -1.3783
19059THY    CA257242   3.693   4.577   2.704 -0.0062  0.4181 -0.3379
19059THY    CP157243   3.577   4.608   2.619  0.7680  0.4853  0.0264
19059THY    HP157244   3.585   4.543   2.531  1.0370 -0.8310  1.7893
19059THY    CP257245   3.575   4.759   2.559 -0.4744 -0.1346  0.1252
19059THY    HP257246   3.574   4.828   2.643 -0.2037  0.2496 -0.3344
19059THY    HP357247   3.481   4.783   2.507  0.3962 -2.2590 -0.8408
19059THY    HP457248   3.657   4.780   2.489  0.3448  0.3009 -1.4539
19059THY    CP357249   3.443   4.580   2.684  0.3127 -0.4810  0.5396
19059THY    HP557250   3.426   4.473   2.701 -0.9062 -3.0422  0.2665
19059THY    HP657251   3.363   4.597   2.612  1.5670 -1.9705  0.3507
19059THY    HP757252   3.427   4.633   2.779  0.3350 -0.1910  0.0419
19059THY    CA357253   3.718   4.661   2.809 -0.6273  0.0368 -0.0187
19059THY    HA357254   3.649   4.743   2.830 -0.8084 -0.0670 -0.1454
19059THY    CA457255   3.843   4.647   2.884  0.6127 -0.0472  0.0069
19059THY    HA457256   3.869   4.703   2.974  3.2927 -0.8357  0.1932
19059THY    CA557257   3.928   4.544   2.855 -0.4922 -0.0620  0.4679
19059THY    CM157258   4.041   4.512   2.938  0.3374  0.6301 -0.5679
19059THY    HM157259   4.122   4.491   2.868  0.3798  0.8697 -1.2328
19059THY    HM257260   4.018   4.442   3.019 -0.2451  1.0546  0.1032
19059THY    HM357261   4.068   4.597   3.002  1.7669  0.4647 -0.8733
19059THY    CA657262   3.897   4.465   2.750  1.0305  0.0091  0.7406
19059THY    HA657263   3.957   4.376   2.733  1.6268  2.3805  0.6193
19060THY      O57264   0.590   2.946   5.593 -0.0625 -0.2149  0.2237
19060THY     HO57265   0.581   3.016   5.659  1.0755  2.4106 -1.9380
19060THY    CA157266   0.679   2.857   5.641 -0.2863  0.2422  0.4665
19060THY    CA257267   0.727   2.744   5.563  0.6832  0.3070 -0.0066
19060THY    CP157268   0.679   2.734   5.420 -0.4659 -0.0589  0.3066
19060THY    HP157269   0.629   2.827   5.391  1.0411 -1.9892  0.5877
19060THY    CP257270   0.585   2.614   5.398  0.4366 -0.5091 -0.0798
19060THY    HP257271   0.518   2.599   5.483  1.8073  0.4236 -1.3123
19060THY    HP357272   0.640   2.518   5.396  0.6436 -0.6837  0.0410
19060THY    HP457273   0.519   2.643   5.316 -0.2303 -0.0006 -0.1527
19060THY    CP357274   0.801   2.722   5.322  0.1020  0.0575  0.3203
19060THY    HP557275   0.766   2.708   5.219  0.2479  0.1282 -0.6261
19060THY    HP657276   0.866   2.637   5.345  1.3605 -2.4590  0.5242
19060THY    HP757277   0.865   2.811   5.328  2.5957  0.2719 -1.4117
19060THY    CA357278   0.805   2.649   5.631  0.1841 -0.4241  0.0329
19060THY    HA357279   0.842   2.568   5.570  0.7738 -0.1041  0.0575
19060THY    CA457280   0.837   2.668   5.764  0.9456 -0.3788 -0.1814
19060THY    HA457281   0.904   2.599   5.816  0.6762 -0.5187 -0.5506
19060THY    CA557282   0.798   2.787   5.837  0.3935  0.0956 -0.9761
19060THY    CM157283   0.835   2.815   5.978  1.3586  0.5818 -0.1104
19060THY    HM157284   0.807   2.918   6.001  0.2898 -0.3122 -0.1751
19060THY    HM257285   0.939   2.790   6.003  0.6383  0.7421 -3.5020
19060THY    HM357286   0.769   2.769   6.053 -1.7154 -0.4198  2.3019
19060THY    CA657287   0.719   2.877   5.772  0.5665 -0.7128  0.3305
19060THY    HA657288   0.676   2.965   5.819  1.2475 -0.0772  0.3275
19061THY      O57289   7.124   7.462   4.535 -0.2221  0.4196  0.4354
19061THY     HO57290   7.177   7.486   4.612  0.6450 -0.0952  0.2289
19061THY    CA157291   7.004   7.473   4.588 -0.6806 -0.2022  0.4378
19061THY    CA257292   6.894   7.473   4.510 -0.1090 -0.3575 -0.0587
19061THY    CP157293   6.917   7.501   4.361  0.3777 -0.3086  0.4216
19061THY    HP157294   7.015   7.473   4.322 -0.1165 -2.2963  1.3126
19061THY    CP257295   6.905   7.645   4.334  0.2810 -0.3204  0.6065
19061THY    HP257296   6.951   7.668   4.237  1.8412  0.5221  1.1456
19061THY    HP357297   6.952   7.720   4.399 -0.4028  2.1729 -1.0307
19061THY    HP457298   6.803   7.684   4.324 -0.5910  0.9991 -1.2178
19061THY    CP357299   6.811   7.420   4.268 -0.2462 -0.0794  0.0957
19061THY    HP557300   6.708   7.440   4.300 -1.1613 -1.3092 -2.2987
19061THY    HP657301   6.818   7.311   4.270 -2.9801 -0.1177 -0.1518
19061THY    HP757302   6.817   7.450   4.163 -0.3680  0.6848  3.0899
19061THY    CA357303   6.767   7.464   4.565  0.4386  0.5031  0.2034
19061THY    HA357304   6.677   7.464   4.505  0.2528  0.7781 -0.0234
19061THY    CA457305   6.758   7.454   4.708  0.0941  0.3898 -0.3236
19061THY    HA457306   6.659   7.446   4.752 -0.7380 -1.2782  0.3505
19061THY    CA557307   6.871   7.473   4.785 -0.0744 -0.2588  0.0772
19061THY    CM157308   6.865   7.460   4.938 -0.2550  0.5745 -0.6243
19061THY    HM157309   6.803   7.380   4.981 -1.3963  0.3318  0.1099
19061THY    HM257310   6.841   7.555   4.985 -0.0366 -1.2095  0.3549
19061THY    HM357311   6.966   7.440   4.977  0.6361 -0.0459  2.2698
19061THY    CA657312   6.996   7.483   4.728  0.1973  0.4065 -0.2308
19061THY    HA657313   7.080   7.467   4.794  1.5774 -0.8669  1.2763
19062THY      O57314   7.892   3.748   5.337  0.0872  0.3306  0.4764
19062THY     HO57315   7.982   3.733   5.370  1.3688 -2.8736  0.3498
19062THY    CA157316   7.815   3.669   5.411 -0.0706  0.9346  0.0161
19062THY    CA257317   7.679   3.655   5.371 -0.1024  0.4613  0.0365
19062THY    CP157318   7.624   3.732   5.251 -0.3269  0.4600  0.1817
19062THY    HP157319   7.709   3.764   5.190 -0.0016  0.1923 -1.1381
19062THY    CP257320   7.527   3.848   5.289  0.1327  0.0918  0.5847
19062THY    HP257321   7.565   3.903   5.376 -0.7671  1.3237 -0.6697
19062THY    HP357322   7.432   3.809   5.328  1.7944  3.4250 -0.5656
19062THY    HP457323   7.502   3.915   5.206 -0.8361 -0.2423 -0.1670
19062THY    CP357324   7.557   3.637   5.145  0.1981  0.4774 -0.6680
19062THY    HP557325   7.635   3.573   5.103 -0.8109 -1.7637 -0.5158
19062THY    HP657326   7.516   3.697   5.064 -0.3884  3.2867  3.1262
19062THY    HP757327   7.480   3.571   5.186 -0.4585 -0.5403 -0.5433
19062THY    CA357328   7.596   3.579   5.453  0.1499 -0.0303  0.1550
19062THY    HA357329   7.489   3.570   5.436  0.1432  0.6252 -1.2793
19062THY    CA457330   7.649   3.532   5.571  0.1536 -0.1899  0.4697
19062THY    HA457331   7.589   3.465   5.632  1.1357  0.6866  0.3475
19062THY    CA557332   7.784   3.550   5.608 -0.3833 -0.2340 -0.2623
19062THY    CM157333   7.835   3.469   5.731  0.5468 -0.3207 -0.1579
19062THY    HM157334   7.864   3.366   5.708 -3.9214  3.4733 -2.6503
19062THY    HM257335   7.765   3.472   5.815 -0.4396 -1.0110 -2.1997
19062THY    HM357336   7.921   3.529   5.765 -0.2655 -0.5661  1.1908
19062THY    CA657337   7.867   3.621   5.532 -0.1035 -0.0734 -0.0071
19062THY    HA657338   7.973   3.633   5.555 -0.1173 -0.8812  2.2262
19063THY      O57339   9.153   7.789   7.392 -0.4367 -0.1988 -0.0105
19063THY     HO57340   9.181   7.728   7.462  0.2518 -1.1737 -0.8503
19063THY    CA157341   9.105   7.900   7.448  0.0369 -0.3301 -0.3685
19063THY    CA257342   8.997   7.962   7.385 -0.5276 -0.2774 -0.1133
19063THY    CP157343   8.927   7.882   7.268 -0.4048 -0.2429 -0.4476
19063THY    HP157344   8.967   7.780   7.260  0.1917  0.8572 -0.3162
19063THY    CP257345   8.948   7.956   7.137 -0.4766 -0.0179 -0.0049
19063THY    HP257346   9.056   7.970   7.119 -0.5728  0.9529  2.3430
19063THY    HP357347   8.898   8.053   7.140 -0.6274 -2.2149  0.0432
19063THY    HP457348   8.902   7.902   7.053 -0.9906 -1.1435  2.0670
19063THY    CP357349   8.778   7.856   7.286  0.0591 -0.2893  0.2064
19063THY    HP557350   8.738   7.832   7.187  0.1346 -0.5688  1.1789
19063THY    HP657351   8.715   7.940   7.317 -1.9454  0.0261 -1.3279
19063THY    HP757352   8.766   7.771   7.354 -1.1750 -1.4665 -0.6035
19063THY    CA357353   8.952   8.085   7.434  0.0974  0.0422 -0.9884
19063THY    HA357354   8.878   8.134   7.371 -0.9376  1.6716 -0.3860
19063THY    CA457355   9.005   8.146   7.550 -0.7870  0.5415  0.9265
19063THY    HA457356   8.960   8.239   7.582 -2.9972  1.6041 -0.4297
19063THY    CA557357   9.099   8.071   7.621 -0.0358  0.7463 -0.0671
19063THY    CM157358   9.160   8.123   7.749  0.0096  0.1017  0.2883
19063THY    HM157359   9.097   8.203   7.789 -1.5350  0.1461 -0.9139
19063THY    HM257360   9.256   8.174   7.731 -0.6798  0.8420  1.9018
19063THY    HM357361   9.151   8.047   7.827  0.0914 -0.1266  0.0411
19063THY    CA657362   9.157   7.955   7.565  0.6463 -0.2799  0.1528
19063THY    HA657363   9.246   7.911   7.609 -0.1317  2.7750  1.3816
19064THY      O57364   7.572   1.261   2.539  0.0232  0.1818 -0.0402
19064THY     HO57365   7.539   1.349   2.515  0.0902 -0.5554 -0.2134
19064THY    CA157366   7.702   1.256   2.505 -0.2601 -0.7440  0.4398
19064THY    CA257367   7.767   1.134   2.492 -0.4439 -0.3250  0.1754
19064THY    CP157368   7.696   0.999   2.508 -0.3123  0.2017 -0.6808
19064THY    HP157369   7.589   1.017   2.517 -0.1308  0.7531  0.1873
19064THY    CP257370   7.741   0.913   2.635 -0.0380 -0.5367 -0.1637
19064THY    HP257371   7.713   0.809   2.618  0.6679 -2.6261 -0.0738
19064THY    HP357372   7.706   0.961   2.727  0.7374 -0.4485  0.2464
19064THY    HP457373   7.849   0.898   2.638 -0.3288  0.5217 -2.4187
19064THY    CP357374   7.714   0.912   2.379  0.4750  0.4292  0.8829
19064THY    HP557375   7.794   0.839   2.392 -1.5524  1.4519 -1.3312
19064THY    HP657376   7.745   0.983   2.302  0.6065  1.8214  2.3959
19064THY    HP757377   7.616   0.867   2.358 -0.6399  2.3108  2.2848
19064THY    CA357378   7.909   1.137   2.462  0.1021  0.0877  0.0452
19064THY    HA357379   7.965   1.045   2.443  2.7847  1.5895  1.2571
19064THY    CA457380   7.977   1.254   2.457  0.9959  0.2642 -0.7487
19064THY    HA457381   8.080   1.257   2.421  0.4106 -1.6901 -1.8453
19064THY    CA557382   7.905   1.372   2.476  0.0662  1.2487 -0.3395
19064THY    CM157383   7.980   1.506   2.459  0.6929  0.1000 -0.0533
19064THY    HM157384   7.929   1.593   2.503  0.8781  0.5269 -0.1560
19064THY    HM257385   7.992   1.523   2.351 -3.0065 -0.1595  1.9624
19064THY    HM357386   8.084   1.508   2.496  0.4966  0.6465  0.1587
19064THY    CA657387   7.768   1.370   2.489  0.1501 -0.1319 -0.1168
19064THY    HA657388   7.729   1.471   2.494  1.7834 -2.8427  0.7385
19065THY      O57389   2.782   7.385   6.137  0.3387 -0.0658  0.5387
19065THY     HO57390   2.824   7.299   6.121 -1.2571  1.5620 -0.6101
19065THY    CA157391   2.715   7.441   6.036  0.4343  0.7950 -0.0820
19065THY    CA257392   2.618   7.543   6.049 -0.3869 -0.4565 -0.1711
19065THY    CP157393   2.594   7.588   6.194  0.4934  0.3025  0.2259
19065THY    HP157394   2.639   7.514   6.262  0.4389  0.7630  0.6159
19065THY    CP257395   2.446   7.603   6.232 -0.6544  0.5836 -0.1321
19065THY    HP257396   2.433   7.631   6.337  2.4631  1.1582 -0.4905
19065THY    HP357397   2.393   7.508   6.218 -1.0254 -0.8318  0.2599
19065THY    HP457398   2.394   7.668   6.161  0.3005  1.9677  2.2458
19065THY    CP357399   2.664   7.725   6.226 -0.0326  0.1086 -0.2249
19065THY    HP557400   2.628   7.787   6.143  0.1610 -0.7499 -1.2383
19065THY    HP657401   2.773   7.727   6.216  0.1546  1.7583  2.2006
19065THY    HP757402   2.637   7.763   6.326 -1.0377 -0.0432 -0.4977
19065THY    CA357403   2.546   7.597   5.941  0.3015 -0.5616 -0.6052
19065THY    HA357404   2.477   7.677   5.966  2.1401  2.2797  0.2453
19065THY    CA457405   2.571   7.542   5.814 -0.2069  0.3564 -0.6144
19065THY    HA457406   2.518   7.587   5.730 -2.6447  2.1940  0.1522
19065THY    CA557407   2.667   7.442   5.800 -0.0755  0.3857  0.3713
19065THY    CM157408   2.733   7.423   5.665 -0.3872  0.4812  0.4707
19065THY    HM157409   2.761   7.319   5.644  0.0050 -0.5304  0.7643
19065THY    HM257410   2.832   7.468   5.675  0.8607 -1.4459 -1.6015
19065THY    HM357411   2.668   7.452   5.582 -0.6854  0.7957  0.7034
19065THY    CA657412   2.732   7.383   5.911  0.0800  0.1452 -0.0428
19065THY    HA657413   2.808   7.309   5.891  0.4135 -1.5850  0.7370
19066THY      O57414   1.610   1.442   7.290  0.1400 -0.0737 -0.3334
19066THY     HO57415   1.684   1.481   7.242 -0.0280  2.1906  3.1968
19066THY    CA157416   1.594   1.519   7.401 -0.3653 -0.2889 -0.1148
19066THY    CA257417   1.466   1.516   7.459 -0.3787 -0.0450 -0.3143
19066THY    CP157418   1.348   1.434   7.409 -0.8119 -0.5402 -0.2056
19066THY    HP157419   1.381   1.372   7.325 -0.4139  1.2124 -2.5400
19066THY    CP257420   1.236   1.531   7.362 -0.4842 -0.0088  0.6048
19066THY    HP257421   1.278   1.606   7.293  1.3799 -0.9946 -1.2452
19066THY    HP357422   1.193   1.584   7.448 -0.6058  1.0218 -1.1237
19066THY    HP457423   1.157   1.473   7.313 -2.2151 -2.0676  4.2783
19066THY    CP357424   1.288   1.325   7.494 -0.3400  0.4918  0.5554
19066THY    HP557425   1.278   1.359   7.598  1.0728  0.3357  1.5153
19066THY    HP657426   1.363   1.245   7.497 -2.6319  1.5928 -1.7554
19066THY    HP757427   1.204   1.282   7.438  0.2391  1.0451 -1.4349
19066THY    CA357428   1.452   1.606   7.571 -0.9155  0.0524  0.1693
19066THY    HA357429   1.354   1.623   7.615 -0.6985  0.9579 -0.8235
19066THY    CA457430   1.554   1.686   7.623 -0.7152 -0.1691 -0.3318
19066THY    HA457431   1.525   1.759   7.697 -2.2023 -1.1945  0.1506
19066THY    CA557432   1.678   1.680   7.562 -0.3754  0.2995  0.2070
19066THY    CM157433   1.796   1.765   7.602  0.1859 -0.5383 -0.2478
19066THY    HM157434   1.807   1.849   7.533 -2.4535  0.2435  0.8481
19066THY    HM257435   1.891   1.709   7.603  0.3723  0.2535  0.0671
19066THY    HM357436   1.792   1.796   7.707 -0.0790 -0.0719 -1.7839
19066THY    CA657437   1.703   1.602   7.448 -0.5504 -0.3415  0.4220
19066THY    HA657438   1.799   1.607   7.398  1.0557  2.4905  0.0969
19067THY      O57439   4.035   2.810   4.958 -0.4093  0.1539  0.0666
19067THY     HO57440   4.045   2.864   5.038  2.1120 -0.5599  0.8094
19067THY    CA157441   4.056   2.884   4.842  0.1257 -0.7213 -0.4257
19067THY    CA257442   4.128   2.828   4.736 -0.1261  0.4517 -0.5502
19067THY    CP157443   4.204   2.691   4.753 -0.4112 -0.5017 -0.1705
19067THY    HP157444   4.142   2.627   4.817 -0.1335 -1.5942 -1.5618
19067THY    CP257445   4.346   2.726   4.802  0.2315  0.7885 -0.1186
19067THY    HP257446   4.402   2.778   4.724 -2.8964 -0.6409  1.3734
19067THY    HP357447   4.401   2.634   4.824 -0.5170  0.1100 -0.7423
19067THY    HP457448   4.344   2.786   4.894 -0.5732  0.1199  0.9074
19067THY    CP357449   4.229   2.621   4.621  0.6591 -0.7784  0.0123
19067THY    HP557450   4.265   2.518   4.636  2.3283  0.1345  0.7026
19067THY    HP657451   4.301   2.678   4.562 -0.9167 -2.3606  0.4893
19067THY    HP757452   4.139   2.630   4.558  1.6678 -2.2540  0.1955
19067THY    CA357453   4.161   2.913   4.624  0.2319 -0.1643  0.4237
19067THY    HA357454   4.235   2.889   4.547  0.0043 -0.3954  0.4633
19067THY    CA457455   4.091   3.032   4.618  0.2190 -0.3003 -0.3343
19067THY    HA457456   4.094   3.093   4.527  0.2802 -0.7561 -1.0043
19067THY    CA557457   4.019   3.085   4.729 -0.0635  0.1502 -0.4432
19067THY    CM157458   3.944   3.212   4.724 -0.2739 -0.2961 -0.0162
19067THY    HM157459   3.845   3.189   4.683 -0.3601  0.3650 -0.8834
19067THY    HM257460   4.000   3.294   4.677  1.2892  1.1441 -0.1874
19067THY    HM357461   3.926   3.256   4.823  2.0536  0.3011 -0.2958
19067THY    CA657462   4.013   3.017   4.845  0.0401 -0.4261  0.0972
19067THY    HA657463   3.968   3.063   4.933 -0.3307 -0.0740 -0.9043
19068THY      O57464   2.716   4.895   7.454 -0.6350  0.5323 -0.3238
19068THY     HO57465   2.809   4.866   7.452 -0.6995  0.0549 -0.5144
19068THY    CA157466   2.695   4.954   7.331  0.5854 -0.3872 -0.2976
19068THY    CA257467   2.564   4.961   7.280 -0.5484  0.8846 -0.0963
19068THY    CP157468   2.445   4.892   7.352 -0.3657  0.0716 -0.3473
19068THY    HP157469   2.474   4.848   7.449 -0.7163  0.0202 -0.6943
19068THY    CP257470   2.391   4.773   7.267 -0.0110 -1.3019 -0.4645
19068THY    HP257471   2.471   4.699   7.265 -1.2486 -2.1097 -1.8368
19068THY    HP357472   2.375   4.803   7.163 -1.0311 -1.5473 -1.7903
19068THY    HP457473   2.295   4.731   7.301 -0.2623 -0.9456  0.3815
19068THY    CP357474   2.332   4.998   7.373 -0.2897 -0.0502 -0.2937
19068THY    HP557475   2.258   4.968   7.448 -2.3331 -0.7053  2.7103
19068THY    HP657476   2.274   5.022   7.283 -0.5549  0.2201  0.0921
19068THY    HP757477   2.386   5.085   7.411 -0.2874  0.5904 -0.5671
19068THY    CA357478   2.551   5.025   7.155  0.1905 -0.1991 -0.0937
19068THY    HA357479   2.453   5.038   7.110 -0.2122  1.0981  1.8239
19068THY    CA457480   2.654   5.082   7.088 -0.3206  0.5174 -0.7909
19068THY    HA457481   2.646   5.138   6.995 -1.0839  0.7703 -0.4680
19068THY    CA557482   2.778   5.076   7.146 -0.5308  0.0517 -0.0573
19068THY    CM157483   2.887   5.136   7.074  0.0124 -0.1737  0.0001
19068THY    HM157484   2.955   5.177   7.150  0.5368  0.4420 -1.8654
19068THY    HM257485   2.840   5.219   7.020  0.8732 -2.2879 -0.8070
19068THY    HM357486   2.942   5.075   7.001  0.5344 -0.3799  0.6973
19068THY    CA657487   2.802   5.011   7.272  0.0705  0.0197  0.6821
19068THY    HA657488   2.900   5.012   7.318 -0.3343  0.9189  1.6133
19069THY      O57489   9.068   1.294   6.797 -0.0567  0.0343  0.6454
19069THY     HO57490   9.136   1.239   6.756 -0.3565  2.0161 -1.3259
19069THY    CA157491   8.951   1.222   6.781  0.2219  0.4805 -0.2404
19069THY    CA257492   8.938   1.094   6.836  0.5242 -0.6087  0.6393
19069THY    CP157493   9.031   1.046   6.943  0.2524 -0.3134 -0.4328
19069THY    HP157494   9.117   1.114   6.945  1.0721 -1.0538 -1.4167
19069THY    CP257495   9.083   0.909   6.903  0.0191  0.0688  0.4188
19069THY    HP257496   9.001   0.839   6.920 -0.9487 -1.1996  1.1991
19069THY    HP357497   9.161   0.891   6.978 -1.3327  1.5899  0.5792
19069THY    HP457498   9.105   0.906   6.796  0.8564  0.2502 -0.4542
19069THY    CP357499   8.965   1.057   7.084  0.7405  0.5253  0.3389
19069THY    HP557500   8.937   1.161   7.103 -2.8664 -1.1603 -0.1870
19069THY    HP657501   9.032   1.027   7.165 -0.2521  1.6858  1.1400
19069THY    HP757502   8.889   0.983   7.109 -1.1363 -1.0999  1.6076
19069THY    CA357503   8.829   1.010   6.801  0.4277 -0.5205 -0.0706
19069THY    HA357504   8.803   0.917   6.852 -0.3612 -1.1533 -0.2071
19069THY    CA457505   8.738   1.064   6.704 -0.5067 -0.0937  0.2412
19069THY    HA457506   8.656   0.996   6.687 -0.5722  2.0406 -0.3015
19069THY    CA557507   8.756   1.184   6.646 -0.0029 -0.7025 -0.4333
19069THY    CM157508   8.683   1.228   6.526  0.1304 -0.3935  0.3804
19069THY    HM157509   8.587   1.174   6.519  0.1777 -1.9886  0.4669
19069THY    HM257510   8.736   1.192   6.438  0.0642 -0.3931  0.2797
19069THY    HM357511   8.682   1.337   6.533 -1.7472  0.0473  0.3742
19069THY    CA657512   8.860   1.263   6.685 -0.6924  0.6071 -0.4410
19069THY    HA657513   8.874   1.354   6.627  0.9083 -1.4886 -1.9403
19070THY      O57514   3.644   7.011   3.168  0.1666  0.4434  0.1867
19070THY     HO57515   3.713   6.979   3.108  0.0746 -0.5194  1.6951
19070THY    CA157516   3.577   7.092   3.084 -0.3233  0.2953 -0.2968
19070THY    CA257517   3.445   7.137   3.110 -0.1591  0.5096  0.5169
19070THY    CP157518   3.368   7.091   3.235  0.5380 -0.7763  0.1194
19070THY    HP157519   3.422   7.023   3.303  1.4617 -0.0358  1.5373
19070THY    CP257520   3.245   7.005   3.195 -0.3297  0.1049  0.2177
19070THY    HP257521   3.182   7.074   3.138  0.9328  1.4454  2.6168
19070THY    HP357522   3.187   6.971   3.281  0.5810 -0.1511 -2.1469
19070THY    HP457523   3.267   6.915   3.136 -2.0846 -0.2777  0.0097
19070THY    CP357524   3.330   7.220   3.313  1.0734 -0.2498 -0.6882
19070THY    HP557525   3.266   7.286   3.255  0.6466  2.7121  1.7394
19070THY    HP657526   3.427   7.272   3.318 -0.7958 -1.4356  3.2676
19070THY    HP757527   3.287   7.201   3.412 -1.5174 -0.8520  1.4432
19070THY    CA357528   3.376   7.216   3.016 -1.0966 -0.3096 -0.0378
19070THY    HA357529   3.274   7.243   3.038 -0.6510  1.4875  0.3174
19070THY    CA457530   3.442   7.263   2.905  0.1445 -0.1790  0.0165
19070THY    HA457531   3.400   7.334   2.834 -0.7596 -0.9605 -1.2579
19070THY    CA557532   3.575   7.221   2.883  0.4777  0.0800 -1.3009
19070THY    CM157533   3.648   7.273   2.761 -0.0288 -0.3572  0.1908
19070THY    HM157534   3.577   7.268   2.678 -2.0100  1.3102 -0.9519
19070THY    HM257535   3.731   7.204   2.743  0.3976  0.5947  0.4256
19070THY    HM357536   3.681   7.377   2.775  0.9227  2.0674 -0.3648
19070THY    CA657537   3.638   7.137   2.968 -0.3762 -1.0643  0.2436
19070THY    HA657538   3.738   7.101   2.944  0.6485  0.2605  1.9960
19071THY      O57539   8.942   7.078   6.277  0.1613  0.3891  0.3973
19071THY     HO57540   9.021   7.048   6.228 -0.5532 -1.3738  1.2189
19071THY    CA157541   8.952   7.001   6.380  0.5389 -0.1895 -0.3687
19071THY    CA257542   8.865   7.006   6.487  1.1872  0.1097  0.4899
19071THY    CP157543   8.736   7.083   6.476  0.3572 -0.0323  0.0480
19071THY    HP157544   8.736   7.156   6.395 -0.4825  0.7366  0.9237
19071THY    CP257545   8.716   7.178   6.592 -0.4051 -0.3688  0.3667
19071THY    HP257546   8.639   7.253   6.572  0.3339  0.7918  1.4794
19071THY    HP357547   8.804   7.230   6.632 -1.5213  1.9290  0.6585
19071THY    HP457548   8.681   7.121   6.679  0.9170 -0.9079 -1.3488
19071THY    CP357549   8.612   6.992   6.461  0.5296 -0.0288  0.2321
19071THY    HP557550   8.608   6.917   6.541 -0.4152 -0.3821 -0.1080
19071THY    HP657551   8.605   6.942   6.364  3.0115 -1.7706  2.9528
19071THY    HP757552   8.526   7.061   6.466  1.1180 -1.0759  1.0744
19071THY    CA357553   8.884   6.914   6.595  0.0284  0.4407 -0.0278
19071THY    HA357554   8.807   6.895   6.669  0.4669  0.2854 -2.9707
19071THY    CA457555   9.000   6.840   6.599  1.0527 -0.1589 -0.7975
19071THY    HA457556   9.014   6.778   6.687  1.8238 -0.2075 -0.6985
19071THY    CA557557   9.088   6.840   6.494 -0.0822 -1.1672  0.5117
19071THY    CM157558   9.204   6.748   6.508 -0.4074 -0.4892  0.2717
19071THY    HM157559   9.233   6.699   6.414 -0.0971 -0.4963  0.4665
19071THY    HM257560   9.172   6.667   6.574  1.1852  0.6572  0.5256
19071THY    HM357561   9.294   6.792   6.553  0.1802 -1.2396 -0.1436
19071THY    CA657562   9.059   6.909   6.382  1.0166  0.9550 -0.1604
19071THY    HA657563   9.122   6.898   6.294  1.1773  1.0397  0.0628
19072THY      O57564   7.664   3.463   2.198 -0.2297 -0.1684  0.0800
19072THY     HO57565   7.632   3.481   2.288 -1.0186 -0.0125 -1.7651
19072THY    CA157566   7.790   3.433   2.178 -0.9977 -0.0900 -0.1724
19072THY    CA257567   7.854   3.406   2.045  0.7267 -0.5136  0.5406
19072THY    CP157568   7.754   3.380   1.924 -0.7384 -0.0821  0.2119
19072THY    HP157569   7.681   3.460   1.942 -0.9346  0.8127 -0.1590
19072THY    CP257570   7.668   3.255   1.938  0.1028  0.2399  0.3398
19072THY    HP257571   7.616   3.253   2.035 -1.5365 -0.6174 -0.0450
19072THY    HP357572   7.723   3.162   1.922  0.6397  1.6164  0.3900
19072THY    HP457573   7.587   3.258   1.864 -1.2874  1.7055  0.6875
19072THY    CP357574   7.804   3.394   1.776  0.5829 -0.8698  0.2621
19072THY    HP557575   7.719   3.375   1.710 -0.1891 -0.6524  2.6073
19072THY    HP657576   7.890   3.327   1.761  0.1114  0.9117 -0.8025
19072THY    HP757577   7.827   3.500   1.760  1.1329  0.8169  0.4272
19072THY    CA357578   7.991   3.413   2.025 -0.8355  0.0252 -0.6931
19072THY    HA357579   8.036   3.405   1.927 -1.1858 -0.1510 -0.5259
19072THY    CA457580   8.070   3.441   2.137 -0.3745 -0.1095  1.1445
19072THY    HA457581   8.177   3.442   2.118 -0.0656  0.6228 -2.8644
19072THY    CA557582   8.016   3.455   2.261 -0.0997 -0.3942  0.2742
19072THY    CM157583   8.101   3.489   2.376  0.1461 -0.2503  0.0374
19072THY    HM157584   8.182   3.416   2.388  0.0565  1.6016  0.1855
19072THY    HM257585   8.057   3.484   2.476  2.6122  0.9306 -0.0233
19072THY    HM357586   8.140   3.591   2.373 -0.3682  0.8592  0.2740
19072THY    CA657587   7.877   3.450   2.283 -1.5972 -0.0746  0.0416
19072THY    HA657588   7.840   3.466   2.384  1.7524  1.5450 -1.3352
19073THY      O57589   5.107   3.800   4.058  0.1191  0.0318  0.6751
19073THY     HO57590   5.117   3.871   4.123 -0.0427 -0.1696  0.8805
19073THY    CA157591   4.975   3.787   4.041 -0.1032 -0.3706  0.2631
19073THY    CA257592   4.914   3.781   3.911  0.3407  0.1766  0.1049
19073THY    CP157593   4.992   3.758   3.777  0.2551  0.8092  0.0795
19073THY    HP157594   5.093   3.791   3.803  1.6266 -2.3954 -1.2229
19073THY    CP257595   4.931   3.855   3.677  0.9290  0.0785  0.2884
19073THY    HP257596   4.903   3.953   3.719  2.0060  0.3672  0.4886
19073THY    HP357597   4.839   3.805   3.648  1.4299  0.0736 -0.6525
19073THY    HP457598   5.000   3.865   3.592  0.9208 -0.1081 -1.0873
19073THY    CP357599   4.989   3.616   3.729  0.3081  0.3419  0.6634
19073THY    HP557600   5.034   3.552   3.805  1.3442  1.5733  2.7361
19073THY    HP657601   5.046   3.602   3.636  0.5838  0.2300  2.3209
19073THY    HP757602   4.885   3.583   3.717  0.7831 -0.9572 -0.4641
19073THY    CA357603   4.767   3.773   3.913  0.3496  0.4034  0.4039
19073THY    HA357604   4.724   3.762   3.814 -0.0512  0.4875  1.1466
19073THY    CA457605   4.690   3.763   4.033 -0.5642 -0.2149 -0.0254
19073THY    HA457606   4.582   3.771   4.019 -0.6352  1.1627  1.9068
19073THY    CA557607   4.759   3.766   4.157 -0.8524 -0.0816  0.5183
19073THY    CM157608   4.675   3.742   4.279  0.6319  0.1663 -0.1505
19073THY    HM157609   4.629   3.826   4.332 -2.1684  2.9851 -3.1349
19073THY    HM257610   4.740   3.687   4.348 -0.3318  0.5256 -0.8700
19073THY    HM357611   4.593   3.674   4.251  0.3175  0.6974  0.0051
19073THY    CA657612   4.902   3.778   4.163 -0.0003  0.5174  0.6933
19073THY    HA657613   4.945   3.795   4.261  0.5325  0.1037  1.8180
19074THY      O57614   0.900   4.184   5.441  0.0609  0.0956 -0.2388
19074THY     HO57615   0.916   4.091   5.416  0.5542 -0.0308 -0.1254
19074THY    CA157616   0.849   4.173   5.564  0.3753  0.4056  0.1433
19074THY    CA257617   0.816   4.287   5.640 -0.2118  0.0900 -0.2556
19074THY    CP157618   0.833   4.435   5.590  0.7335  0.4543  0.2935
19074THY    HP157619   0.910   4.426   5.513  1.6972  1.3863  0.3305
19074THY    CP257620   0.874   4.534   5.689 -0.6913 -0.0119 -0.0998
19074THY    HP257621   0.915   4.625   5.646 -1.2462  2.4591  1.4122
19074THY    HP357622   0.957   4.492   5.747  0.9651 -2.3120 -0.1124
19074THY    HP457623   0.786   4.564   5.749 -0.1170  0.4859  0.6238
19074THY    CP357624   0.696   4.482   5.540 -0.8507  0.3128  0.6045
19074THY    HP557625   0.667   4.411   5.462  1.2078  0.0641 -0.0257
19074THY    HP657626   0.706   4.582   5.494 -2.0137 -0.1787  0.5154
19074THY    HP757627   0.618   4.482   5.617 -0.2451  0.9320  1.2030
19074THY    CA357628   0.758   4.265   5.773  0.6934  0.4168 -0.3325
19074THY    HA357629   0.724   4.356   5.820 -1.1850  0.0899 -0.8226
19074THY    CA457630   0.728   4.133   5.818  0.4007  0.7345  0.1618
19074THY    HA457631   0.671   4.120   5.909 -3.6460 -1.4245  1.2927
19074THY    CA557632   0.760   4.021   5.739  0.9752 -0.2512 -0.3744
19074THY    CM157633   0.722   3.881   5.788  0.3333 -0.1103  0.1913
19074THY    HM157634   0.810   3.818   5.771  0.2824  1.6146 -0.4074
19074THY    HM257635   0.635   3.829   5.748  0.8677  0.2044 -0.9908
19074THY    HM357636   0.706   3.885   5.897  2.3191  0.2655 -0.5326
19074THY    CA657637   0.814   4.047   5.613 -0.1695  0.7052  0.1338
19074THY    HA657638   0.827   3.960   5.549 -3.2484 -0.0768  0.1411
19075THY      O57639   6.092   2.237   4.000  0.4735  0.1051  0.8141
19075THY     HO57640   6.106   2.145   4.029 -0.6844 -1.5512  0.0705
19075THY    CA157641   6.211   2.284   3.958 -0.3495 -0.1270 -0.1080
19075THY    CA257642   6.249   2.419   3.966  0.9639  0.2408  1.2500
19075THY    CP157643   6.140   2.515   4.000 -0.1565 -0.6873 -0.3928
19075THY    HP157644   6.040   2.470   3.999 -0.9024  0.7904  1.1126
19075THY    CP257645   6.138   2.630   3.896 -1.2036  0.5976 -0.6708
19075THY    HP257646   6.084   2.720   3.929  0.8044  1.3690  0.3119
19075THY    HP357647   6.086   2.594   3.807 -2.0137  0.9991 -0.5101
19075THY    HP457648   6.240   2.670   3.885 -1.9290  2.1759  1.9097
19075THY    CP357649   6.166   2.569   4.146  0.2264 -0.7333  0.4295
19075THY    HP557650   6.137   2.494   4.221  1.5284 -0.5432  0.0866
19075THY    HP657651   6.110   2.661   4.163 -0.2484  0.5034 -0.0666
19075THY    HP757652   6.274   2.581   4.162  0.0228  0.6424  0.5757
19075THY    CA357653   6.381   2.449   3.924 -0.4298  0.1177 -0.8799
19075THY    HA357654   6.408   2.554   3.921 -0.5273  2.9604 -0.6985
19075THY    CA457655   6.468   2.355   3.877 -0.0939 -0.6130 -0.5052
19075THY    HA457656   6.567   2.382   3.842 -0.5894 -0.2962  1.9433
19075THY    CA557657   6.425   2.224   3.869 -0.4637 -0.7517  0.5291
19075THY    CM157658   6.506   2.113   3.807 -0.0821  0.1293  0.5695
19075THY    HM157659   6.506   2.030   3.878  0.5083  0.0618  0.5055
19075THY    HM257660   6.612   2.129   3.782 -0.2893 -0.7638  0.6144
19075THY    HM357661   6.452   2.072   3.721  1.2933 -0.1615 -0.7196
19075THY    CA657662   6.296   2.195   3.908  0.0135 -0.0490 -0.9536
19075THY    HA657663   6.261   2.092   3.901  0.3601 -2.9110 -0.9623
19076THY      O57664   7.670   8.419   2.762 -0.1251 -0.0989 -0.3124
19076THY     HO57665   7.616   8.369   2.825 -0.8344  0.3499  0.9779
19076THY    CA157666   7.755   8.326   2.714  0.9266 -0.2926 -0.3776
19076THY    CA257667   7.876   8.357   2.656  0.0102 -0.6633  0.2533
19076THY    CP157668   7.900   8.503   2.611 -0.3970  0.6448  0.2808
19076THY    HP157669   7.827   8.577   2.643  1.1364 -0.2084  2.2704
19076THY    CP257670   7.896   8.514   2.456 -0.8957  0.4075  0.0490
19076THY    HP257671   7.805   8.471   2.413 -0.3000 -0.5861 -0.2586
19076THY    HP357672   7.980   8.467   2.403 -1.4999 -1.3847  0.9307
19076THY    HP457673   7.908   8.619   2.427 -1.4332  1.3402  0.3777
19076THY    CP357674   8.032   8.567   2.656  0.1561 -0.5715  0.2600
19076THY    HP557675   8.024   8.582   2.764 -0.3706 -0.5675 -0.0075
19076THY    HP657676   8.045   8.667   2.615  0.3034  1.0215  0.9262
19076THY    HP757677   8.125   8.512   2.640 -0.7719  0.2477 -1.6560
19076THY    CA357678   7.976   8.257   2.632 -0.0303 -0.1200 -0.3233
19076THY    HA357679   8.071   8.273   2.582 -0.7551 -1.2582  0.6230
19076THY    CA457680   7.936   8.122   2.653  0.0192  0.1090 -0.0964
19076THY    HA457681   8.000   8.038   2.624  2.5673  3.6012  0.4184
19076THY    CA557682   7.812   8.086   2.712  0.1390 -0.0428 -0.2797
19076THY    CM157683   7.758   7.949   2.723 -0.5950 -0.6563  0.0813
19076THY    HM157684   7.710   7.917   2.630  0.3871 -1.2717  0.3690
19076THY    HM257685   7.695   7.949   2.813 -0.1389 -0.2610  2.4829
19076THY    HM357686   7.845   7.884   2.735 -0.3147  0.4245  0.6263
19076THY    CA657687   7.727   8.197   2.749  0.1595 -0.5734  0.6285
19076THY    HA657688   7.629   8.175   2.791 -0.5092 -2.1577  0.4256
19077THY      O57689   7.155   1.486   5.664 -0.1527 -0.2656 -0.1419
19077THY     HO57690   7.168   1.461   5.757 -0.8994  0.1649  0.9891
19077THY    CA157691   7.232   1.595   5.629 -0.1236  0.4713 -0.5896
19077THY    CA257692   7.267   1.629   5.495 -0.2416  0.1389 -0.1047
19077THY    CP157693   7.202   1.538   5.386  0.1944 -0.3446  0.0407
19077THY    HP157694   7.117   1.487   5.434  0.0116  2.4577  2.7040
19077THY    CP257695   7.309   1.443   5.330 -0.0990 -0.0086 -0.0849
19077THY    HP257696   7.275   1.374   5.253  0.1233  1.7191 -2.2372
19077THY    HP357697   7.360   1.384   5.407  0.9730  0.8419  1.8658
19077THY    HP457698   7.394   1.501   5.291 -1.6760 -2.2650  0.8575
19077THY    CP357699   7.140   1.612   5.265  0.3994 -0.0047 -0.0778
19077THY    HP557700   7.032   1.605   5.248  0.6240 -2.5139  1.0956
19077THY    HP657701   7.190   1.572   5.176  0.6871  0.6659 -1.2391
19077THY    HP757702   7.172   1.717   5.267  1.9650 -2.4847 -0.4115
19077THY    CA357703   7.356   1.737   5.469 -0.6397  0.0324 -0.0979
19077THY    HA357704   7.387   1.759   5.367  0.3350  0.3937  0.2341
19077THY    CA457705   7.418   1.800   5.573 -0.1968 -0.0156 -0.5267
19077THY    HA457706   7.473   1.890   5.546  1.4810  0.4023 -1.3756
19077THY    CA557707   7.378   1.775   5.703  0.6362  0.5971  0.3281
19077THY    CM157708   7.418   1.866   5.812  0.0329  0.1177  0.5856
19077THY    HM157709   7.381   1.969   5.802 -0.2387  1.2573  0.6025
19077THY    HM257710   7.527   1.878   5.822  0.0633  1.4588 -0.5873
19077THY    HM357711   7.380   1.838   5.910 -3.7225 -1.4377 -0.3801
19077THY    CA657712   7.284   1.678   5.733  0.6466  0.1742 -0.2544
19077THY    HA657713   7.272   1.653   5.838 -0.3795  0.3358  0.8621
19078THY      O57714   7.688   8.604   1.668  0.1832  0.2065  0.9986
19078THY     HO57715   7.767   8.551   1.688  1.0489  0.3930  2.3395
19078THY    CA157716   7.678   8.701   1.764 -0.4138  0.3663 -0.3202
19078THY    CA257717   7.578   8.799   1.762  0.5821 -0.1655 -0.4466
19078THY    CP157718   7.459   8.812   1.657 -0.4309 -0.6928  1.2022
19078THY    HP157719   7.478   8.730   1.586 -2.5367  0.5830 -0.5253
19078THY    CP257720   7.443   8.943   1.583  0.5957  0.1941  0.1887
19078THY    HP257721   7.395   9.020   1.645  0.0328  1.3707 -1.0619
19078THY    HP357722   7.378   8.929   1.496 -0.3761  0.8427  0.4978
19078THY    HP457723   7.539   8.982   1.549  0.2543  0.1331  0.9977
19078THY    CP357724   7.335   8.770   1.732  0.6650 -0.7596  0.1683
19078THY    HP557725   7.346   8.673   1.783  0.5244 -0.8123  0.1226
19078THY    HP657726   7.248   8.744   1.670 -0.4697  1.6325 -2.3193
19078THY    HP757727   7.300   8.840   1.809  0.4047 -1.3315  0.6687
19078THY    CA357728   7.575   8.894   1.869  0.0441 -0.7141  0.6031
19078THY    HA357729   7.501   8.974   1.881 -0.7153  1.7325 -0.3716
19078THY    CA457730   7.670   8.896   1.972  0.7002 -0.9021  0.9443
19078THY    HA457731   7.670   8.973   2.049  0.3445 -2.5264  2.6526
19078THY    CA557732   7.768   8.802   1.962 -0.6201  0.3453  0.0538
19078THY    CM157733   7.874   8.815   2.063 -0.7542  0.4591  0.6346
19078THY    HM157734   7.911   8.715   2.085 -1.1961  1.8481  0.7536
19078THY    HM257735   7.833   8.846   2.160  1.2911  2.2582 -1.8749
19078THY    HM357736   7.960   8.871   2.025 -1.4776 -0.3645  1.2149
19078THY    CA657737   7.769   8.699   1.860 -0.5396  0.2743 -1.7315
19078THY    HA657738   7.862   8.642   1.867 -1.3651  0.6516 -3.0787
19079THY      O57739   8.805   3.815   2.413 -1.0739  0.4635  0.2852
19079THY     HO57740   8.892   3.857   2.420 -0.1746  0.6280 -1.4916
19079THY    CA157741   8.820   3.691   2.457 -0.7770 -0.2393  0.1136
19079THY    CA257742   8.713   3.608   2.487 -0.2218  0.0415  0.0817
19079THY    CP157743   8.572   3.646   2.453  0.4227  0.5404 -0.2598
19079THY    HP157744   8.569   3.731   2.383 -2.9960  0.2918 -0.4657
19079THY    CP257745   8.485   3.666   2.575  0.0706 -0.1048 -0.0740
19079THY    HP257746   8.508   3.748   2.645  0.1253 -0.6207  0.3597
19079THY    HP357747   8.467   3.573   2.629 -0.3866  2.7522  1.5770
19079THY    HP457748   8.391   3.686   2.523  0.7892 -1.2717  0.4314
19079THY    CP357749   8.503   3.538   2.373 -0.4345 -0.5461 -0.1742
19079THY    HP557750   8.574   3.504   2.296 -0.1016 -0.8393  1.1159
19079THY    HP657751   8.424   3.593   2.321  0.5976  1.7017  3.8915
19079THY    HP757752   8.463   3.458   2.435 -0.0208  0.4694  0.3897
19079THY    CA357753   8.740   3.485   2.549 -0.0350 -0.0736  0.3329
19079THY    HA357754   8.656   3.420   2.571 -0.5850  0.6213  1.2514
19079THY    CA457755   8.877   3.440   2.575 -0.2401  0.0316 -0.0059
19079THY    HA457756   8.899   3.349   2.631 -1.3395 -1.5512 -1.2998
19079THY    CA557757   8.980   3.535   2.542 -0.6556 -0.1435 -0.0241
19079THY    CM157758   9.122   3.502   2.591 -0.6397  0.1391  0.4772
19079THY    HM157759   9.201   3.571   2.560 -2.8968 -1.7445  2.3783
19079THY    HM257760   9.149   3.396   2.577 -2.1991 -0.3535  0.1114
19079THY    HM357761   9.103   3.525   2.696 -0.5732  0.1996  0.2615
19079THY    CA657762   8.951   3.654   2.479  0.1932 -0.1448 -0.2044
19079THY    HA657763   9.033   3.724   2.464 -0.8728  0.0723  1.1417
19080THY      O57764   5.361   1.082   7.232  0.0047  0.2351  0.0884
19080THY     HO57765   5.350   1.170   7.272  0.8880  0.6101  0.0319
19080THY    CA157766   5.406   1.082   7.104 -0.7236  0.0570 -0.1945
19080THY    CA257767   5.424   0.963   7.029 -0.4152 -0.4032 -0.0851
19080THY    CP157768   5.395   0.824   7.094 -0.1990 -0.1854 -0.3476
19080THY    HP157769   5.419   0.818   7.201 -0.8771  0.2248  2.7426
19080THY    CP257770   5.455   0.699   7.022 -0.0672 -0.4073 -0.7800
19080THY    HP257771   5.454   0.611   7.087  0.2924  2.3581  1.1125
19080THY    HP357772   5.557   0.728   6.994 -0.5035 -2.0114 -0.7294
19080THY    HP457773   5.410   0.689   6.923  1.9697 -1.2716 -1.9194
19080THY    CP357774   5.244   0.802   7.083 -0.7460  0.3147  0.1126
19080THY    HP557775   5.199   0.889   7.134 -0.7259 -0.3164  0.4955
19080THY    HP657776   5.210   0.708   7.129 -0.6784 -0.0281 -0.0821
19080THY    HP757777   5.217   0.788   6.978 -1.2774  0.6947 -2.2028
19080THY    CA357778   5.467   0.972   6.900  0.0523  0.7955 -0.8229
19080THY    HA357779   5.491   0.888   6.837 -0.3287 -1.1338  0.4571
19080THY    CA457780   5.470   1.097   6.838  0.4492 -0.7326 -1.0271
19080THY    HA457781   5.486   1.105   6.731 -0.4407 -0.7756  0.6756
19080THY    CA557782   5.451   1.218   6.909  0.0164 -0.4709 -0.0093
19080THY    CM157783   5.473   1.355   6.848  0.5807  0.4302  0.1209
19080THY    HM157784   5.375   1.397   6.823  1.9905 -2.2133  2.1031
19080THY    HM257785   5.523   1.347   6.751 -0.9156 -0.3692 -0.0288
19080THY    HM357786   5.521   1.429   6.913  0.4676  0.4713  0.1596
19080THY    CA657787   5.426   1.204   7.041 -0.2669 -0.2625 -0.6434
19080THY    HA657788   5.422   1.297   7.097  2.9605  1.6327 -1.5032
19081THY      O57789   8.709   2.139   4.223  0.1068 -0.0180  0.0414
19081THY     HO57790   8.648   2.063   4.225  0.0345  2.2593  0.0749
19081THY    CA157791   8.629   2.223   4.165  1.0019  0.3527  0.4608
19081THY    CA257792   8.654   2.359   4.147 -0.1205 -0.1329 -0.5706
19081THY    CP157793   8.788   2.423   4.204 -0.3839  0.2557 -0.0709
19081THY    HP157794   8.848   2.352   4.264  3.1524  0.5633  2.8611
19081THY    CP257795   8.753   2.527   4.305  0.4681 -0.1415 -0.3239
19081THY    HP257796   8.681   2.484   4.375  0.7828  0.7801  0.5988
19081THY    HP357797   8.720   2.624   4.265  1.1290  1.8006  0.7613
19081THY    HP457798   8.845   2.538   4.364  0.1090  0.4106 -0.2512
19081THY    CP357799   8.883   2.484   4.092 -0.2534  0.4716 -0.0539
19081THY    HP557800   8.832   2.563   4.036  0.5023 -1.2163 -0.7122
19081THY    HP657801   8.908   2.401   4.025 -0.4332  0.5531 -0.1749
19081THY    HP757802   8.972   2.525   4.142 -0.6089  1.1019 -0.0303
19081THY    CA357803   8.560   2.441   4.087  0.1207 -0.1803 -0.8042
19081THY    HA357804   8.569   2.548   4.070  0.1869  1.2858 -0.5615
19081THY    CA457805   8.432   2.395   4.065  0.6794 -0.1315  0.1337
19081THY    HA457806   8.357   2.457   4.017  2.1083 -1.2497  1.0598
19081THY    CA557807   8.402   2.259   4.086  0.7364  0.6812  0.1065
19081THY    CM157808   8.261   2.195   4.057 -0.1111  0.2119 -0.1104
19081THY    HM157809   8.270   2.116   3.981 -0.6516  2.1391 -2.1204
19081THY    HM257810   8.191   2.271   4.022 -0.8294 -1.4567 -1.4621
19081THY    HM357811   8.228   2.137   4.144 -0.9264 -0.6510 -0.9705
19081THY    CA657812   8.499   2.176   4.143 -1.2438  0.4333  0.0046
19081THY    HA657813   8.475   2.071   4.156  0.3312 -0.9315 -0.5710
19082THY      O57814   4.070   4.390   3.987  0.0648 -0.0838  0.2177
19082THY     HO57815   4.059   4.443   3.906 -0.8393 -0.8856 -1.1515
19082THY    CA157816   4.055   4.477   4.094  0.1440  0.1454 -0.0898
19082THY    CA257817   4.080   4.442   4.227 -0.1855 -0.6205 -0.4663
19082THY    CP157818   4.128   4.311   4.272 -0.2347  0.2586  0.6912
19082THY    HP157819   4.183   4.258   4.193 -0.0849  0.1733  0.9691
19082THY    CP257820   4.007   4.214   4.308 -0.0308  0.1325  0.3889
19082THY    HP257821   4.045   4.124   4.358  0.6978  1.0099  1.1627
19082THY    HP357822   3.946   4.196   4.219 -0.2429  0.1557  0.9528
19082THY    HP457823   3.941   4.255   4.386  0.2493 -0.0096  1.1304
19082THY    CP357824   4.227   4.319   4.394 -0.7300  0.6187  0.0824
19082THY    HP557825   4.288   4.410   4.388  1.0706 -0.3695 -1.1269
19082THY    HP657826   4.293   4.232   4.400 -1.2794 -0.2088 -0.4099
19082THY    HP757827   4.178   4.307   4.491 -1.4512  0.0908 -1.6215
19082THY    CA357828   4.051   4.540   4.329  0.7332  0.2168  0.7046
19082THY    HA357829   4.059   4.515   4.434  1.8155 -0.2453 -1.0980
19082THY    CA457830   4.014   4.668   4.296 -0.0690 -0.2315 -0.0770
19082THY    HA457831   3.994   4.740   4.374 -3.6570 -1.0586  0.0327
19082THY    CA557832   3.991   4.700   4.164 -0.3898 -0.0838  0.3979
19082THY    CM157833   3.920   4.828   4.126  0.0476  0.3846 -0.3589
19082THY    HM157834   3.882   4.891   4.207 -1.4193 -0.5253 -0.0375
19082THY    HM257835   3.833   4.802   4.066  0.7013 -0.9551  0.4374
19082THY    HM357836   3.983   4.879   4.053 -1.8385 -0.6078  0.6234
19082THY    CA657837   4.005   4.602   4.065 -0.2513 -0.0212 -0.9502
19082THY    HA657838   3.978   4.632   3.964  0.7547  0.2809  1.1164
19083THY      O57839   0.818   6.158   2.281 -0.3153 -0.0380 -0.7532
19083THY     HO57840   0.854   6.071   2.307 -0.2888  2.4138 -0.0821
19083THY    CA157841   0.908   6.220   2.197 -0.0055 -0.1095 -0.0360
19083THY    CA257842   0.913   6.364   2.176 -0.0370  0.4779  0.5461
19083THY    CP157843   0.823   6.466   2.253 -0.3228  1.0138 -0.2118
19083THY    HP157844   0.759   6.402   2.314  0.0857  0.3252 -1.3222
19083THY    CP257845   0.748   6.548   2.149 -0.1215 -0.5856 -0.0011
19083THY    HP257846   0.669   6.606   2.197 -0.0274  0.2025 -0.5151
19083THY    HP357847   0.686   6.484   2.086 -0.9383  0.0457  0.1626
19083THY    HP457848   0.824   6.609   2.097  0.1350 -1.1707 -0.8076
19083THY    CP357849   0.902   6.547   2.354 -0.2311 -0.1212 -0.6623
19083THY    HP557850   0.845   6.634   2.389  0.1104  2.1701 -1.3034
19083THY    HP657851   0.994   6.587   2.311 -0.4483  1.4110  1.7187
19083THY    HP757852   0.939   6.488   2.438 -4.1126  2.4945  0.2047
19083THY    CA357853   1.006   6.419   2.086 -0.1059  1.0806  0.0214
19083THY    HA357854   1.010   6.528   2.084  2.4090  0.3977 -0.0233
19083THY    CA457855   1.105   6.337   2.028 -0.5285 -0.4589 -0.2834
19083THY    HA457856   1.174   6.384   1.958 -0.9361 -2.1740 -2.0997
19083THY    CA557857   1.107   6.196   2.060  0.5017  0.2655 -0.6208
19083THY    CM157858   1.223   6.110   2.008  0.9923  0.4888  0.2827
19083THY    HM157859   1.255   6.036   2.082 -0.1855 -2.1046 -3.0964
19083THY    HM257860   1.311   6.171   1.984  1.2113 -1.9548 -0.8564
19083THY    HM357861   1.185   6.060   1.918  2.5910 -0.2681  0.3726
19083THY    CA657862   1.014   6.146   2.145 -0.3016 -0.4870  0.4422
19083THY    HA657863   1.011   6.038   2.161  1.3981 -0.5227  0.3667
19084THY      O57864   3.492   3.764   4.890  0.6304  1.1041  0.6002
19084THY     HO57865   3.481   3.838   4.951  0.8209  1.2862  0.4800
19084THY    CA157866   3.549   3.803   4.774 -0.2518  1.0276  0.2083
19084THY    CA257867   3.587   3.709   4.673  0.7241  0.1113 -0.7527
19084THY    CP157868   3.594   3.562   4.710 -0.5996  0.2921  0.5151
19084THY    HP157869   3.560   3.547   4.814  0.8749  0.6452 -0.6498
19084THY    CP257870   3.740   3.508   4.712 -0.0252  0.3162  0.4082
19084THY    HP257871   3.809   3.582   4.756  4.0276 -1.5664 -1.9121
19084THY    HP357872   3.786   3.494   4.614  0.1940  0.4486  0.1894
19084THY    HP457873   3.745   3.414   4.767  1.1591 -0.3294  0.0754
19084THY    CP357874   3.514   3.465   4.623 -0.2442  0.0394  0.1669
19084THY    HP557875   3.412   3.504   4.630 -0.9315  2.2352 -1.7599
19084THY    HP657876   3.503   3.373   4.682 -2.5400  2.5918  1.9173
19084THY    HP757877   3.553   3.448   4.522  0.1720  0.0809  0.8613
19084THY    CA357878   3.651   3.751   4.562  0.1382 -0.0705 -0.2826
19084THY    HA357879   3.702   3.678   4.500  2.4779  0.9048  0.4539
19084THY    CA457880   3.671   3.893   4.544  0.4699  0.6327  0.3213
19084THY    HA457881   3.727   3.937   4.462  0.3467  0.7540  0.7062
19084THY    CA557882   3.614   3.984   4.629  0.3723  0.0029  0.2872
19084THY    CM157883   3.624   4.138   4.620  0.1146 -0.5659  0.2106
19084THY    HM157884   3.618   4.179   4.721  1.6905  0.3061 -1.5890
19084THY    HM257885   3.546   4.184   4.558 -2.0130  1.2820 -0.6688
19084THY    HM357886   3.724   4.156   4.580 -0.1288 -0.5291  1.7492
19084THY    CA657887   3.559   3.939   4.750  0.2248  0.2575  0.3194
19084THY    HA657888   3.525   4.003   4.831 -0.1550 -0.3068  0.8361
19085THY      O57889   7.897   2.959   4.192 -0.1308 -0.4638 -0.3813
19085THY     HO57890   7.814   2.961   4.142 -0.0914 -0.5384 -0.6027
19085THY    CA157891   7.916   2.827   4.228 -0.0382 -0.0148 -0.3211
19085THY    CA257892   7.985   2.792   4.348  0.0144 -0.2078 -0.1051
19085THY    CP157893   8.038   2.902   4.442  0.8620  0.1343  0.2307
19085THY    HP157894   8.002   2.998   4.404 -0.1849 -3.1937 -1.3257
19085THY    CP257895   8.191   2.915   4.472 -0.6157 -0.2377  0.8672
19085THY    HP257896   8.237   2.830   4.524 -0.3975 -0.9497  0.5397
19085THY    HP357897   8.221   3.002   4.531  2.6531 -1.2504  0.5466
19085THY    HP457898   8.258   2.919   4.386  0.8610  0.8368  0.1468
19085THY    CP357899   7.970   2.890   4.583  0.1665 -0.2925 -0.5996
19085THY    HP557900   7.860   2.884   4.579  0.1354  0.1733 -0.3830
19085THY    HP657901   8.001   2.979   4.638 -0.2907 -0.6039 -0.2416
19085THY    HP757902   8.007   2.798   4.630  1.7415 -0.0919  0.1027
19085THY    CA357903   8.006   2.655   4.379 -0.6982  0.1833  0.3264
19085THY    HA357904   8.070   2.628   4.461  0.8044 -1.3447 -0.9748
19085THY    CA457905   7.955   2.558   4.292  0.1061  0.1768 -0.1882
19085THY    HA457906   7.953   2.455   4.326 -3.2123  0.9956  0.0556
19085THY    CA557907   7.881   2.593   4.182  0.0159  0.2169 -0.3507
19085THY    CM157908   7.828   2.488   4.095  0.8807  0.7387  0.8619
19085THY    HM157909   7.829   2.522   3.991 -1.1161 -0.2366 -1.6866
19085THY    HM257910   7.727   2.450   4.117  1.6445  0.6792 -1.3731
19085THY    HM357911   7.896   2.403   4.109  1.2710  1.6769  1.3131
19085THY    CA657912   7.863   2.731   4.148 -0.3174 -0.3563  0.5141
19085THY    HA657913   7.818   2.760   4.053  0.1644 -0.4112  1.0935
19086THY      O57914   6.238   2.100   2.161  0.5907  0.0148  0.0864
19086THY     HO57915   6.275   2.045   2.090  0.4003 -0.6827  0.8350
19086THY    CA157916   6.319   2.212   2.169 -0.3766  0.3387  0.7097
19086THY    CA257917   6.301   2.318   2.264 -0.1329 -0.0381  0.8326
19086THY    CP157918   6.175   2.312   2.353 -0.3624  0.4833 -0.7704
19086THY    HP157919   6.114   2.222   2.335 -1.2140 -0.3366 -0.0531
19086THY    CP257920   6.093   2.446   2.326 -0.1607  0.1647 -0.1207
19086THY    HP257921   6.066   2.468   2.222 -0.2688 -0.1580 -1.6739
19086THY    HP357922   6.158   2.524   2.368 -1.1424  2.4847 -0.4538
19086THY    HP457923   6.003   2.447   2.390 -0.6537 -0.5076 -0.5734
19086THY    CP357924   6.227   2.303   2.498 -0.0777  0.2565  0.4469
19086THY    HP557925   6.301   2.381   2.521  0.5960  1.1579 -0.4322
19086THY    HP657926   6.255   2.198   2.514 -1.6208 -0.7551 -0.1526
19086THY    HP757927   6.144   2.325   2.566  1.1333  1.8264  0.3085
19086THY    CA357928   6.387   2.429   2.269  0.0307  0.3269  0.4487
19086THY    HA357929   6.375   2.515   2.335 -2.1088 -0.0631  0.5019
19086THY    CA457930   6.498   2.429   2.176  0.2525 -0.7351 -0.2564
19086THY    HA457931   6.562   2.517   2.175  1.4920 -0.5476 -1.1190
19086THY    CA557932   6.517   2.331   2.080  0.0325  0.4133  0.4415
19086THY    CM157933   6.614   2.338   1.958  0.1333 -0.3565 -0.1552
19086THY    HM157934   6.703   2.395   1.986 -0.1951  1.4096 -0.4468
19086THY    HM257935   6.572   2.388   1.869 -1.1162 -0.2257 -0.9250
19086THY    HM357936   6.655   2.242   1.926 -0.1105  0.7375 -0.6372
19086THY    CA657937   6.435   2.219   2.082  0.8097 -0.1489  0.1850
19086THY    HA657938   6.443   2.132   2.018 -0.9593 -0.1083 -0.0525
19087THY      O57939   5.780   6.176   4.135  0.3005  0.4251  0.1317
19087THY     HO57940   5.765   6.255   4.081  1.1443  0.4787  0.3419
19087THY    CA157941   5.734   6.076   4.064 -0.7770  0.1715  0.2661
19087THY    CA257942   5.813   5.957   4.055  0.2223 -0.1096  0.1504
19087THY    CP157943   5.925   5.933   4.146 -0.8763 -0.0315  0.5805
19087THY    HP157944   5.967   6.029   4.179  0.2612 -0.3415  0.2016
19087THY    CP257945   6.039   5.858   4.067 -0.6882  0.0725  0.0231
19087THY    HP257946   6.028   5.749   4.068 -0.0577  2.9381 -0.0897
19087THY    HP357947   6.129   5.871   4.128 -0.3252 -0.7783  1.7732
19087THY    HP457948   6.062   5.908   3.973  1.9230  0.3657 -0.5130
19087THY    CP357949   5.881   5.867   4.277 -1.2165  0.5019  0.0115
19087THY    HP557950   5.785   5.815   4.264 -1.9875  1.2570  1.1967
19087THY    HP657951   5.873   5.950   4.348  1.0950  0.6878  0.1512
19087THY    HP757952   5.958   5.797   4.311  1.5867 -2.5301  1.3367
19087THY    CA357953   5.764   5.848   3.976 -0.0684  0.3084  0.2540
19087THY    HA357954   5.814   5.751   3.975  1.3054 -1.0969  0.9173
19087THY    CA457955   5.645   5.868   3.898 -0.1377  0.3226 -0.9305
19087THY    HA457956   5.623   5.793   3.822  0.9765 -1.2264  0.2205
19087THY    CA557957   5.572   5.990   3.900  0.0468 -0.8432  0.4484
19087THY    CM157958   5.455   6.007   3.807  0.2602  0.0548  0.3465
19087THY    HM157959   5.473   6.082   3.730 -2.6770 -1.2323 -0.1568
19087THY    HM257960   5.368   6.043   3.863  0.1634  0.7071 -0.8582
19087THY    HM357961   5.434   5.912   3.757 -1.2976 -0.7674  1.0999
19087THY    CA657962   5.619   6.097   3.984  0.2772  1.0719  0.6121
19087THY    HA657963   5.564   6.190   3.992 -1.0443  1.2982 -0.1645
19088THY      O57964   8.122   6.480   2.340 -0.0299  0.1553  0.0207
19088THY     HO57965   8.182   6.494   2.264  0.2036  0.4345  0.5779
19088THY    CA157966   8.197   6.428   2.438  0.5485 -0.2476 -0.0817
19088THY    CA257967   8.150   6.378   2.558  0.1215 -0.1617  0.0351
19088THY    CP157968   8.001   6.393   2.590 -0.5146 -0.4139 -0.1319
19088THY    HP157969   7.951   6.480   2.546  0.8137  1.4984  1.6930
19088THY    CP257970   7.976   6.412   2.742  0.6551  0.2859  0.4993
19088THY    HP257971   7.979   6.318   2.798 -0.1972 -0.7492 -0.1740
19088THY    HP357972   7.876   6.453   2.757  0.7694  2.0266  0.2044
19088THY    HP457973   8.046   6.484   2.786  1.2000  0.8898 -0.3741
19088THY    CP357974   7.936   6.263   2.544  0.0182  0.0531 -0.2681
19088THY    HP557975   7.827   6.273   2.556  0.1990  0.0324  2.9741
19088THY    HP657976   7.974   6.168   2.584  1.5624 -2.0343 -0.6052
19088THY    HP757977   7.931   6.249   2.435  0.9022  0.1485 -1.4300
19088THY    CA357978   8.229   6.308   2.648 -0.3054 -0.2628  0.3152
19088THY    HA357979   8.189   6.269   2.741  0.6991 -0.1870 -0.5793
19088THY    CA457980   8.358   6.281   2.606 -0.4999  0.4207  0.1397
19088THY    HA457981   8.427   6.217   2.660  1.2650 -1.3306  0.4813
19088THY    CA557982   8.409   6.334   2.491  0.0767  0.2172 -0.2278
19088THY    CM157983   8.556   6.323   2.458  0.1348 -0.6630  0.3615
19088THY    HM157984   8.611   6.299   2.550 -1.1151  1.0179  3.2604
19088THY    HM257985   8.595   6.415   2.413  0.1940 -2.4941 -0.5303
19088THY    HM357986   8.565   6.239   2.389 -0.0664  0.1596 -0.3488
19088THY    CA657987   8.330   6.412   2.411  0.0573 -0.3405 -0.7031
19088THY    HA657988   8.381   6.447   2.322 -0.3697 -0.6218 -0.7904
19089THY      O57989   1.294   2.503   2.490 -0.3332  0.8179 -0.2673
19089THY     HO57990   1.212   2.481   2.537 -0.6903 -0.0699 -0.8889
19089THY    CA157991   1.271   2.609   2.408 -0.2451  0.1227  0.3167
19089THY    CA257992   1.372   2.660   2.331  0.7447  0.3067  0.2272
19089THY    CP157993   1.513   2.604   2.340  0.0184  0.4398 -0.1461
19089THY    HP157994   1.517   2.512   2.400  1.1075 -0.5822 -0.7958
19089THY    CP257995   1.609   2.713   2.401 -0.1627  0.4758  0.1109
19089THY    HP257996   1.701   2.664   2.436 -1.4408  1.5253 -1.6847
19089THY    HP357997   1.549   2.765   2.477 -0.8008  0.4923 -0.6309
19089THY    HP457998   1.639   2.774   2.315 -0.2536  0.2074 -0.2182
19089THY    CP357999   1.564   2.555   2.198  0.3840  0.1856 -0.3613
19089THY    HP558000   1.589   2.642   2.137  3.3065  3.0573  1.0299
19089THY    HP658001   1.487   2.489   2.157 -0.0996  1.9178 -0.9409
19089THY    HP758002   1.658   2.503   2.221 -0.5459  2.6031 -1.1282
19089THY    CA358003   1.339   2.768   2.238  0.1764  0.1281  0.3785
19089THY    HA358004   1.419   2.810   2.178  1.0664 -0.9381 -2.5830
19089THY    CA458005   1.209   2.820   2.238  0.1397 -0.2603 -0.2457
19089THY    HA458006   1.191   2.914   2.186 -2.3982  1.0240  0.0653
19089THY    CA558007   1.111   2.770   2.324  0.0824 -0.2739  0.5536
19089THY    CM158008   0.969   2.812   2.322  0.6020  0.2021  0.0223
19089THY    HM158009   0.918   2.805   2.419 -1.9156 -0.9790  0.8744
19089THY    HM258010   0.908   2.761   2.247 -0.3837  0.9169  0.1345
19089THY    HM358011   0.963   2.917   2.293 -0.4452  0.3531  0.0117
19089THY    CA658012   1.151   2.664   2.404  0.4462  0.5721 -0.7995
19089THY    HA658013   1.073   2.624   2.468  0.7103  2.1897  1.1154
19090THY      O58014   3.692   2.843   7.153  0.3436  0.0974 -0.3105
19090THY     HO58015   3.762   2.909   7.141 -0.9010 -0.4774  0.9413
19090THY    CA158016   3.588   2.912   7.216 -0.0655  0.2221  0.0233
19090THY    CA258017   3.466   2.854   7.259  0.3015  0.4874 -0.1500
19090THY    CP158018   3.432   2.715   7.214 -0.0260  0.1802  0.3403
19090THY    HP158019   3.525   2.663   7.189 -0.2942 -3.2518  1.3118
19090THY    CP258020   3.351   2.716   7.078 -0.0178  0.0017  0.4323
19090THY    HP258021   3.312   2.618   7.047  1.3287 -3.5875  0.8633
19090THY    HP358022   3.417   2.744   6.995 -0.0775  0.2395  1.3136
19090THY    HP458023   3.270   2.789   7.075 -0.4194 -1.6788 -0.0480
19090THY    CP358024   3.357   2.632   7.319 -0.4835  0.0221  0.1261
19090THY    HP558025   3.400   2.672   7.411  1.5706 -1.3040  1.1654
19090THY    HP658026   3.386   2.526   7.317  1.4784  0.9636  0.6015
19090THY    HP758027   3.248   2.647   7.322 -0.1460  1.1216  2.9405
19090THY    CA358028   3.386   2.934   7.349 -0.1037  0.1112  0.5582
19090THY    HA358029   3.291   2.904   7.391  0.3118  0.5515 -0.1793
19090THY    CA458030   3.433   3.059   7.392  0.4579 -0.5914  0.2990
19090THY    HA458031   3.364   3.117   7.452 -2.4203 -2.8051 -0.5803
19090THY    CA558032   3.544   3.116   7.331 -0.2468 -0.0815  0.0634
19090THY    CM158033   3.580   3.256   7.370  0.0941 -0.4283  0.4512
19090THY    HM158034   3.651   3.291   7.294  0.4107 -0.4416 -0.2084
19090THY    HM258035   3.641   3.258   7.461  0.9638 -1.0106  2.0145
19090THY    HM358036   3.501   3.326   7.400  1.6159 -2.6415  3.3383
19090THY    CA658037   3.629   3.036   7.256 -0.5060 -0.1920 -0.2209
19090THY    HA658038   3.724   3.081   7.226 -0.1960 -1.5546 -1.6705
19091THY      O58039   0.459   3.153   5.743 -0.2214  0.5485 -0.2601
19091THY     HO58040   0.371   3.141   5.703 -0.7110  1.4378  0.2086
19091THY    CA158041   0.436   3.137   5.878  0.6242  0.2096  0.4331
19091THY    CA258042   0.504   3.205   5.976 -0.2405 -0.9570 -0.0894
19091THY    CP158043   0.626   3.297   5.933  1.1884 -0.3012 -0.5029
19091THY    HP158044   0.651   3.271   5.830  0.2878 -0.1923 -1.8782
19091THY    CP258045   0.747   3.282   6.021  0.4485 -0.0240  0.2927
19091THY    HP258046   0.781   3.178   6.011  0.3092 -0.3067  0.2753
19091THY    HP358047   0.727   3.288   6.129 -1.4787 -0.3100 -0.4600
19091THY    HP458048   0.830   3.349   5.994  1.1627 -0.8444 -0.8744
19091THY    CP358049   0.573   3.441   5.938 -0.0733 -0.7989 -0.3092
19091THY    HP558050   0.487   3.453   5.871 -0.3988 -0.2263  0.6798
19091THY    HP658051   0.655   3.500   5.895  1.1556  0.4240 -1.0805
19091THY    HP758052   0.559   3.474   6.042  0.6192 -0.7830 -0.0457
19091THY    CA358053   0.458   3.192   6.112  0.5010 -0.0255 -0.9139
19091THY    HA358054   0.508   3.252   6.187 -1.3167 -0.4743  1.2823
19091THY    CA458055   0.354   3.107   6.147 -0.2880  0.3466  0.8278
19091THY    HA458056   0.320   3.095   6.250 -1.1422  0.0084  0.2411
19091THY    CA558057   0.295   3.023   6.045 -0.5563 -0.2314  0.0547
19091THY    CM158058   0.195   2.927   6.094 -0.8168  0.2720 -0.1210
19091THY    HM158059   0.219   2.917   6.200 -0.2628  0.3848  1.8868
19091THY    HM258060   0.195   2.827   6.050  1.7486 -0.1833  0.0069
19091THY    HM358061   0.092   2.961   6.080 -0.3815  0.1951  1.2358
19091THY    CA658062   0.344   3.035   5.913  0.5987 -0.8466 -0.1330
19091THY    HA658063   0.284   2.981   5.840  0.9401 -1.4273  0.2640
19092THY      O58064   8.707   8.500   6.633  0.2821  0.1506 -0.7017
19092THY     HO58065   8.726   8.405   6.640  2.1459 -0.8779 -0.4455
19092THY    CA158066   8.734   8.539   6.507 -1.0224 -0.9791 -0.1159
19092THY    CA258067   8.739   8.674   6.467  0.4537 -0.1121  0.3536
19092THY    CP158068   8.671   8.788   6.551  0.0595  0.3621 -0.6106
19092THY    HP158069   8.611   8.734   6.626  1.7890  2.4159  0.1905
19092THY    CP258070   8.578   8.871   6.467 -0.3148 -0.1597 -0.5284
19092THY    HP258071   8.645   8.911   6.390 -0.1353  0.4403  0.3600
19092THY    HP358072   8.542   8.954   6.530 -0.2712  1.0224 -1.3735
19092THY    HP458073   8.490   8.815   6.432 -1.5061  0.7408  0.7032
19092THY    CP358074   8.775   8.885   6.612 -0.8985  0.4080  0.6214
19092THY    HP558075   8.844   8.829   6.676 -0.6481 -0.4436 -0.0661
19092THY    HP658076   8.730   8.960   6.679 -1.0525  2.3508 -1.1231
19092THY    HP758077   8.840   8.931   6.537  0.2440  0.5675 -0.6803
19092THY    CA358078   8.803   8.700   6.346 -0.5601 -0.0217 -0.1734
19092THY    HA358079   8.815   8.802   6.311  1.5059  0.5407 -0.1590
19092THY    CA458080   8.843   8.599   6.254 -0.0023 -0.4291  0.9797
19092THY    HA458081   8.892   8.621   6.160 -0.4668 -0.7628  0.6132
19092THY    CA558082   8.826   8.463   6.291  1.3177 -0.8917 -0.8822
19092THY    CM158083   8.867   8.357   6.194  0.1442  1.0079 -0.4775
19092THY    HM158084   8.829   8.257   6.220 -1.1987  1.7080  0.1901
19092THY    HM258085   8.975   8.345   6.197 -0.0666  2.1413 -2.5822
19092THY    HM358086   8.830   8.385   6.094 -0.1000  0.6951 -1.8412
19092THY    CA658087   8.775   8.440   6.420 -0.0119  0.3648  0.7515
19092THY    HA658088   8.767   8.334   6.441 -1.5329  0.2376  0.8113
19093THY      O58089   5.572   2.555   5.073 -0.2918 -0.0650  0.0292
19093THY     HO58090   5.568   2.596   5.161  0.7735  0.3171 -0.6459
19093THY    CA158091   5.443   2.537   5.027 -0.0719  0.0939  0.4613
19093THY    CA258092   5.424   2.507   4.888  0.1790  0.2335 -0.1501
19093THY    CP158093   5.541   2.505   4.783 -0.2355 -0.9178  0.3880
19093THY    HP158094   5.625   2.456   4.834  0.1049 -0.9034  0.9746
19093THY    CP258095   5.580   2.641   4.739  0.3525  0.2877  0.3896
19093THY    HP258096   5.633   2.695   4.818  0.8124 -0.4154  0.9719
19093THY    HP358097   5.488   2.695   4.713  0.1807 -1.2165 -0.5729
19093THY    HP458098   5.647   2.637   4.653  0.6630  0.4652  1.4910
19093THY    CP358099   5.516   2.418   4.652 -0.1936  0.6382 -0.9012
19093THY    HP558100   5.615   2.380   4.623 -0.7991 -1.1984 -1.1639
19093THY    HP658101   5.470   2.472   4.569 -1.4947 -0.1778 -3.1084
19093THY    HP758102   5.454   2.329   4.669 -2.4740 -1.1994  0.2349
19093THY    CA358103   5.290   2.476   4.850  0.8007 -0.0301 -0.3467
19093THY    HA358104   5.273   2.448   4.746 -0.6271 -0.1033  0.6697
19093THY    CA458105   5.186   2.476   4.943 -0.0553  0.0063 -0.3009
19093THY    HA458106   5.083   2.456   4.918 -0.1035  0.2944 -0.4162
19093THY    CA558107   5.207   2.513   5.082 -0.0265 -0.0834  0.3905
19093THY    CM158108   5.089   2.524   5.176  0.7666 -0.3837 -0.2708
19093THY    HM158109   5.012   2.582   5.123  1.1642 -2.0288 -1.1942
19093THY    HM258110   5.123   2.579   5.265  1.7403 -0.3466 -0.9122
19093THY    HM358111   5.044   2.426   5.195 -2.9387 -0.6792  1.2186
19093THY    CA658112   5.341   2.544   5.120  0.8117 -0.4886 -0.4646
19093THY    HA658113   5.353   2.570   5.225 -3.4782  0.2510 -0.6701
19094THY      O58114   1.232   4.209   6.520 -0.2782 -0.3314  0.3138
19094THY     HO58115   1.269   4.287   6.474  0.4880  0.8077  0.6390
19094THY    CA158116   1.104   4.251   6.539  0.1963 -0.3533 -0.6431
19094THY    CA258117   1.032   4.192   6.644  0.1647 -0.5496  1.0265
19094THY    CP158118   1.087   4.070   6.709 -0.2367 -0.3479  0.4859
19094THY    HP158119   1.145   4.003   6.645  1.3883  1.8963 -0.3657
19094THY    CP258120   0.979   3.980   6.764  0.1652 -0.2313 -0.0373
19094THY    HP258121   1.015   3.878   6.781  0.5251 -1.4042 -0.1266
19094THY    HP358122   0.896   3.982   6.692 -2.5635  2.6882  0.9253
19094THY    HP458123   0.941   4.012   6.862 -0.6914  0.0876 -1.8903
19094THY    CP358124   1.177   4.112   6.826 -0.0603 -0.5165  0.6818
19094THY    HP558125   1.133   4.188   6.892  1.0348  0.6105  0.3647
19094THY    HP658126   1.265   4.168   6.791 -0.7162 -2.3969  0.6256
19094THY    HP758127   1.219   4.025   6.877 -0.4517 -2.8510 -0.9460
19094THY    CA358128   0.909   4.253   6.686 -0.7136 -0.0767  0.2809
19094THY    HA358129   0.855   4.208   6.769  0.6471  0.0622 -1.2058
19094THY    CA458130   0.863   4.365   6.620 -1.0163  0.2024 -0.5320
19094THY    HA458131   0.766   4.410   6.638 -0.2114 -1.0839  1.9662
19094THY    CA558132   0.937   4.420   6.513  0.5205  0.0674 -0.2414
19094THY    CM158133   0.905   4.555   6.455  0.1047 -0.0132 -0.7062
19094THY    HM158134   0.810   4.543   6.401 -0.4896  0.0868  2.5239
19094THY    HM258135   0.969   4.604   6.381 -0.1856  0.3848  0.2987
19094THY    HM358136   0.884   4.628   6.534 -0.4450 -1.9392  1.3670
19094THY    CA658137   1.058   4.366   6.476  0.1508  0.3021 -0.2341
19094THY    HA658138   1.118   4.422   6.405  0.0015  0.3127 -0.0590
19095THY      O58139   1.598   4.857   3.317 -0.7372 -0.4678 -0.1790
19095THY     HO58140   1.602   4.885   3.225  0.6644 -0.2468  0.4049
19095THY    CA158141   1.726   4.880   3.369 -0.2344 -0.1311  0.1404
19095THY    CA258142   1.771   4.813   3.482  0.1167 -0.2135 -0.1357
19095THY    CP158143   1.669   4.713   3.546 -0.7120  0.3208  0.9188
19095THY    HP158144   1.597   4.663   3.480  0.0458  1.3524 -1.7053
19095THY    CP258145   1.586   4.791   3.648 -0.5513 -0.1134 -0.0467
19095THY    HP258146   1.558   4.892   3.618  1.4459  1.8854  1.1992
19095THY    HP358147   1.635   4.797   3.745 -1.9182  0.6726 -0.9750
19095THY    HP458148   1.498   4.726   3.652 -0.1973 -0.3651 -0.5495
19095THY    CP358149   1.750   4.593   3.613 -0.5515  0.7146  0.1109
19095THY    HP558150   1.680   4.515   3.646  0.8089  1.1875 -0.9525
19095THY    HP658151   1.811   4.630   3.696 -0.3380 -0.2144  1.9420
19095THY    HP758152   1.818   4.551   3.538 -2.3473 -0.4141 -0.9573
19095THY    CA358153   1.893   4.843   3.538 -0.0220 -0.2051 -0.6445
19095THY    HA358154   1.916   4.794   3.633 -1.9299 -0.2138 -1.6377
19095THY    CA458155   1.978   4.931   3.472  0.2279  0.5182 -0.5075
19095THY    HA458156   2.073   4.944   3.523 -1.1374  3.5201 -1.4787
19095THY    CA558157   1.934   4.999   3.353 -0.7091 -0.8975  0.1908
19095THY    CM158158   2.027   5.073   3.273  0.1346  0.0476 -0.2423
19095THY    HM158159   1.972   5.164   3.246  0.1151 -0.6171 -0.4421
19095THY    HM258160   2.062   5.019   3.184  1.4634 -1.5281  2.9719
19095THY    HM358161   2.112   5.104   3.333  2.0943 -2.2145 -0.9135
19095THY    CA658162   1.808   4.976   3.308  0.6139 -0.0996 -0.5494
19095THY    HA658163   1.775   5.028   3.218  2.4039 -1.1029 -1.0299
19096THY      O58164   6.821   7.644   5.680 -0.2241  0.0521  0.0094
19096THY     HO58165   6.788   7.732   5.704 -0.4548 -2.1986  0.6022
19096THY    CA158166   6.730   7.592   5.583 -0.0121 -0.6420  0.1081
19096THY    CA258167   6.650   7.480   5.612 -0.0590  0.1056  0.3207
19096THY    CP158168   6.669   7.390   5.730  0.1212 -0.0196 -0.3195
19096THY    HP158169   6.748   7.430   5.794  1.1264 -0.8958 -0.8467
19096THY    CP258170   6.716   7.254   5.677 -0.7829 -0.1103 -0.7991
19096THY    HP258171   6.658   7.219   5.591 -0.2506 -0.4586 -0.8266
19096THY    HP358172   6.705   7.184   5.761  1.0989 -0.1264 -1.1696
19096THY    HP458173   6.822   7.247   5.649 -0.7314  0.3736 -2.1518
19096THY    CP358174   6.544   7.363   5.818 -0.5940 -0.6916  0.2107
19096THY    HP558175   6.574   7.344   5.921 -0.1225 -1.0214 -0.8704
19096THY    HP658176   6.475   7.287   5.781 -1.4209 -3.2378  2.0531
19096THY    HP758177   6.484   7.455   5.827 -1.0106  0.3253 -0.1478
19096THY    CA358178   6.535   7.456   5.537  0.1800 -0.4199  0.3799
19096THY    HA358179   6.459   7.385   5.568 -1.4270 -2.3667  1.1407
19096THY    CA458180   6.518   7.534   5.421 -0.0155 -0.1070  0.1069
19096THY    HA458181   6.439   7.511   5.351 -1.5993  0.9487  2.0434
19096THY    CA558182   6.600   7.642   5.390  0.0968  0.2345 -0.7518
19096THY    CM158183   6.566   7.732   5.272 -0.0892 -0.3872  0.1130
19096THY    HM158184   6.485   7.684   5.216  1.5529 -1.1396 -1.9701
19096THY    HM258185   6.657   7.738   5.211  0.3633  0.1023 -1.2346
19096THY    HM358186   6.541   7.833   5.307  2.0998 -2.0379  1.3016
19096THY    CA658187   6.709   7.666   5.468  0.3244 -1.4349 -1.7344
19096THY    HA658188   6.772   7.755   5.465  0.9854  1.5982 -1.9790
19097THY      O58189   5.944   1.662   1.791 -0.0733  0.0858 -0.3491
19097THY     HO58190   5.865   1.698   1.833 -0.5277 -1.3439  0.3992
19097THY    CA158191   5.916   1.530   1.769  0.1768  0.0129 -0.8375
19097THY    CA258192   6.013   1.449   1.705 -0.1712  0.2216  0.3085
19097THY    CP158193   6.149   1.510   1.659  0.5538  0.7854  0.5166
19097THY    HP158194   6.142   1.618   1.645  0.9980 -1.5267  0.2839
19097THY    CP258195   6.192   1.450   1.523 -0.3322 -0.0752 -0.2781
19097THY    HP258196   6.267   1.515   1.476 -1.1626  0.8713  1.4444
19097THY    HP358197   6.109   1.441   1.451  0.2317 -0.5615 -1.8317
19097THY    HP458198   6.241   1.355   1.545 -1.0317  1.2155 -0.3633
19097THY    CP358199   6.257   1.497   1.766 -0.3243  0.0910 -0.0515
19097THY    HP558200   6.234   1.563   1.851 -0.3038  0.8365 -0.9744
19097THY    HP658201   6.354   1.522   1.722  0.3624  0.4855 -1.8759
19097THY    HP758202   6.250   1.400   1.817 -2.9044  1.2824  0.6696
19097THY    CA358203   5.990   1.312   1.695  0.4814 -0.3495  0.6219
19097THY    HA358204   6.057   1.241   1.649  0.6295 -0.7721  1.0370
19097THY    CA458205   5.865   1.261   1.739 -0.3977  0.4285  0.1702
19097THY    HA458206   5.829   1.164   1.708 -1.5630 -1.1916  1.0646
19097THY    CA558207   5.771   1.344   1.799 -0.2977  0.5547  0.7007
19097THY    CM158208   5.643   1.271   1.848 -0.6613 -0.0601  0.9354
19097THY    HM158209   5.555   1.334   1.830 -0.9926  0.7417  0.7172
19097THY    HM258210   5.660   1.251   1.955 -3.5727  0.1894 -0.7633
19097THY    HM358211   5.628   1.173   1.801 -0.0578 -0.7112  1.1520
19097THY    CA658212   5.796   1.478   1.811  0.6101 -0.4892  0.2943
19097THY    HA658213   5.726   1.543   1.863 -0.1560  2.3626 -2.5300
19098THY      O58214   7.354   3.631   5.923  0.4468  0.2992  0.3748
19098THY     HO58215   7.437   3.639   5.873  0.4145 -0.2019 -1.6580
19098THY    CA158216   7.350   3.508   5.980  0.3312  0.1459  0.1920
19098THY    CA258217   7.228   3.453   6.033  0.1014 -0.1641 -0.1006
19098THY    CP158218   7.088   3.513   6.002  0.0016 -0.3781  0.4510
19098THY    HP158219   7.093   3.612   5.955  0.1903 -0.3998  0.4300
19098THY    CP258220   7.017   3.561   6.138  0.1331  0.5946  0.8203
19098THY    HP258221   7.077   3.634   6.195 -1.2770  2.8262  0.3381
19098THY    HP358222   6.994   3.483   6.211 -0.5704 -0.3991  0.0795
19098THY    HP458223   6.928   3.620   6.113  0.1169  1.2871  1.0967
19098THY    CP358224   6.994   3.426   5.916 -0.7812 -0.3572  0.0424
19098THY    HP558225   7.046   3.418   5.820  1.8297  0.9347  0.3360
19098THY    HP658226   6.896   3.473   5.905 -0.4004 -0.4874  0.8249
19098THY    HP758227   6.977   3.321   5.944  0.1401  1.0670  0.2452
19098THY    CA358228   7.236   3.325   6.090  0.4736 -0.2044  0.3149
19098THY    HA358229   7.146   3.269   6.116  0.9014 -0.4433 -0.4969
19098THY    CA458230   7.353   3.251   6.093 -0.1012  0.0091  0.4501
19098THY    HA458231   7.343   3.144   6.105 -0.3624 -1.0386  0.3508
19098THY    CA558232   7.467   3.315   6.053 -0.2226 -0.2331 -0.3689
19098THY    CM158233   7.591   3.239   6.076 -0.5961 -0.0443 -0.2571
19098THY    HM158234   7.588   3.132   6.050  0.4642  0.0013 -0.3102
19098THY    HM258235   7.630   3.244   6.179  1.5942 -0.6993 -2.0450
19098THY    HM358236   7.665   3.275   6.004 -0.5372  0.2819  0.2841
19098THY    CA658237   7.470   3.443   5.995  0.0281 -0.5384  0.6793
19098THY    HA658238   7.564   3.481   5.957  0.8393 -0.0383 -0.7562
19099THY      O58239   4.097   1.989   6.709 -0.3900  0.2124  0.1760
19099THY     HO58240   4.020   1.981   6.769 -0.6553 -0.1687 -0.1733
19099THY    CA158241   4.181   1.891   6.749  0.3928  0.3608  0.3957
19099THY    CA258242   4.313   1.889   6.701  0.0142 -0.4068 -0.8918
19099THY    CP158243   4.369   1.997   6.600 -0.2251 -1.0266  0.4006
19099THY    HP158244   4.294   2.062   6.552  0.5519 -0.8643  1.4425
19099THY    CP258245   4.443   1.921   6.485 -0.3710 -0.4210 -0.0426
19099THY    HP258246   4.540   1.874   6.506 -0.7577  2.5039  0.2633
19099THY    HP358247   4.449   2.006   6.417 -0.2693  0.0482  0.3285
19099THY    HP458248   4.373   1.854   6.434 -0.4573 -0.7826  0.3244
19099THY    CP358249   4.453   2.099   6.669 -0.9494  0.6223 -0.1644
19099THY    HP558250   4.557   2.065   6.683 -0.1637 -2.5085  0.5733
19099THY    HP658251   4.403   2.127   6.762 -0.0340  0.6333  1.5460
19099THY    HP758252   4.451   2.183   6.599  0.1581  0.7887  0.0258
19099THY    CA358253   4.399   1.792   6.758 -0.5703  0.1974  0.1391
19099THY    HA358254   4.501   1.778   6.723 -0.0081  1.9987 -0.5278
19099THY    CA458255   4.357   1.706   6.858 -0.0837  0.8550  0.3829
19099THY    HA458256   4.428   1.632   6.895 -0.7586 -1.2754 -1.4417
19099THY    CA558257   4.222   1.707   6.902  0.3140  1.2406 -0.1072
19099THY    CM158258   4.173   1.610   6.991  0.6256  0.0854 -0.5496
19099THY    HM158259   4.217   1.602   7.091  1.3319  0.0917  2.2405
19099THY    HM258260   4.178   1.511   6.944 -0.1521 -0.0296 -0.5445
19099THY    HM358261   4.067   1.627   7.014  0.2600 -2.1493  0.5337
19099THY    CA658262   4.138   1.798   6.839  0.6457  0.4105 -0.0982
19099THY    HA658263   4.032   1.794   6.863  0.2400 -1.3545 -0.5032
19100THY      O58264   0.655   3.979   5.200  0.1674  0.5139 -0.1452
19100THY     HO58265   0.579   3.923   5.179 -0.4403 -0.4567  1.0143
19100THY    CA158266   0.685   4.032   5.079 -0.4479  0.1892 -0.0289
19100THY    CA258267   0.708   4.166   5.056  0.1256 -0.6827 -0.7174
19100THY    CP158268   0.713   4.266   5.175 -0.7528 -0.0386 -0.6058
19100THY    HP158269   0.725   4.219   5.273  2.6752  0.1767  0.4673
19100THY    CP258270   0.580   4.338   5.166 -0.5229  0.1949 -0.0498
19100THY    HP258271   0.575   4.404   5.253 -1.7001 -0.1695  0.3641
19100THY    HP358272   0.495   4.270   5.178  0.1595 -1.1000 -1.2057
19100THY    HP458273   0.569   4.385   5.067 -0.6483  0.2547  0.0438
19100THY    CP358274   0.833   4.372   5.164  0.0728  0.6640 -0.2309
19100THY    HP558275   0.858   4.410   5.264  0.4475  0.5981 -0.2985
19100THY    HP658276   0.810   4.451   5.092  2.2372 -0.5233 -0.5995
19100THY    HP758277   0.918   4.318   5.120  1.0244  0.0334  1.7034
19100THY    CA358278   0.732   4.214   4.931 -0.5543  0.3396 -0.6273
19100THY    HA358279   0.754   4.319   4.916  0.7711 -0.3539 -0.9818
19100THY    CA458280   0.735   4.119   4.824 -0.3470 -0.2592  0.1142
19100THY    HA458281   0.760   4.157   4.725 -1.5022 -0.3771  0.6217
19100THY    CA558282   0.732   3.980   4.852  0.5714 -0.6232 -0.8422
19100THY    CM158283   0.768   3.875   4.760  0.0964  0.0752 -0.0485
19100THY    HM158284   0.856   3.820   4.795 -0.3623  0.3098 -0.6394
19100THY    HM258285   0.773   3.908   4.655  0.4342 -0.4217 -1.5766
19100THY    HM358286   0.686   3.803   4.767 -0.7386  0.4816  0.9303
19100THY    CA658287   0.694   3.936   4.979 -0.2327 -0.3220 -0.2611
19100THY    HA658288   0.698   3.830   4.999  0.8503 -0.9489 -0.3558
19101THY      O58289   8.424   2.643   3.673 -0.5371 -0.1411 -0.2239
19101THY     HO58290   8.431   2.736   3.645  0.0742  2.5103  0.6036
19101THY    CA158291   8.343   2.650   3.785 -0.7875 -0.7926 -0.4718
19101THY    CA258292   8.223   2.589   3.792 -0.2166 -0.5460  0.3171
19101THY    CP158293   8.163   2.512   3.680  0.2955  0.3328 -0.2988
19101THY    HP158294   8.215   2.548   3.590  0.8750  0.9434  0.4268
19101THY    CP258295   8.015   2.544   3.647  0.1040  0.0016 -0.5072
19101THY    HP258296   8.009   2.648   3.614 -1.1975 -1.4831 -1.0121
19101THY    HP358297   7.951   2.522   3.732  1.2765  0.9267 -0.4720
19101THY    HP458298   7.976   2.484   3.564  0.0818 -1.5523  1.5263
19101THY    CP358299   8.176   2.367   3.685 -0.6202 -0.0917  1.0368
19101THY    HP558300   8.122   2.315   3.765 -0.3980 -0.4924  0.1559
19101THY    HP658301   8.281   2.338   3.703 -0.7423  3.5646  2.3185
19101THY    HP758302   8.158   2.323   3.587 -0.0353 -0.1062  0.8185
19101THY    CA358303   8.141   2.605   3.907  0.0824 -0.2793 -1.2617
19101THY    HA358304   8.044   2.557   3.920  1.0889  1.6212 -2.9370
19101THY    CA458305   8.186   2.690   4.011  0.5333 -0.0099  1.1607
19101THY    HA458306   8.137   2.713   4.105  4.1300  2.0254  1.2583
19101THY    CA558307   8.309   2.752   4.001  0.1498 -0.5528  0.2865
19101THY    CM158308   8.359   2.824   4.121 -0.5014 -0.7843  0.1666
19101THY    HM158309   8.294   2.810   4.209  0.2128 -0.3889 -0.7529
19101THY    HM258310   8.368   2.932   4.106 -0.1552 -0.7914  0.1392
19101THY    HM358311   8.455   2.782   4.154 -0.4544  1.2254  1.6841
19101THY    CA658312   8.387   2.738   3.890  0.3826 -0.5217 -0.2618
19101THY    HA658313   8.486   2.781   3.886  0.4732  2.0449 -0.1056
19102THY      O58314   5.378   5.487   5.120 -1.1332 -0.1944  0.1273
19102THY     HO58315   5.470   5.472   5.092 -0.2290  2.1994  0.7628
19102THY    CA158316   5.353   5.607   5.063 -0.3264  0.2615 -0.5833
19102THY    CA258317   5.253   5.688   5.114 -0.4149 -0.8141 -0.0219
19102THY    CP158318   5.164   5.651   5.228  0.1320 -0.4549  0.2898
19102THY    HP158319   5.189   5.547   5.254  2.7316  0.8019  1.1321
19102THY    CP258320   5.014   5.654   5.209 -1.0723 -0.3667 -0.1418
19102THY    HP258321   4.958   5.634   5.301 -0.9031 -0.1386  0.4088
19102THY    HP358322   4.997   5.568   5.144 -1.7075  2.7955 -2.5923
19102THY    HP458323   4.989   5.755   5.175  1.4241  0.6308  0.8958
19102THY    CP358324   5.198   5.730   5.357 -0.3275  0.0641 -0.2026
19102THY    HP558325   5.173   5.836   5.358  1.1665 -0.0232  0.1748
19102THY    HP658326   5.306   5.721   5.375 -0.3485  0.2167 -0.1607
19102THY    HP758327   5.152   5.689   5.448  1.4430  1.2540  0.3346
19102THY    CA358328   5.247   5.819   5.073 -0.0082 -0.2062  0.8297
19102THY    HA358329   5.180   5.891   5.119  1.6679  3.2256  0.3939
19102THY    CA458330   5.315   5.858   4.954  0.2198 -0.1482  0.5496
19102THY    HA458331   5.295   5.957   4.913 -0.3402 -1.5272 -0.1272
19102THY    CA558332   5.413   5.778   4.895  0.1736 -0.5373 -0.2708
19102THY    CM158333   5.480   5.826   4.772 -0.6340  0.0976  0.0220
19102THY    HM158334   5.580   5.864   4.797 -0.1708  0.3824 -1.3422
19102THY    HM258335   5.436   5.909   4.716  0.3031  0.1331  0.5676
19102THY    HM358336   5.488   5.749   4.695 -4.5019 -1.2126  0.6876
19102THY    CA658337   5.434   5.651   4.954 -0.0390  0.2235  0.4265
19102THY    HA658338   5.503   5.582   4.906  0.1532 -0.3282  1.0002
19103THY      O58339   0.994   4.489   7.289 -0.1368 -0.2207  0.4323
19103THY     HO58340   0.951   4.574   7.273 -3.4477 -0.3805 -1.1056
19103THY    CA158341   0.925   4.395   7.219  0.9318  0.1399 -0.2834
19103THY    CA258342   0.970   4.263   7.198 -0.1738  0.0281  0.4354
19103THY    CP158343   1.103   4.216   7.269 -0.1503 -0.5602 -0.9078
19103THY    HP158344   1.114   4.275   7.361  0.2657 -0.7522 -0.6824
19103THY    CP258345   1.232   4.247   7.189 -0.1450  0.3862  0.0764
19103THY    HP258346   1.317   4.228   7.255  1.3146 -1.9673 -2.1090
19103THY    HP358347   1.236   4.355   7.171 -1.5028 -1.3488 -0.1235
19103THY    HP458348   1.247   4.182   7.103  2.1971 -0.2810  1.3753
19103THY    CP358349   1.103   4.072   7.316 -0.3110 -0.1987 -0.2243
19103THY    HP558350   1.140   4.001   7.241  1.0975  1.1261 -0.9667
19103THY    HP658351   1.001   4.044   7.342 -0.8141 -2.6057 -0.8285
19103THY    HP758352   1.172   4.052   7.400 -2.2218  1.1566 -1.4829
19103THY    CA358353   0.902   4.172   7.115  0.2342  0.3923 -0.7295
19103THY    HA358354   0.953   4.079   7.092  0.4262  2.4032 -1.1763
19103THY    CA458355   0.786   4.215   7.052  0.4845 -0.8438  0.4800
19103THY    HA458356   0.734   4.149   6.984 -0.5686  0.3008  0.0877
19103THY    CA558357   0.732   4.342   7.078 -0.2980  0.1943  0.1605
19103THY    CM158358   0.617   4.392   6.992  0.1766 -0.5291 -0.4754
19103THY    HM158359   0.565   4.299   6.966  1.6397  0.1371 -1.5286
19103THY    HM258360   0.651   4.456   6.910 -1.3315 -1.0184 -0.2502
19103THY    HM358361   0.555   4.454   7.057  0.3959  0.7878 -1.5850
19103THY    CA658362   0.804   4.433   7.161  0.2371 -0.5537 -0.3948
19103THY    HA658363   0.759   4.531   7.175 -1.0224 -0.8097 -0.9147
19104THY      O58364   4.988   3.528   4.971  0.4478 -0.3038  0.4159
19104THY     HO58365   5.044   3.466   5.022  0.2679  1.7597  1.8477
19104THY    CA158366   4.862   3.512   5.018 -0.0786  0.0994  0.1200
19104THY    CA258367   4.749   3.575   4.958  0.5792 -0.0301 -0.1825
19104THY    CP158368   4.742   3.649   4.826  0.1030 -0.1841 -0.3604
19104THY    HP158369   4.842   3.652   4.780  0.2203  0.0623  2.0146
19104THY    CP258370   4.681   3.798   4.839 -0.6504 -0.3696  0.2578
19104THY    HP258371   4.599   3.808   4.911 -1.1378 -0.8744 -0.0238
19104THY    HP358372   4.647   3.825   4.739 -1.8645 -0.3472 -1.0370
19104THY    HP458373   4.752   3.876   4.866  0.8316 -0.7754 -0.9010
19104THY    CP358374   4.664   3.573   4.727  0.0744  0.1728 -1.2325
19104THY    HP558375   4.567   3.535   4.758 -0.1223  0.3885 -0.5656
19104THY    HP658376   4.716   3.481   4.696 -1.0492 -1.0550 -1.4878
19104THY    HP758377   4.655   3.621   4.629 -1.5839  1.0300  0.2693
19104THY    CA358378   4.624   3.559   5.025 -0.1671 -0.4824 -0.3702
19104THY    HA358379   4.538   3.603   4.975 -1.4804 -1.6969 -3.9465
19104THY    CA458380   4.617   3.483   5.140 -0.2090  0.9104 -0.0087
19104THY    HA458381   4.524   3.463   5.191 -1.0974  0.6917  3.0994
19104THY    CA558382   4.730   3.430   5.201  0.0125 -0.4608 -0.2873
19104THY    CM158383   4.714   3.347   5.339  0.3799 -0.1757  0.3905
19104THY    HM158384   4.670   3.404   5.421 -0.6926  0.6935 -1.5717
19104THY    HM258385   4.812   3.318   5.378  1.0745 -2.2729 -0.3178
19104THY    HM358386   4.649   3.260   5.325 -1.0436  0.8857  1.2511
19104THY    CA658387   4.856   3.446   5.143 -0.7222 -0.4562  1.0363
19104THY    HA658388   4.942   3.403   5.192 -1.4460  0.1747  0.2774
19105THY      O58389   1.646   0.553   6.146  0.5354 -0.1798 -0.4917
19105THY     HO58390   1.581   0.497   6.192  0.2663  0.2149  0.1389
19105THY    CA158391   1.569   0.652   6.097  0.3009 -0.3936  0.0786
19105THY    CA258392   1.630   0.755   6.021  0.0559  0.8151  0.4737
19105THY    CP158393   1.785   0.762   6.000  0.2627  0.3756  0.3230
19105THY    HP158394   1.830   0.694   6.074 -0.0633  1.8169  1.6228
19105THY    CP258395   1.841   0.902   6.004 -0.2327 -0.8204  0.2949
19105THY    HP258396   1.804   0.953   6.094  1.4399  0.0121  0.1037
19105THY    HP358397   1.826   0.955   5.910  0.5126  0.0972  2.2468
19105THY    HP458398   1.948   0.900   6.029 -0.8667  2.4192 -1.0969
19105THY    CP358399   1.819   0.692   5.861 -0.4850  0.2036 -0.7405
19105THY    HP558400   1.773   0.592   5.872 -0.6575  0.0403 -0.6789
19105THY    HP658401   1.924   0.687   5.830 -0.2851  0.8964 -1.0277
19105THY    HP758402   1.763   0.738   5.779 -2.9222  0.8942 -2.2758
19105THY    CA358403   1.538   0.848   5.964  1.0393 -0.0676 -0.4284
19105THY    HA358404   1.567   0.919   5.887 -0.6779 -0.3646  0.0069
19105THY    CA458405   1.393   0.843   5.985 -0.6622 -0.4737 -0.8110
19105THY    HA458406   1.323   0.915   5.946  0.6447  0.3761  1.0027
19105THY    CA558407   1.345   0.744   6.064 -0.2146 -0.3284  0.4103
19105THY    CM158408   1.200   0.734   6.081  0.1847 -0.2104 -0.9263
19105THY    HM158409   1.166   0.698   6.179 -1.7265 -0.1526  0.8120
19105THY    HM258410   1.150   0.668   6.009 -1.1569 -0.9414  0.8068
19105THY    HM358411   1.162   0.836   6.069  1.5913 -0.9226 -0.4663
19105THY    CA658412   1.430   0.643   6.121  0.4333 -0.3392  0.4367
19105THY    HA658413   1.388   0.566   6.184  1.2568  0.2461  0.4638
19106THY      O58414   8.361   4.796   4.256 -0.6844  0.2124  0.3045
19106THY     HO58415   8.308   4.789   4.175 -1.3418  0.6818 -0.1975
19106THY    CA158416   8.319   4.705   4.344 -0.6444 -0.0771 -0.4705
19106THY    CA258417   8.399   4.658   4.452 -0.1067  0.8629 -0.0822
19106THY    CP158418   8.545   4.695   4.463  0.6670  0.0146  0.5711
19106THY    HP158419   8.560   4.782   4.397  1.4939 -2.0007 -1.0076
19106THY    CP258420   8.645   4.586   4.416  0.5513 -0.5544  0.6439
19106THY    HP258421   8.744   4.629   4.400  0.5608 -2.3827  0.0476
19106THY    HP358422   8.597   4.548   4.325  0.6830  0.2074 -1.5091
19106THY    HP458423   8.648   4.496   4.479 -1.5259 -1.2210  0.0298
19106THY    CP358424   8.587   4.741   4.612  0.0181  0.5160  0.3708
19106THY    HP558425   8.502   4.795   4.655 -1.7060 -0.0462 -1.7425
19106THY    HP658426   8.680   4.799   4.607  1.7553 -0.5758 -2.3008
19106THY    HP758427   8.605   4.652   4.673 -1.7078 -1.9081 -1.7751
19106THY    CA358428   8.343   4.572   4.548 -0.1900  0.6373 -0.3664
19106THY    HA358429   8.402   4.534   4.630 -1.7973  1.8221 -0.4227
19106THY    CA458430   8.213   4.529   4.530  0.3087  0.4650  0.6180
19106THY    HA458431   8.178   4.447   4.592  1.2266 -1.2917 -1.1610
19106THY    CA558432   8.133   4.572   4.424 -0.8073 -0.0970  0.2385
19106THY    CM158433   7.984   4.528   4.406 -1.0954  0.8684 -0.5073
19106THY    HM158434   7.937   4.578   4.320 -0.8485  1.1617  0.2343
19106THY    HM258435   7.925   4.551   4.495 -1.3727  1.0963 -1.9981
19106THY    HM358436   7.974   4.420   4.388 -1.3205 -0.0239 -0.3444
19106THY    CA658437   8.184   4.659   4.331  0.4471  0.3467  0.4837
19106THY    HA658438   8.120   4.703   4.255  0.5217 -0.0674 -0.1114
19107THY      O58439   2.609   1.465   5.454  0.2159  0.5134  0.1356
19107THY     HO58440   2.538   1.506   5.507 -0.8925  1.0920 -2.3582
19107THY    CA158441   2.731   1.491   5.506 -0.5389 -0.1828  1.0003
19107THY    CA258442   2.802   1.378   5.555  0.0239 -0.6408  0.4731
19107THY    CP158443   2.733   1.234   5.567 -0.3163  0.6416  0.1302
19107THY    HP158444   2.629   1.248   5.537 -0.7151  1.5473 -0.8236
19107THY    CP258445   2.734   1.168   5.698 -0.7180 -0.0357  0.0450
19107THY    HP258446   2.654   1.216   5.756  0.6319 -0.3277  2.8801
19107THY    HP358447   2.825   1.185   5.758 -0.8422  0.1561  0.0299
19107THY    HP458448   2.724   1.059   5.697  1.0318  0.3829 -0.1563
19107THY    CP358449   2.798   1.141   5.462 -0.3577  0.6076 -0.1693
19107THY    HP558450   2.748   1.045   5.445  0.2708  2.7470 -0.9366
19107THY    HP658451   2.905   1.133   5.483 -0.0920 -0.1878  1.0466
19107THY    HP758452   2.787   1.187   5.363 -0.9741 -0.0116 -1.5830
19107THY    CA358453   2.934   1.401   5.595 -0.8567  0.9207 -0.6906
19107THY    HA358454   2.994   1.312   5.611 -0.1328  0.7255 -0.2442
19107THY    CA458455   3.001   1.522   5.584  0.3155 -0.2084 -0.0357
19107THY    HA458456   3.109   1.530   5.592  0.3861  1.0760 -1.6531
19107THY    CA558457   2.918   1.636   5.546 -0.1720  0.3243  0.3354
19107THY    CM158458   2.974   1.772   5.564  0.2864  0.7711  0.1304
19107THY    HM158459   3.078   1.767   5.530  0.6768  1.8082  0.8244
19107THY    HM258460   2.981   1.801   5.670  0.2649  0.3855  1.6052
19107THY    HM358461   2.913   1.846   5.512 -1.3470  1.0804 -0.9384
19107THY    CA658462   2.787   1.610   5.511  0.4928  0.2301 -0.0256
19107THY    HA658463   2.723   1.694   5.485 -2.9901  0.9416 -2.2197
19108THY      O58464   7.284   8.485   6.703 -0.1374 -0.5831  0.0225
19108THY     HO58465   7.249   8.394   6.701  0.1212 -3.5641 -0.1080
19108THY    CA158466   7.183   8.569   6.734  0.5490  0.0891 -0.8334
19108THY    CA258467   7.179   8.702   6.678  0.2503 -0.3504 -0.2606
19108THY    CP158468   7.289   8.741   6.582 -0.2924  0.5635 -0.0682
19108THY    HP158469   7.329   8.648   6.540  2.2833  1.6269  0.4894
19108THY    CP258470   7.395   8.816   6.663  0.2653 -0.1890  0.3418
19108THY    HP258471   7.408   8.759   6.755  2.4249 -0.0615  0.9284
19108THY    HP358472   7.358   8.918   6.682 -1.5791  1.3325 -0.5619
19108THY    HP458473   7.498   8.815   6.623  0.5659  0.5420  1.0863
19108THY    CP358474   7.234   8.822   6.452  0.1552 -0.0228 -0.2510
19108THY    HP558475   7.316   8.845   6.382 -0.4210 -0.7782 -0.4858
19108THY    HP658476   7.202   8.924   6.478  0.5041 -0.9154  0.0909
19108THY    HP758477   7.153   8.774   6.398 -0.1240 -0.4875  0.7097
19108THY    CA358478   7.082   8.788   6.722 -0.0715  0.1196 -0.1017
19108THY    HA358479   7.084   8.885   6.672  0.0193  0.1406 -0.0923
19108THY    CA458480   6.993   8.754   6.829  0.1445 -0.0950  0.1565
19108THY    HA458481   6.911   8.821   6.854 -0.2965 -0.2141 -0.3393
19108THY    CA558482   7.009   8.628   6.891  1.0189 -0.1026 -0.0114
19108THY    CM158483   6.918   8.579   7.005 -0.6812 -0.0352  0.5428
19108THY    HM158484   6.962   8.497   7.064 -1.7454  0.5716  0.3995
19108THY    HM258485   6.830   8.545   6.950 -0.8883 -0.0190  1.0416
19108THY    HM358486   6.895   8.655   7.081 -0.9637 -0.9081  1.3479
19108THY    CA658487   7.099   8.534   6.841 -0.2835  0.3897  0.2263
19108THY    HA658488   7.102   8.434   6.883 -2.5369  0.5635  0.1879
19109THY      O58489   5.037   1.667   3.318  0.1348 -0.1182 -0.1378
19109THY     HO58490   5.114   1.725   3.309 -0.0392 -0.2854  0.0698
19109THY    CA158491   4.988   1.700   3.444  0.0067  0.4061 -0.9751
19109THY    CA258492   4.857   1.677   3.473  0.9776 -0.4185 -0.3053
19109THY    CP158493   4.761   1.617   3.380  0.1326 -0.1246  0.1544
19109THY    HP158494   4.817   1.564   3.302  2.2044  0.1220  1.8609
19109THY    CP258495   4.685   1.732   3.301 -0.5630 -0.0422  0.0790
19109THY    HP258496   4.612   1.680   3.237  1.4296 -1.3489 -1.2485
19109THY    HP358497   4.756   1.801   3.256  1.1250  1.8092 -0.3627
19109THY    HP458498   4.629   1.795   3.372 -0.8860 -2.1011  2.2388
19109THY    CP358499   4.670   1.513   3.443 -0.4065 -0.4280  0.0222
19109THY    HP558500   4.599   1.556   3.515  0.7225  3.0189 -3.2651
19109THY    HP658501   4.731   1.455   3.514 -0.3340  0.4336  1.0970
19109THY    HP758502   4.616   1.450   3.372 -1.1964  1.7175 -1.8492
19109THY    CA358503   4.814   1.714   3.601 -0.7328  0.1578  0.8374
19109THY    HA358504   4.717   1.692   3.646  0.1914  1.1088 -1.6566
19109THY    CA458505   4.910   1.771   3.686  0.0477  0.4138  0.2993
19109THY    HA458506   4.882   1.800   3.786  4.1266  1.5898  0.7778
19109THY    CA558507   5.048   1.785   3.653  0.7999  0.4877 -0.0766
19109THY    CM158508   5.154   1.838   3.755 -0.2430  0.0543 -0.1163
19109THY    HM158509   5.185   1.764   3.830 -1.6058 -0.2990 -1.0970
19109THY    HM258510   5.111   1.921   3.812 -0.1236  0.4340 -0.3120
19109THY    HM358511   5.242   1.884   3.709  1.6565  1.4624 -2.1177
19109THY    CA658512   5.087   1.753   3.527 -0.5838  0.0775  0.9649
19109THY    HA658513   5.191   1.757   3.495 -0.6829 -0.6516 -1.0225
19110THY      O58514   8.531   5.527   2.369 -0.3090 -0.1028 -0.1079
19110THY     HO58515   8.599   5.475   2.324  0.4097 -2.6403  2.7404
19110THY    CA158516   8.587   5.647   2.359  0.0760 -0.2359 -0.5150
19110THY    CA258517   8.501   5.761   2.364 -0.1914 -0.7026 -0.2315
19110THY    CP158518   8.351   5.744   2.397 -0.1020 -0.0988 -0.9877
19110THY    HP158519   8.326   5.667   2.471 -1.5955 -0.1557 -0.6045
19110THY    CP258520   8.270   5.721   2.274  0.0105 -0.0255 -0.1336
19110THY    HP258521   8.163   5.702   2.291  0.2968  1.2444 -0.7160
19110THY    HP358522   8.300   5.637   2.211 -0.5939 -1.1223  0.4489
19110THY    HP458523   8.272   5.812   2.212 -0.9728 -0.5652 -0.4674
19110THY    CP358524   8.286   5.873   2.466 -0.6292 -0.6797  0.2053
19110THY    HP558525   8.187   5.853   2.509 -0.6227 -2.1498 -4.0091
19110THY    HP658526   8.275   5.956   2.395 -4.3893  0.1366  0.5658
19110THY    HP758527   8.355   5.919   2.539  0.4398 -0.6321 -1.3994
19110THY    CA358528   8.552   5.890   2.323  0.9315  0.0667  0.6990
19110THY    HA358529   8.475   5.965   2.303 -1.4154  1.2540 -1.2448
19110THY    CA458530   8.683   5.897   2.300 -0.1011  0.5692 -0.9626
19110THY    HA458531   8.733   5.993   2.295 -1.1408  1.0986 -0.3867
19110THY    CA558532   8.773   5.791   2.316 -0.0614  0.4742  0.2151
19110THY    CM158533   8.915   5.794   2.288  0.2823  0.1174 -0.1499
19110THY    HM158534   8.934   5.901   2.274  0.2204  2.7192  0.2577
19110THY    HM258535   8.949   5.738   2.200 -0.4952 -1.1179  1.2483
19110THY    HM358536   8.968   5.746   2.372  1.7814 -1.1750 -0.8587
19110THY    CA658537   8.723   5.661   2.334  0.0804 -0.4302 -0.2905
19110THY    HA658538   8.784   5.571   2.338 -1.8746 -0.0196 -1.6740
19111THY      O58539   0.877   1.318   2.450 -0.3737  0.3674 -0.0523
19111THY     HO58540   0.804   1.288   2.507 -0.0146  0.8302 -0.0525
19111THY    CA158541   0.984   1.303   2.537  0.0298 -0.0718  0.8276
19111THY    CA258542   1.116   1.268   2.490  0.5568 -0.4028 -0.8260
19111THY    CP158543   1.146   1.287   2.335  0.0444  0.3058  0.3059
19111THY    HP158544   1.096   1.380   2.303 -1.2859  1.1418 -0.0952
19111THY    CP258545   1.084   1.172   2.264 -0.4422  0.3943  0.6188
19111THY    HP258546   1.123   1.078   2.305 -1.7295  1.3255  0.4604
19111THY    HP358547   1.110   1.189   2.159 -0.6333  0.5082  1.6622
19111THY    HP458548   0.974   1.172   2.268 -0.5511 -0.3832 -2.3921
19111THY    CP358549   1.295   1.303   2.292  0.6123  0.0507 -0.1995
19111THY    HP558550   1.311   1.334   2.188  0.9396  0.0329 -0.4246
19111THY    HP658551   1.336   1.202   2.295 -1.5458 -1.5313 -1.1895
19111THY    HP758552   1.354   1.373   2.353 -1.2591 -2.1164  3.5645
19111THY    CA358553   1.216   1.240   2.586 -0.6051  0.1590  0.1645
19111THY    HA358554   1.319   1.220   2.557  0.1985  2.2479  0.9655
19111THY    CA458555   1.183   1.238   2.722 -0.0465 -0.4786 -0.7562
19111THY    HA458556   1.271   1.213   2.780  0.1947 -0.5876 -0.1931
19111THY    CA558557   1.053   1.259   2.763  0.2280  0.0141  0.0700
19111THY    CM158558   1.014   1.228   2.903 -0.3206  0.4416 -0.5157
19111THY    HM158559   1.072   1.295   2.969 -0.5524 -0.8783  1.0695
19111THY    HM258560   1.064   1.132   2.919  2.9433  0.0471  0.9465
19111THY    HM358561   0.908   1.229   2.927 -0.8198 -1.4849  1.2341
19111THY    CA658562   0.951   1.295   2.674 -0.4709  0.1171  0.6868
19111THY    HA658563   0.848   1.303   2.707 -1.3298 -2.6077  2.2822
19112THY      O58564   6.076   0.313   2.854  0.1066 -0.1031 -0.0023
19112THY     HO58565   6.068   0.216   2.848 -1.1455 -1.0075  0.1306
19112THY    CA158566   6.043   0.361   2.733 -0.4301 -0.3476  0.4885
19112THY    CA258567   6.030   0.500   2.711  0.4438 -0.1316 -0.1368
19112THY    CP158568   6.041   0.597   2.827  0.1706  0.1330  0.1380
19112THY    HP158569   6.135   0.581   2.880  0.9125 -0.4533  2.1833
19112THY    CP258570   5.929   0.589   2.932 -0.1173 -0.6206 -0.5627
19112THY    HP258571   5.829   0.616   2.897  0.1954  1.0101  3.2873
19112THY    HP358572   5.946   0.658   3.015  1.9776 -0.6878 -0.9129
19112THY    HP458573   5.906   0.492   2.978  0.9441 -0.5237 -0.7839
19112THY    CP358574   6.056   0.749   2.801  0.3501  0.5128  0.0780
19112THY    HP558575   5.957   0.790   2.779  1.0447  3.2288  3.7303
19112THY    HP658576   6.124   0.772   2.718  0.7197  0.6864 -0.3778
19112THY    HP758577   6.090   0.800   2.892  0.7402 -0.7321  2.1640
19112THY    CA358578   5.986   0.541   2.582  0.4892 -0.2599  0.6241
19112THY    HA358579   5.971   0.645   2.554 -1.3244 -0.8008  0.2444
19112THY    CA458580   5.956   0.444   2.477 -0.4100 -0.3862 -0.4358
19112THY    HA458581   5.913   0.481   2.384 -1.9822  0.3611 -0.3246
19112THY    CA558582   5.979   0.303   2.506 -0.6231  0.0357  0.1492
19112THY    CM158583   5.953   0.201   2.396  0.1109 -0.0143 -0.8792
19112THY    HM158584   5.913   0.109   2.442  3.1383  1.9283 -1.3655
19112THY    HM258585   6.047   0.180   2.343  0.9309  1.5011 -1.1551
19112THY    HM358586   5.877   0.226   2.320  1.3488 -1.0185 -0.0419
19112THY    CA658587   6.023   0.265   2.633 -0.4505  0.6512  0.0709
19112THY    HA658588   6.037   0.160   2.654 -1.0651  0.9964  0.0537
19113THY      O58589   1.390   1.853   4.914 -0.4633 -0.0771 -0.1557
19113THY     HO58590   1.417   1.765   4.945 -0.0888 -0.7591 -0.2887
19113THY    CA158591   1.507   1.927   4.925 -0.4167 -0.9148 -0.2650
19113THY    CA258592   1.517   2.063   4.895 -0.0779 -0.1670  0.1709
19113THY    CP158593   1.400   2.144   4.846  0.0504  1.0631  0.4707
19113THY    HP158594   1.309   2.100   4.889  1.2150  1.7111 -1.3759
19113THY    CP258595   1.383   2.126   4.688 -0.2791 -0.2145 -0.1085
19113THY    HP258596   1.471   2.172   4.643  0.5758  1.7025  0.2205
19113THY    HP358597   1.292   2.169   4.643  1.1194 -1.1880  2.0146
19113THY    HP458598   1.397   2.020   4.666  2.5745 -3.8917  0.8199
19113THY    CP358599   1.396   2.296   4.894  0.0283  0.8135 -0.3091
19113THY    HP558600   1.312   2.347   4.845 -0.6587  3.0584  0.8386
19113THY    HP658601   1.484   2.354   4.867  2.6309 -0.7047 -4.5254
19113THY    HP758602   1.379   2.302   5.002 -1.8019  0.4995  1.2558
19113THY    CA358603   1.645   2.129   4.911  0.5902 -0.4276  0.1913
19113THY    HA358604   1.656   2.233   4.882 -0.8986  0.4256  0.6101
19113THY    CA458605   1.757   2.063   4.942  0.0052 -1.0999  0.5939
19113THY    HA458606   1.856   2.106   4.939  0.9592  2.0965 -1.0524
19113THY    CA558607   1.746   1.922   4.970  0.0015 -0.1284 -0.0342
19113THY    CM158608   1.872   1.840   4.983 -0.0550 -0.0637  0.0558
19113THY    HM158609   1.966   1.896   4.990  0.7682  1.8752 -1.4408
19113THY    HM258610   1.884   1.753   4.918  2.5471  1.6867 -1.0223
19113THY    HM358611   1.877   1.783   5.077  0.7524  0.4236  0.9190
19113THY    CA658612   1.626   1.856   4.956  0.0253  0.3296  0.5283
19113THY    HA658613   1.618   1.750   4.976 -1.1562  1.6840  0.8314
19114THY      O58614   4.700   5.843   4.055 -0.0253 -0.2111  0.5511
19114THY     HO58615   4.757   5.873   3.981  1.6253  1.2155  1.0732
19114THY    CA158616   4.629   5.735   4.020 -0.3782  0.6379  0.5089
19114THY    CA258617   4.569   5.657   4.118 -0.2841 -0.0139  0.2152
19114THY    CP158618   4.591   5.693   4.267  0.0302 -1.1780 -0.1039
19114THY    HP158619   4.586   5.802   4.276 -1.1299 -1.0710 -0.1586
19114THY    CP258620   4.726   5.646   4.333  0.8662  0.2137 -0.2129
19114THY    HP258621   4.719   5.537   4.329  0.9295 -3.4268 -0.2091
19114THY    HP358622   4.733   5.674   4.438  0.6927  0.2063 -0.1350
19114THY    HP458623   4.819   5.666   4.279  0.1999 -0.6239  0.7491
19114THY    CP358624   4.481   5.650   4.370  0.3657  0.1697  0.3109
19114THY    HP558625   4.393   5.667   4.308  2.0386 -1.7299  2.7021
19114THY    HP658626   4.466   5.721   4.452 -0.5293 -1.2489  1.8324
19114THY    HP758627   4.478   5.544   4.398  0.4099  1.1021  0.5401
19114THY    CA358628   4.494   5.548   4.083  0.2376  0.3515  0.5836
19114THY    HA358629   4.447   5.482   4.155 -0.1781 -1.2930 -1.0348
19114THY    CA458630   4.473   5.522   3.949 -0.1507 -0.1439  0.1505
19114THY    HA458631   4.414   5.431   3.938  0.0941  4.3416 -0.8135
19114THY    CA558632   4.532   5.595   3.850  0.2208  0.6105 -0.4171
19114THY    CM158633   4.515   5.549   3.697  0.1469 -0.4761 -0.4198
19114THY    HM158634   4.416   5.502   3.684  0.2002  0.9630 -0.9968
19114THY    HM258635   4.595   5.485   3.660 -0.3550 -0.6815 -0.9424
19114THY    HM358636   4.496   5.632   3.628 -0.8328  0.6009  0.2869
19114THY    CA658637   4.611   5.701   3.887  0.3317  0.0039 -0.7818
19114THY    HA658638   4.671   5.754   3.814  1.0735  1.0444 -0.1443
19115THY      O58639   1.987   5.143   7.373  0.1998  0.0289  0.8519
19115THY     HO58640   1.974   5.222   7.428 -0.7900  2.3651 -0.8321
19115THY    CA158641   1.860   5.126   7.319  0.3802  0.3303  0.7292
19115THY    CA258642   1.831   5.031   7.220  0.5186 -0.6583  0.2005
19115THY    CP158643   1.933   4.932   7.177 -0.2135  0.1119  0.6675
19115THY    HP158644   2.003   4.924   7.261  0.2198 -0.1135  1.9268
19115THY    CP258645   2.014   4.985   7.059 -0.6709  0.0047 -0.1378
19115THY    HP258646   2.119   4.953   7.066 -1.2729  2.1276 -1.8750
19115THY    HP358647   2.020   5.094   7.071 -0.5668  4.2252 -0.4593
19115THY    HP458648   1.967   4.961   6.963 -1.0934  0.2897 -0.4754
19115THY    CP358649   1.897   4.785   7.155  0.2578 -0.3589 -0.1778
19115THY    HP558650   1.842   4.744   7.240  1.1298  0.2773 -0.0456
19115THY    HP658651   1.985   4.726   7.128  0.9921  0.8738  0.3404
19115THY    HP758652   1.829   4.771   7.070 -1.0189  0.3633  1.3172
19115THY    CA358653   1.695   5.017   7.172 -0.7362  0.1209  0.4699
19115THY    HA358654   1.666   4.943   7.098  1.3130  0.4299 -0.7338
19115THY    CA458655   1.606   5.111   7.205  0.6742 -0.5986  0.5716
19115THY    HA458656   1.505   5.112   7.165 -0.4123  1.9033 -0.6047
19115THY    CA558657   1.637   5.212   7.297 -0.1982  0.4011  0.5848
19115THY    CM158658   1.536   5.314   7.338 -0.4510  0.5164  0.6247
19115THY    HM158659   1.579   5.414   7.323 -1.8729 -0.3792  1.1424
19115THY    HM258660   1.510   5.303   7.443 -0.8033  0.3208 -0.4835
19115THY    HM358661   1.439   5.295   7.290  0.6204 -0.9115 -1.6194
19115THY    CA658662   1.766   5.218   7.350 -0.0121 -0.2440  0.0294
19115THY    HA658663   1.789   5.295   7.423  1.3911  1.1682 -1.6320
19116THY      O58664   3.057   5.385   3.632  0.2050 -0.1078  0.9564
19116THY     HO58665   3.079   5.290   3.636  1.6843  0.7365  1.2997
19116THY    CA158666   3.084   5.427   3.510  0.2969  0.7749  0.9238
19116THY    CA258667   3.016   5.540   3.454 -0.0338  0.1389  0.1297
19116THY    CP158668   2.913   5.610   3.535  0.4434  0.0314  0.3377
19116THY    HP158669   2.867   5.544   3.609  0.7265 -0.1871 -0.1065
19116THY    CP258670   2.790   5.656   3.455 -1.1842 -0.1165 -0.5702
19116THY    HP258671   2.706   5.675   3.523 -0.8954 -0.0783  0.6261
19116THY    HP358672   2.764   5.583   3.378 -2.1143 -1.5002  1.1536
19116THY    HP458673   2.792   5.751   3.401  0.0568  0.8391 -0.0119
19116THY    CP358674   2.973   5.718   3.617 -0.0040 -0.6248 -0.6310
19116THY    HP558675   3.010   5.786   3.539  0.4471 -0.0037 -0.1510
19116THY    HP658676   3.056   5.675   3.673  1.3407 -1.2258  1.0768
19116THY    HP758677   2.901   5.755   3.691  0.6507  1.0491 -2.5169
19116THY    CA358678   3.041   5.572   3.317  0.1261  0.8094 -0.1889
19116THY    HA358679   2.976   5.640   3.264  0.0055 -0.8948 -1.5499
19116THY    CA458680   3.132   5.494   3.242 -0.3617 -0.0058  0.0436
19116THY    HA458681   3.161   5.523   3.141  0.5674  0.3536  0.4384
19116THY    CA558682   3.202   5.382   3.301 -0.3006  0.2505  0.6214
19116THY    CM158683   3.309   5.303   3.227  1.2441 -0.0289 -0.6513
19116THY    HM158684   3.320   5.330   3.121  3.6640 -0.0770 -1.5320
19116THY    HM258685   3.298   5.194   3.237  2.0694 -3.0366 -1.1205
19116THY    HM358686   3.402   5.339   3.271  0.8750 -0.2102  0.5535
19116THY    CA658687   3.177   5.349   3.433 -0.1903 -0.7998 -0.1184
19116THY    HA658688   3.226   5.266   3.483 -2.0953 -0.6498 -1.2234
19117THY      O58689   2.430   2.976   4.523  0.3119  0.1026  0.0503
19117THY     HO58690   2.493   3.046   4.549  0.6841  1.7904 -0.8651
19117THY    CA158691   2.308   3.026   4.541  0.1343 -0.1362 -0.2453
19117THY    CA258692   2.189   2.952   4.556  0.3426  0.3100  0.3601
19117THY    CP158693   2.201   2.799   4.534  1.1952 -0.2919 -0.0468
19117THY    HP158694   2.301   2.755   4.525  0.6600  0.6021 -1.5104
19117THY    CP258695   2.131   2.778   4.394  0.0376  0.4286  0.1262
19117THY    HP258696   2.176   2.832   4.310 -1.3171  1.0153  2.3299
19117THY    HP358697   2.034   2.829   4.386  0.9795 -2.3296  1.7490
19117THY    HP458698   2.111   2.676   4.361 -0.0357 -1.3934  0.6953
19117THY    CP358699   2.131   2.718   4.644 -0.2667 -1.3308  0.3553
19117THY    HP558700   2.025   2.742   4.647 -0.4763  2.4098 -0.3868
19117THY    HP658701   2.169   2.731   4.747 -1.8680 -0.8025  1.0466
19117THY    HP758702   2.147   2.615   4.609 -0.7916 -0.2135 -0.1220
19117THY    CA358703   2.062   3.013   4.586  0.3803  0.0036 -0.2778
19117THY    HA358704   1.971   2.956   4.601 -0.6097  2.3517  1.7370
19117THY    CA458705   2.064   3.150   4.610  0.2672 -0.6558 -0.1522
19117THY    HA458706   1.977   3.204   4.645  0.1706 -1.1151 -0.0067
19117THY    CA558707   2.180   3.219   4.599  0.0495 -0.1672  0.9644
19117THY    CM158708   2.189   3.361   4.651  0.5895 -0.1232  0.5515
19117THY    HM158709   2.108   3.427   4.617 -0.6961  1.9443  0.1303
19117THY    HM258710   2.286   3.406   4.627  0.8772  0.4427  0.2457
19117THY    HM358711   2.194   3.364   4.760  0.2041 -0.0642 -0.7304
19117THY    CA658712   2.303   3.162   4.566  0.4601 -0.4741 -0.1643
19117THY    HA658713   2.394   3.223   4.563 -1.5414 -1.3088  3.0156
19118THY      O58714   1.318   4.358   3.319  0.4611  0.2714 -0.7103
19118THY     HO58715   1.320   4.452   3.341  0.1591 -1.8174 -0.1641
19118THY    CA158716   1.331   4.284   3.425 -0.0236  0.4629 -0.1295
19118THY    CA258717   1.327   4.142   3.410 -0.6668  0.4920  0.4124
19118THY    CP158718   1.276   4.071   3.285  0.0991  0.2746 -0.0349
19118THY    HP158719   1.307   4.124   3.194 -0.2434  1.1167  1.6883
19118THY    CP258720   1.120   4.058   3.296 -0.3170 -0.3011 -0.6787
19118THY    HP258721   1.083   4.011   3.204  0.0593  0.1604 -1.9436
19118THY    HP358722   1.063   4.149   3.316 -2.5598 -0.5326 -1.9657
19118THY    HP458723   1.094   3.983   3.372 -1.0551 -1.1741 -1.3272
19118THY    CP358724   1.342   3.928   3.267  0.2528  0.4096 -1.1590
19118THY    HP558725   1.304   3.911   3.166  0.4528 -0.2121  1.5541
19118THY    HP658726   1.305   3.851   3.335 -0.0393  0.0339 -1.3481
19118THY    HP758727   1.452   3.937   3.266  0.0812  0.7106  2.6448
19118THY    CA358728   1.358   4.066   3.525  0.4627  0.0741 -0.3063
19118THY    HA358729   1.352   3.957   3.523  2.2616 -1.0070 -0.4335
19118THY    CA458730   1.381   4.128   3.649 -0.5902  0.5185 -0.5626
19118THY    HA458731   1.410   4.063   3.731  2.2132  0.8687  0.9927
19118THY    CA558732   1.404   4.270   3.651 -0.8177 -0.0589  0.8418
19118THY    CM158733   1.455   4.338   3.782 -0.6440  0.3001  0.2379
19118THY    HM158734   1.562   4.328   3.803 -0.6366  0.0446 -0.2643
19118THY    HM258735   1.397   4.290   3.862 -0.1467 -0.2817 -1.4147
19118THY    HM358736   1.439   4.446   3.790  3.1769  0.5038  0.9076
19118THY    CA658737   1.368   4.349   3.548 -0.5262  0.8717  0.2709
19118THY    HA658738   1.394   4.454   3.548 -1.2594 -2.5210  0.5698
19119THY      O58739   5.858   2.281   3.842  0.6055  0.0429  0.1233
19119THY     HO58740   5.945   2.310   3.874  1.0471  1.6284 -2.6971
19119THY    CA158741   5.849   2.336   3.722 -0.3185 -0.0128 -0.0642
19119THY    CA258742   5.727   2.333   3.650  0.2995 -0.2487  0.1140
19119THY    CP158743   5.598   2.284   3.717 -0.4868  0.1637 -0.1980
19119THY    HP158744   5.587   2.283   3.826  1.6548  0.4247 -1.3462
19119THY    CP258745   5.583   2.128   3.679 -0.1512 -0.1390 -0.2223
19119THY    HP258746   5.580   2.106   3.572 -0.9284 -0.0199 -0.7799
19119THY    HP358747   5.484   2.086   3.704  0.2902  0.5998 -0.8390
19119THY    HP458748   5.661   2.067   3.726  0.2090  2.0448  1.7820
19119THY    CP358749   5.485   2.365   3.664  0.3280  0.5848 -0.7465
19119THY    HP558750   5.493   2.465   3.707 -0.5324 -0.6406 -0.1172
19119THY    HP658751   5.384   2.326   3.685 -0.2305 -0.7328 -0.0993
19119THY    HP758752   5.491   2.381   3.556  1.8384  0.6690 -0.6016
19119THY    CA358753   5.729   2.378   3.515 -1.1601  0.2876 -0.5001
19119THY    HA358754   5.649   2.375   3.442 -0.4920 -0.4302 -1.5710
19119THY    CA458755   5.845   2.429   3.461 -1.4424  0.2880 -0.7573
19119THY    HA458756   5.852   2.471   3.361  0.6067  1.2934  1.5387
19119THY    CA558757   5.968   2.432   3.541 -0.6913  0.2901  0.3970
19119THY    CM158758   6.099   2.496   3.500 -0.7899 -0.1870  0.0377
19119THY    HM158759   6.154   2.541   3.583  0.7580 -0.1293 -1.7894
19119THY    HM258760   6.074   2.570   3.423 -1.3772  0.1809  0.2256
19119THY    HM358761   6.168   2.436   3.439  2.6144  1.3046  2.1496
19119THY    CA658762   5.963   2.380   3.671 -0.3800 -0.5254 -0.8930
19119THY    HA658763   6.050   2.387   3.736 -0.3247 -0.3732 -2.6463
19120THY      O58764   9.120   6.346   5.952  0.1242 -0.9167  0.0498
19120THY     HO58765   9.173   6.421   5.984  2.6136 -0.4906 -1.7299
19120THY    CA158766   9.146   6.234   6.022  0.7858  0.6100  0.6803
19120THY    CA258767   9.042   6.144   6.067 -0.2830  0.8227 -0.1292
19120THY    CP158768   8.901   6.172   6.041 -0.3333 -0.0821  0.2062
19120THY    HP158769   8.896   6.240   5.955  0.9877 -0.3295  0.0141
19120THY    CP258770   8.837   6.245   6.162 -0.3987  0.5120  0.8472
19120THY    HP258771   8.842   6.353   6.144 -0.2411  1.4229  0.9951
19120THY    HP358772   8.876   6.216   6.260  0.4533 -0.6511 -2.3958
19120THY    HP458773   8.731   6.221   6.169  0.2969  4.4180 -1.9209
19120THY    CP358774   8.833   6.044   6.001 -0.1744  0.0055 -0.6049
19120THY    HP558775   8.740   6.080   5.957 -0.5376  0.0676 -1.4558
19120THY    HP658776   8.816   5.972   6.082 -0.7083 -0.8330 -1.4482
19120THY    HP758777   8.890   5.985   5.929  0.8149  0.8534 -0.7200
19120THY    CA358778   9.079   6.033   6.147 -0.3123  0.0865 -0.8906
19120THY    HA358779   9.005   5.967   6.191 -1.0720 -1.6878 -1.2684
19120THY    CA458780   9.218   6.022   6.176 -0.3103  0.4032 -0.4477
19120THY    HA458781   9.245   5.946   6.249 -1.2832  0.1803 -1.0210
19120THY    CA558782   9.316   6.115   6.134 -0.2869  0.2096 -0.2537
19120THY    CM158783   9.457   6.102   6.182  0.2115  0.4358  0.7615
19120THY    HM158784   9.526   6.181   6.152  1.3144 -1.3348 -0.7982
19120THY    HM258785   9.492   6.012   6.130  0.1562 -0.2214  1.1177
19120THY    HM358786   9.453   6.075   6.288  2.9157  0.0847 -1.5479
19120THY    CA658787   9.282   6.214   6.047 -0.3942  0.2620 -0.0761
19120THY    HA658788   9.357   6.284   6.010  0.2709  0.8392 -0.4735
19121THY      O58789   3.163   3.577   6.624  0.6291  0.1241 -0.0184
19121THY     HO58790   3.239   3.537   6.670 -0.2812 -0.1841 -2.2140
19121THY    CA158791   3.051   3.504   6.643 -0.4834  0.6070  0.5015
19121THY    CA258792   2.955   3.487   6.540 -0.1356  0.1740 -0.1412
19121THY    CP158793   2.974   3.561   6.401 -0.5556  0.0657  0.4999
19121THY    HP158794   3.061   3.627   6.396  0.6651  1.5803 -0.8902
19121THY    CP258795   2.843   3.640   6.375  0.3764  0.1538 -0.6034
19121THY    HP258796   2.825   3.713   6.455 -0.8336  1.5911 -2.3874
19121THY    HP358797   2.756   3.573   6.378  0.5087 -3.4281 -1.0963
19121THY    HP458798   2.862   3.691   6.281  2.4973  0.7341 -0.2514
19121THY    CP358799   2.992   3.464   6.285  0.7040  0.1566  0.9556
19121THY    HP558800   3.072   3.392   6.300  0.7841  0.7587  1.1691
19121THY    HP658801   3.031   3.515   6.196  1.1020 -0.6124 -0.6371
19121THY    HP758802   2.903   3.407   6.255  1.8105 -0.3176 -0.5916
19121THY    CA358803   2.848   3.393   6.556  0.3090 -0.7956  0.5761
19121THY    HA358804   2.781   3.364   6.476 -0.0484  0.7266 -3.4604
19121THY    CA458805   2.839   3.336   6.689  0.0470  0.3616  0.4129
19121THY    HA458806   2.753   3.272   6.704  0.1420  0.4269  0.3005
19121THY    CA558807   2.931   3.367   6.797  0.5414  0.5428  0.0675
19121THY    CM158808   2.921   3.302   6.935 -0.0715 -0.8905  0.1098
19121THY    HM158809   2.874   3.205   6.916 -0.4654 -1.9978  0.4983
19121THY    HM258810   2.856   3.359   7.003  1.4676 -0.4847  1.4379
19121THY    HM358811   3.019   3.282   6.978 -0.0597  0.3061  2.4278
19121THY    CA658812   3.038   3.452   6.769  0.1066  0.4928  0.5431
19121THY    HA658813   3.119   3.457   6.841  1.4754 -0.7130 -2.1735
19122THY      O58814   4.719   8.046   2.161 -0.1376 -0.0061 -0.4102
19122THY     HO58815   4.644   8.106   2.146  0.2910 -3.5524 -0.5467
19122THY    CA158816   4.836   8.116   2.148  0.0780  0.6495  0.0429
19122THY    CA258817   4.947   8.089   2.231  0.4036 -0.9598 -0.2231
19122THY    CP158818   4.951   7.968   2.320  0.0489  0.7233 -0.1724
19122THY    HP158819   4.886   7.888   2.283 -0.3328 -0.7119  0.7612
19122THY    CP258820   4.909   7.983   2.460  0.0160 -0.6145 -0.3920
19122THY    HP258821   4.902   7.888   2.515 -2.5117 -0.4068 -0.1565
19122THY    HP358822   4.816   8.040   2.473 -0.2730 -1.9368 -0.5488
19122THY    HP458823   4.983   8.049   2.507 -0.8218  0.7191 -0.3605
19122THY    CP358824   5.091   7.899   2.308  0.4981  1.0794 -0.9408
19122THY    HP558825   5.126   7.909   2.205 -0.0046  0.7784 -2.1510
19122THY    HP658826   5.082   7.794   2.337 -3.5325  0.9888 -0.7813
19122THY    HP758827   5.171   7.963   2.345 -0.5564 -1.0333  1.8274
19122THY    CA358828   5.057   8.176   2.223  0.2788  0.1404 -0.3748
19122THY    HA358829   5.140   8.160   2.291  0.9403 -0.8766 -1.4637
19122THY    CA458830   5.063   8.280   2.131  0.6143 -0.3619  0.1277
19122THY    HA458831   5.146   8.350   2.125 -0.7524 -2.1723  1.6996
19122THY    CA558832   4.949   8.309   2.048  0.0129 -0.7227 -1.1793
19122THY    CM158833   4.957   8.434   1.961  0.1763 -0.2021  0.8364
19122THY    HM158834   4.934   8.385   1.866 -1.0508  1.6196 -2.4652
19122THY    HM258835   5.060   8.473   1.961  0.9963 -3.4114 -0.9696
19122THY    HM358836   4.885   8.512   1.986 -1.2790 -2.3342  0.2473
19122THY    CA658837   4.832   8.227   2.055  0.0133  0.5988  0.6908
19122THY    HA658838   4.740   8.250   2.002  0.9437 -1.5504 -0.2828
19123THY      O58839   8.726   8.816   7.735 -0.1527  1.0769  0.0185
19123THY     HO58840   8.667   8.824   7.658  0.5676  0.5481  0.3955
19123THY    CA158841   8.821   8.736   7.678 -0.1703 -0.4776 -0.4878
19123THY    CA258842   8.942   8.705   7.741  0.0379  0.7405 -0.3840
19123THY    CP158843   8.974   8.762   7.876  0.2755  0.0161 -0.0269
19123THY    HP158844   8.879   8.795   7.921 -0.1080 -0.1534 -0.8726
19123THY    CP258845   9.072   8.878   7.873 -0.1289  0.5270  0.0325
19123THY    HP258846   9.045   8.967   7.814  2.4978  1.0332  1.2508
19123THY    HP358847   9.171   8.841   7.845 -0.3772  0.4014 -0.5481
19123THY    HP458848   9.089   8.907   7.977  1.6059  1.1294 -2.7841
19123THY    CP358849   9.028   8.653   7.964 -0.7549 -0.2501 -0.2107
19123THY    HP558850   9.126   8.612   7.936  0.9774 -0.0226  3.4250
19123THY    HP658851   8.955   8.572   7.977 -1.7740  1.1840  0.8982
19123THY    HP758852   9.033   8.690   8.067  1.5672 -0.9609  1.7149
19123THY    CA358853   9.038   8.627   7.673 -0.0725  0.2063  0.0874
19123THY    HA358854   9.140   8.615   7.707  0.4929 -1.7701 -1.1317
19123THY    CA458855   8.997   8.583   7.542 -0.0619 -0.0470 -0.4113
19123THY    HA458856   9.069   8.517   7.495  0.8616  0.6449  0.0795
19123THY    CA558857   8.870   8.612   7.486 -0.4488 -1.1522  0.7082
19123THY    CM158858   8.823   8.554   7.357  0.1416 -0.4003 -0.5527
19123THY    HM158859   8.843   8.628   7.278  1.9455  1.0042  0.5315
19123THY    HM258860   8.713   8.549   7.354  0.1642  0.7815 -3.6337
19123THY    HM358861   8.855   8.453   7.329 -0.6031  2.7732 -1.7684
19123THY    CA658862   8.785   8.687   7.556 -0.3435 -0.6046 -0.0139
19123THY    HA658863   8.693   8.726   7.513 -0.0901  1.5049  3.2811
19124THY      O58864   8.409   2.557   5.439  0.2307 -0.2848 -0.6364
19124THY     HO58865   8.412   2.653   5.428 -2.4626  1.1722 -0.2700
19124THY    CA158866   8.516   2.505   5.392  0.1057 -0.1873  0.8326
19124THY    CA258867   8.527   2.374   5.338  0.3977  0.6139  0.8935
19124THY    CP158868   8.407   2.278   5.332  0.2860 -0.0427  0.3167
19124THY    HP158869   8.318   2.332   5.365 -0.5191 -0.0518 -0.9677
19124THY    CP258870   8.422   2.163   5.429  0.1293  0.0536  1.2898
19124THY    HP258871   8.413   2.207   5.529 -1.8646  0.8599 -0.7029
19124THY    HP358872   8.516   2.106   5.421 -0.5829 -1.8450  0.2910
19124THY    HP458873   8.339   2.092   5.420  0.6631 -1.1178  0.8014
19124THY    CP358874   8.387   2.220   5.187 -0.0217  0.1323 -0.7008
19124THY    HP558875   8.293   2.164   5.180 -0.7226 -0.8417  0.5374
19124THY    HP658876   8.462   2.155   5.140  0.8440  0.6762 -0.1141
19124THY    HP758877   8.374   2.306   5.120 -2.4020  0.4717 -0.7281
19124THY    CA358878   8.650   2.328   5.285  0.7486  0.2857 -0.1829
19124THY    HA358879   8.666   2.226   5.252  2.4534  0.4032  0.0138
19124THY    CA458880   8.755   2.411   5.290  0.4782 -0.4788 -0.8911
19124THY    HA458881   8.846   2.375   5.242  0.8468 -0.2820 -0.2426
19124THY    CA558882   8.748   2.540   5.354 -0.3923  0.3064  0.2891
19124THY    CM158883   8.869   2.622   5.365 -0.4483 -0.6941  0.5621
19124THY    HM158884   8.955   2.557   5.385 -0.4070 -0.0401  0.8075
19124THY    HM258885   8.857   2.693   5.448 -1.4053  0.5931 -1.0365
19124THY    HM358886   8.894   2.679   5.275  2.6544 -1.0117 -1.1148
19124THY    CA658887   8.633   2.583   5.404  0.3092  0.0550 -0.0728
19124THY    HA658888   8.625   2.670   5.468  0.1513  1.3314 -1.0003
19125THY      O58889   8.465   0.544   2.374  1.1378  0.6085 -0.4139
19125THY     HO58890   8.470   0.641   2.382 -0.9483  0.6972 -0.2557
19125THY    CA158891   8.584   0.492   2.426 -0.0322  0.0319  0.3172
19125THY    CA258892   8.654   0.386   2.360  0.3307  0.0116 -0.5321
19125THY    CP158893   8.600   0.326   2.229  0.4070 -0.8059  0.0046
19125THY    HP158894   8.495   0.357   2.222  0.2605 -0.9773 -0.5222
19125THY    CP258895   8.598   0.172   2.227 -0.3946 -0.1026  0.1614
19125THY    HP258896   8.567   0.142   2.328 -0.2313  0.5887  2.1489
19125THY    HP358897   8.699   0.135   2.207 -0.6898 -1.9455  0.2287
19125THY    HP458898   8.530   0.131   2.151 -0.0562  0.1557 -0.9238
19125THY    CP358899   8.676   0.372   2.107  0.0030  0.5162 -0.2301
19125THY    HP558900   8.650   0.476   2.086  1.2578 -1.0162 -0.1849
19125THY    HP658901   8.644   0.310   2.023 -0.5585  0.4232  0.1877
19125THY    HP758902   8.783   0.353   2.122  0.1255 -0.7340 -0.5684
19125THY    CA358903   8.775   0.340   2.410 -0.0896 -0.3157 -0.9048
19125THY    HA358904   8.833   0.261   2.363  2.4536  1.0288  0.0292
19125THY    CA458905   8.828   0.401   2.530 -0.0444 -0.5500 -0.3465
19125THY    HA458906   8.915   0.362   2.582 -0.9941  0.4440 -1.2248
19125THY    CA558907   8.754   0.501   2.590 -0.0108 -0.4342 -0.2932
19125THY    CM158908   8.783   0.547   2.722 -1.0167  0.3370 -0.3008
19125THY    HM158909   8.819   0.649   2.710  0.9129 -0.5360 -1.0394
19125THY    HM258910   8.867   0.490   2.763 -0.7784  1.7025  0.9900
19125THY    HM358911   8.696   0.550   2.788 -1.5458 -0.3953  1.7304
19125THY    CA658912   8.638   0.551   2.537  0.4827  1.1976 -0.6002
19125THY    HA658913   8.581   0.629   2.586  1.2294 -0.9839  1.4241
19126THY      O58914   6.495   4.802   5.114 -0.0124  0.5864  0.2474
19126THY     HO58915   6.408   4.774   5.147 -1.4795 -1.2959  2.2284
19126THY    CA158916   6.551   4.699   5.044  0.3552 -0.4638 -0.3074
19126THY    CA258917   6.669   4.715   4.966  0.2771 -0.0207  0.0425
19126THY    CP158918   6.730   4.854   4.945 -0.2676  0.0753 -0.0094
19126THY    HP158919   6.701   4.925   5.023  0.8421 -0.3965  0.9818
19126THY    CP258920   6.696   4.914   4.804  0.2668 -0.4472 -0.4693
19126THY    HP258921   6.726   4.846   4.724 -0.6084 -1.4804  0.3118
19126THY    HP358922   6.748   5.008   4.783 -1.6459 -1.0194  0.5283
19126THY    HP458923   6.587   4.925   4.798  0.4107  0.5467  2.3252
19126THY    CP358924   6.885   4.854   4.968 -0.2270 -0.3518 -0.4176
19126THY    HP558925   6.919   4.959   4.970 -1.7662  1.1906  0.0922
19126THY    HP658926   6.940   4.811   4.883 -0.6113 -0.7971 -0.0402
19126THY    HP758927   6.917   4.797   5.056 -0.4564 -1.4156 -2.2578
19126THY    CA358928   6.724   4.599   4.899  1.1945 -0.5312 -0.8769
19126THY    HA358929   6.813   4.624   4.842  0.5771 -0.2105  2.5791
19126THY    CA458930   6.659   4.477   4.908 -0.5632 -0.1530  0.6686
19126THY    HA458931   6.697   4.391   4.853 -0.3030  1.1022 -0.0392
19126THY    CA558932   6.537   4.469   4.979 -0.2831  0.2429  0.1688
19126THY    CM158933   6.467   4.335   4.977 -0.3728  0.4529  0.3878
19126THY    HM158934   6.470   4.294   4.876 -2.0826  0.2200  0.7555
19126THY    HM258935   6.360   4.342   4.997 -0.3876  1.4591 -1.7539
19126THY    HM358936   6.523   4.273   5.048  0.3111  0.8824  1.4520
19126THY    CA658937   6.486   4.577   5.046 -0.1382 -0.1182  0.2393
19126THY    HA658938   6.397   4.565   5.108  0.0437  0.5208  1.9546
19127THY      O58939   4.224   9.427   4.829 -0.1781  0.2433 -0.6561
19127THY     HO58940   4.238   9.481   4.750 -1.4735  0.2681 -0.2627
19127THY    CA158941   4.336   9.359   4.864  0.5144  0.3193  0.0741
19127THY    CA258942   4.349   9.303   4.994 -0.9788 -0.0918 -0.2610
19127THY    CP158943   4.245   9.321   5.095  0.3691 -0.0698 -0.1461
19127THY    HP158944   4.178   9.406   5.081  2.5602 -2.0003  1.3893
19127THY    CP258945   4.296   9.354   5.238 -0.4583  0.3871 -0.4077
19127THY    HP258946   4.366   9.283   5.284  1.5444  2.3586  2.5660
19127THY    HP358947   4.207   9.354   5.302 -0.1615  0.8003 -0.6467
19127THY    HP458948   4.344   9.453   5.242  0.1844  0.5669 -0.7209
19127THY    CP358949   4.173   9.180   5.095  0.6767 -0.1319 -0.4930
19127THY    HP558950   4.236   9.095   5.125  0.7863  1.3897  0.0852
19127THY    HP658951   4.146   9.144   4.995 -0.7197  0.3830 -0.9267
19127THY    HP758952   4.091   9.183   5.168  0.9297  0.1304  0.4334
19127THY    CA358953   4.470   9.234   5.021 -0.0248  0.3410  0.5497
19127THY    HA358954   4.492   9.200   5.122 -0.2790 -0.7701 -3.4985
19127THY    CA458955   4.566   9.217   4.923  0.1034  0.5231  0.4711
19127THY    HA458956   4.660   9.164   4.939  0.0990  1.3832  0.6988
19127THY    CA558957   4.546   9.260   4.792 -0.3010  0.8403  0.4189
19127THY    CM158958   4.654   9.246   4.687 -0.2193 -0.5775  0.7846
19127THY    HM158959   4.735   9.314   4.714 -1.0634 -0.0893  1.6173
19127THY    HM258960   4.620   9.258   4.584 -2.0899 -0.2574 -1.1746
19127THY    HM358961   4.682   9.140   4.695 -0.4981  1.4240  0.8127
19127THY    CA658962   4.436   9.346   4.767  0.0339  0.1476 -0.1395
19127THY    HA658963   4.425   9.389   4.668 -0.6269  0.5793  0.7027
19128THY      O58964   5.268   1.603   6.704 -0.7037  0.0743  0.1946
19128THY     HO58965   5.351   1.631   6.662  1.2557  2.6650 -1.2471
19128THY    CA158966   5.183   1.707   6.727  0.4726  0.3826  0.8516
19128THY    CA258967   5.060   1.671   6.779  0.3543  0.4585  0.5239
19128THY    CP158968   5.019   1.533   6.814 -0.3049 -0.1822 -0.2721
19128THY    HP158969   5.098   1.459   6.793  0.3109 -0.1067  0.3451
19128THY    CP258970   4.888   1.488   6.744 -0.0548  0.2017 -0.4024
19128THY    HP258971   4.813   1.565   6.765 -0.2179 -1.2216 -0.1377
19128THY    HP358972   4.855   1.392   6.785  0.6494 -2.8545 -2.1068
19128THY    HP458973   4.902   1.486   6.635 -0.5373  0.0770  1.1570
19128THY    CP358974   5.013   1.521   6.966  0.3157  0.3073  0.0985
19128THY    HP558975   5.012   1.414   6.990 -3.8612 -0.9503 -0.3344
19128THY    HP658976   4.917   1.566   6.995  0.0885  0.6005 -0.5684
19128THY    HP758977   5.093   1.573   7.020 -0.7854  1.2577  0.8669
19128THY    CA358978   4.974   1.785   6.801 -0.2183 -0.5409 -0.4345
19128THY    HA358979   4.871   1.789   6.835  0.4920  1.6099  1.9396
19128THY    CA458980   5.024   1.914   6.782  1.0500 -0.5617 -0.7531
19128THY    HA458981   4.961   2.000   6.807  0.3877 -0.7648 -1.1702
19128THY    CA558982   5.149   1.942   6.745 -0.2747  0.0692  0.7231
19128THY    CM158983   5.199   2.082   6.734 -0.9928 -0.3785 -0.0535
19128THY    HM158984   5.121   2.154   6.760  1.5076  1.4342  2.2308
19128THY    HM258985   5.249   2.103   6.639 -0.9860  0.2585  3.2658
19128THY    HM358986   5.274   2.107   6.811 -2.2964  1.4257 -1.4400
19128THY    CA658987   5.228   1.836   6.712 -0.1877  0.0875  0.5900
19128THY    HA658988   5.330   1.851   6.678  0.3669  1.3036 -0.2617
19129THY      O58989   6.606   1.429   3.574  0.6284 -0.2808 -0.1695
19129THY     HO58990   6.694   1.467   3.589  0.2903  0.3321  0.4019
19129THY    CA158991   6.526   1.540   3.591  0.5504  0.7469  0.1069
19129THY    CA258992   6.425   1.539   3.682 -0.0002  0.0673 -0.7273
19129THY    CP158993   6.392   1.406   3.749  0.1137 -0.3747 -0.5484
19129THY    HP158994   6.447   1.315   3.721  0.5630  2.3756 -1.2190
19129THY    CP258995   6.237   1.373   3.733 -0.1150 -0.3858  0.0391
19129THY    HP258996   6.177   1.464   3.732 -0.8838 -2.2320 -0.4400
19129THY    HP358997   6.200   1.324   3.823 -0.9993 -0.0371  1.3157
19129THY    HP458998   6.212   1.320   3.640 -2.1165  0.3401 -0.3776
19129THY    CP358999   6.411   1.423   3.902 -0.1006  0.1135 -0.1633
19129THY    HP559000   6.339   1.500   3.932 -1.2078  0.0299 -1.1351
19129THY    HP659001   6.511   1.460   3.927 -0.5371 -0.2025  1.2738
19129THY    HP759002   6.392   1.329   3.956  0.7560 -0.3494 -0.6094
19129THY    CA359003   6.338   1.650   3.700  0.4635 -0.0786  0.0116
19129THY    HA359004   6.262   1.651   3.778  1.6005  1.0579  1.3004
19129THY    CA459005   6.371   1.766   3.634 -0.4464  0.2677  0.3278
19129THY    HA459006   6.314   1.856   3.654  0.8056  0.7775  1.0375
19129THY    CA559007   6.475   1.774   3.539  0.0232 -1.0381  0.4247
19129THY    CM159008   6.513   1.907   3.473 -0.3369 -0.5662  0.1459
19129THY    HM159009   6.587   1.960   3.534 -0.7647 -1.1021  1.3900
19129THY    HM259010   6.430   1.975   3.454 -1.3667 -0.3644 -1.0154
19129THY    HM359011   6.576   1.901   3.383 -0.2952 -0.6061  1.0644
19129THY    CA659012   6.555   1.657   3.519 -0.3686 -0.2803 -0.3915
19129THY    HA659013   6.631   1.663   3.441 -0.9137 -0.8401 -0.6323
19130THY      O59014   0.773   7.576   2.698  0.5457 -0.2518 -0.4873
19130THY     HO59015   0.759   7.483   2.674 -0.0796  1.3824 -0.8561
19130THY    CA159016   0.906   7.586   2.710  0.2589  0.0748  0.4169
19130THY    CA259017   0.969   7.709   2.698 -0.4342 -0.8828 -0.1315
19130THY    CP159018   0.893   7.828   2.652  0.8395  0.8036 -0.4100
19130THY    HP159019   0.789   7.803   2.625  0.6159  0.6505  0.6113
19130THY    CP259020   0.967   7.880   2.519  0.0345 -0.2464  0.0356
19130THY    HP259021   0.901   7.939   2.454  0.8140 -1.1893 -0.1020
19130THY    HP359022   0.997   7.789   2.466  1.3014 -0.9686  0.8454
19130THY    HP459023   1.056   7.938   2.544 -0.0442  0.9831 -0.3556
19130THY    CP359024   0.873   7.936   2.756  0.0042 -0.2682  0.0791
19130THY    HP559025   0.790   7.997   2.718  0.1326 -2.2010 -0.8748
19130THY    HP659026   0.952   8.004   2.790  1.6146  0.0955 -1.8749
19130THY    HP759027   0.828   7.886   2.842 -1.3787 -0.7921  0.3869
19130THY    CA359028   1.105   7.711   2.729  0.4170 -0.0035  0.9838
19130THY    HA359029   1.169   7.798   2.719  1.1701  1.5112  0.6344
19130THY    CA459030   1.168   7.600   2.782 -0.2638  0.3481 -0.5740
19130THY    HA459031   1.275   7.610   2.797 -0.1241 -0.9011  0.0791
19130THY    CA559032   1.103   7.480   2.789 -0.0971 -0.4396 -0.4084
19130THY    CM159033   1.169   7.361   2.846  0.5709 -0.1993 -0.8420
19130THY    HM159034   1.181   7.290   2.763 -0.8859 -1.1761  0.0041
19130THY    HM259035   1.098   7.302   2.904 -0.1100 -1.5249 -1.3777
19130THY    HM359036   1.255   7.396   2.904 -0.6677 -0.6978  3.5597
19130THY    CA659037   0.971   7.469   2.750 -0.1611  0.0341 -0.3273
19130THY    HA659038   0.927   7.370   2.755 -0.0595 -2.2245 -0.5446
19131THY      O59039   2.321   8.077   2.288 -0.5927 -0.4318 -0.4051
19131THY     HO59040   2.275   8.081   2.374 -2.1634 -1.2530 -0.2142
19131THY    CA159041   2.451   8.110   2.316  0.4152  0.3548  0.1684
19131THY    CA259042   2.547   8.112   2.216  0.3170  0.1607 -0.1767
19131THY    CP159043   2.512   8.070   2.075  0.0410 -0.3575  0.5785
19131THY    HP159044   2.409   8.038   2.059  0.5151 -0.5986 -0.9046
19131THY    CP259045   2.602   7.947   2.039 -0.5944  0.1740 -0.2402
19131THY    HP259046   2.595   7.870   2.117 -0.7810 -0.8064 -1.2577
19131THY    HP359047   2.707   7.978   2.040 -0.6316  0.0550 -0.1110
19131THY    HP459048   2.576   7.898   1.944 -1.9350 -0.1673  1.0753
19131THY    CP359049   2.545   8.193   1.996  0.3207 -0.0678 -0.4665
19131THY    HP559050   2.533   8.166   1.890 -1.4509  0.2976 -1.2717
19131THY    HP659051   2.645   8.233   2.016  0.2213 -1.4277  0.5651
19131THY    HP759052   2.473   8.271   2.024 -3.1226 -0.0692 -3.3648
19131THY    CA359053   2.679   8.155   2.253  0.4127  0.8929 -0.3688
19131THY    HA359054   2.763   8.175   2.187  0.9891  1.4133 -1.0235
19131THY    CA459055   2.702   8.211   2.381  0.2484 -0.4878  0.1879
19131THY    HA459056   2.800   8.253   2.400 -0.1330 -2.6168  2.2710
19131THY    CA559057   2.605   8.197   2.472 -0.3571 -0.7673  0.1355
19131THY    CM159058   2.632   8.250   2.612  0.1811 -0.1165  0.1548
19131THY    HM159059   2.593   8.349   2.639 -0.3692 -0.7680  0.1182
19131THY    HM259060   2.738   8.261   2.639  0.5979 -0.3203 -2.6670
19131THY    HM359061   2.581   8.178   2.676  0.0375 -0.9609 -0.5033
19131THY    CA659062   2.484   8.145   2.443  0.6281 -0.4947 -0.5656
19131THY    HA659063   2.409   8.135   2.521 -0.6116 -1.4948  0.4362
19132THY      O59064   5.751   4.900   3.198 -0.5224  0.4022 -0.1027
19132THY     HO59065   5.688   4.956   3.149  1.0201 -1.5407  0.0442
19132THY    CA159066   5.701   4.881   3.316 -0.3301 -0.4760  0.8271
19132THY    CA259067   5.775   4.824   3.418 -0.3764  1.1204 -0.0775
19132THY    CP159068   5.919   4.775   3.400  0.4166 -0.2803  0.2225
19132THY    HP159069   5.951   4.802   3.299  1.3257 -0.5757 -1.7651
19132THY    CP259070   5.934   4.623   3.398  0.0681  0.6776  0.5577
19132THY    HP259071   5.871   4.575   3.322 -2.6838  1.1097  3.1868
19132THY    HP359072   5.898   4.579   3.492 -2.0104  0.3397  1.4317
19132THY    HP459073   6.040   4.598   3.383 -0.0421  1.3071 -0.3363
19132THY    CP359074   6.010   4.834   3.510  0.8657  0.3582 -0.2233
19132THY    HP559075   6.111   4.865   3.481 -0.5190 -1.3360  3.1723
19132THY    HP659076   6.020   4.766   3.596 -1.1924 -0.5738 -1.7939
19132THY    HP759077   5.964   4.930   3.535  0.3308 -0.8362 -0.1610
19132THY    CA359078   5.722   4.814   3.545  1.3950 -0.4290  0.2760
19132THY    HA359079   5.781   4.773   3.627 -2.4305  1.8325 -1.1980
19132THY    CA459080   5.589   4.863   3.563  0.9873 -0.4644  0.4797
19132THY    HA459081   5.543   4.864   3.661 -0.7386 -1.2075 -0.4703
19132THY    CA559082   5.517   4.915   3.457  0.2328  0.5463  0.6931
19132THY    CM159083   5.382   4.981   3.479  0.4109  0.7481 -0.4380
19132THY    HM159084   5.364   5.043   3.391 -2.6325  0.9829 -0.8152
19132THY    HM259085   5.383   5.039   3.572 -0.5330  0.0515  0.7353
19132THY    HM359086   5.305   4.903   3.489 -1.7754  0.3599  1.5603
19132THY    CA659087   5.577   4.928   3.331  0.0079  0.0860 -0.1648
19132THY    HA659088   5.523   4.972   3.247 -0.6742 -0.0397 -1.2196
19133THY      O59089   1.293   3.578   7.710  0.7591  0.5196  0.1397
19133THY     HO59090   1.224   3.569   7.777 -1.0860 -1.3914 -0.9019
19133THY    CA159091   1.406   3.513   7.751  0.2405 -0.2988  0.5111
19133THY    CA259092   1.527   3.523   7.686  0.7677  0.0916  0.6121
19133THY    CP159093   1.551   3.627   7.574  0.1678  0.2419  0.2398
19133THY    HP159094   1.469   3.699   7.575  0.8142  0.9892  0.9782
19133THY    CP259095   1.570   3.559   7.441 -0.2814  0.1678  0.0875
19133THY    HP259096   1.650   3.611   7.388  1.5145  2.0857 -0.5837
19133THY    HP359097   1.477   3.578   7.386  0.2703 -0.2041  1.9534
19133THY    HP459098   1.592   3.452   7.451  0.7218 -1.0714  0.1591
19133THY    CP359099   1.679   3.717   7.608  0.4205  0.6637 -0.4266
19133THY    HP559100   1.650   3.771   7.699 -1.1657 -1.1223  1.9721
19133THY    HP659101   1.692   3.789   7.526 -0.0969 -0.5683 -1.6922
19133THY    HP759102   1.773   3.662   7.623  1.2319 -3.2990 -0.4665
19133THY    CA359103   1.635   3.448   7.733 -0.2369 -0.0091  0.2413
19133THY    HA359104   1.726   3.452   7.674  1.2061  2.0388 -0.9943
19133THY    CA459105   1.622   3.366   7.842 -0.1746 -0.4110 -0.6432
19133THY    HA459106   1.711   3.310   7.871 -0.1688  0.6940 -0.0851
19133THY    CA559107   1.496   3.350   7.897 -0.0741 -0.6403 -0.5533
19133THY    CM159108   1.466   3.253   8.003 -0.2292  0.1014 -0.2189
19133THY    HM159109   1.556   3.248   8.065 -0.2407  0.3196  1.6973
19133THY    HM259110   1.455   3.158   7.950 -2.4966  0.8753 -0.4326
19133THY    HM359111   1.380   3.282   8.063  0.2227  0.7713 -0.2568
19133THY    CA659112   1.384   3.424   7.852 -0.1248 -0.9752  0.8145
19133THY    HA659113   1.286   3.400   7.891  1.1019  0.9974 -1.3412
19134THY      O59114   8.148   8.552   7.696  0.4888 -0.1473  0.0820
19134THY     HO59115   8.242   8.544   7.673  0.8448  0.7853  1.2426
19134THY    CA159116   8.090   8.430   7.694  0.0657 -0.1930  0.2108
19134THY    CA259117   7.956   8.403   7.662  0.5544 -0.1871 -0.1486
19134THY    CP159118   7.861   8.516   7.603 -0.4177  0.6735  0.7190
19134THY    HP159119   7.916   8.608   7.623  1.1065 -4.7500  1.3254
19134THY    CP259120   7.723   8.514   7.662  0.1515 -0.1700 -0.2591
19134THY    HP259121   7.669   8.602   7.625  0.6021 -1.2094 -0.4007
19134THY    HP359122   7.735   8.521   7.770  0.4002 -0.2867  1.7581
19134THY    HP459123   7.662   8.427   7.634  0.2033 -0.1979 -0.2873
19134THY    CP359124   7.858   8.513   7.445  0.6588  0.0065 -0.2161
19134THY    HP559125   7.837   8.614   7.408  2.3352 -0.9015 -0.1657
19134THY    HP659126   7.777   8.448   7.408  0.2088  0.5435  0.0273
19134THY    HP759127   7.951   8.477   7.401 -0.0844 -0.5574 -1.5290
19134THY    CA359128   7.900   8.278   7.668  0.0876  0.3726  0.2833
19134THY    HA359129   7.800   8.253   7.633 -0.4836  1.5028  0.9287
19134THY    CA459130   7.984   8.168   7.712 -0.0220 -0.6162  0.6779
19134THY    HA459131   7.950   8.066   7.723 -0.0961  0.5089  0.8142
19134THY    CA559132   8.119   8.193   7.731 -0.4283 -0.1873  0.5713
19134THY    CM159133   8.208   8.078   7.771 -0.5721  0.4239 -0.1260
19134THY    HM159134   8.265   8.047   7.682 -3.2980 -1.5093  0.0771
19134THY    HM259135   8.143   7.994   7.798  1.6298  2.8231 -1.2116
19134THY    HM359136   8.277   8.097   7.854  2.1344 -1.4768 -1.0068
19134THY    CA659137   8.168   8.319   7.726 -0.4557  0.5241 -0.1653
19134THY    HA659138   8.271   8.339   7.755 -0.1149 -0.4943 -0.3550
19135THY      O59139   4.904   8.318   4.067  0.4240 -0.0568 -0.5614
19135THY     HO59140   4.994   8.325   4.103  0.2323  0.3676 -0.2223
19135THY    CA159141   4.827   8.427   4.096 -0.1262  0.6503 -0.5005
19135THY    CA259142   4.694   8.428   4.066 -0.7417 -0.7113  0.9929
19135THY    CP159143   4.626   8.311   3.996 -0.5174 -0.2065 -0.2747
19135THY    HP159144   4.695   8.226   4.001  0.7077 -2.1604  0.5412
19135THY    CP259145   4.623   8.335   3.845  0.0665 -0.1723 -0.9752
19135THY    HP259146   4.556   8.420   3.830 -1.0807 -0.0704 -1.8371
19135THY    HP359147   4.579   8.245   3.800 -1.2121  1.7128 -1.3652
19135THY    HP459148   4.723   8.356   3.806 -0.1025 -0.1122 -0.0091
19135THY    CP359149   4.488   8.272   4.054 -0.5123 -0.2893  0.0812
19135THY    HP559150   4.427   8.362   4.069  1.0091 -1.4448  1.3731
19135THY    HP659151   4.509   8.217   4.146  0.0336 -1.5319 -1.8703
19135THY    HP759152   4.441   8.198   3.989  0.6858  0.3661 -1.3018
19135THY    CA359153   4.625   8.550   4.082  0.1858  0.4273 -0.0153
19135THY    HA359154   4.524   8.557   4.043  0.6090 -0.4271  1.8620
19135THY    CA459155   4.682   8.660   4.156 -0.0525  0.0612 -0.2507
19135THY    HA459156   4.625   8.749   4.178  1.2766 -2.2030  1.2754
19135THY    CA559157   4.818   8.655   4.177 -0.0245 -0.7265  0.0772
19135THY    CM159158   4.889   8.772   4.235 -0.5484 -0.3105 -0.0542
19135THY    HM159159   4.896   8.851   4.159  0.4318 -0.7082 -0.4988
19135THY    HM259160   4.987   8.732   4.263 -0.1848 -2.9448 -1.2622
19135THY    HM359161   4.856   8.819   4.328  2.9269 -0.3468  2.8973
19135THY    CA659162   4.890   8.535   4.150  0.0288 -0.5038 -0.1349
19135THY    HA659163   4.995   8.531   4.177 -0.0775  0.5600  2.6835
19136THY      O59164   7.521   2.075   7.680  0.6802 -0.1825 -0.1085
19136THY     HO59165   7.600   2.072   7.736  0.0633  0.7002 -0.4207
19136THY    CA159166   7.510   1.954   7.645  0.8130  0.6455  0.0708
19136THY    CA259167   7.411   1.917   7.554  0.6640 -0.1959  0.7516
19136THY    CP159168   7.308   2.023   7.509  0.6275  0.8152  0.1639
19136THY    HP159169   7.326   2.127   7.539  1.8592 -2.8058  1.1594
19136THY    CP259170   7.166   1.972   7.549 -0.0027  0.1161  0.1878
19136THY    HP259171   7.084   2.000   7.483  0.7998 -1.4628 -1.0291
19136THY    HP359172   7.140   2.033   7.636  0.5056 -0.6801  1.5713
19136THY    HP459173   7.152   1.867   7.580 -1.5589  0.2751  0.4290
19136THY    CP359174   7.312   2.035   7.356  0.1066  0.7117 -0.3037
19136THY    HP559175   7.273   2.127   7.312  0.0646 -3.1388 -1.9526
19136THY    HP659176   7.281   1.946   7.300  1.0191 -0.6819  0.2102
19136THY    HP759177   7.416   2.048   7.324 -0.2943 -0.2495  0.6957
19136THY    CA359178   7.403   1.780   7.520  0.3990  0.5858 -0.5988
19136THY    HA359179   7.343   1.741   7.438  1.2171  0.6872 -2.1471
19136THY    CA459180   7.494   1.688   7.572 -0.0105  0.1304 -0.2088
19136THY    HA459181   7.482   1.584   7.540 -1.4760 -0.3379  0.0740
19136THY    CA559182   7.585   1.728   7.670 -0.4200  0.1027  0.5153
19136THY    CM159183   7.695   1.638   7.718  0.0455  0.0822  0.0989
19136THY    HM159184   7.702   1.636   7.828  0.8941  0.0581 -3.2223
19136THY    HM259185   7.794   1.659   7.674 -0.5507 -0.6982  1.4391
19136THY    HM359186   7.665   1.539   7.685 -0.4744  1.7073 -0.3144
19136THY    CA659187   7.601   1.863   7.699  0.1052 -0.4910 -0.3552
19136THY    HA659188   7.678   1.904   7.764 -0.3770  0.1455 -0.4459
19137THY      O59189   3.093   2.989   3.284 -0.0818 -0.6073 -0.3119
19137THY     HO59190   3.068   3.023   3.372  2.4496  0.8275 -1.7467
19137THY    CA159191   3.042   2.859   3.282 -0.5092 -0.5302 -0.0004
19137THY    CA259192   2.926   2.825   3.207 -0.2617  0.2626  0.4463
19137THY    CP159193   2.844   2.939   3.141  0.5034 -0.2514 -0.9328
19137THY    HP159194   2.900   3.033   3.150  1.1291 -2.1335 -1.0895
19137THY    CP259195   2.718   2.963   3.211 -0.2827 -0.5038 -0.0006
19137THY    HP259196   2.671   3.054   3.170  0.3626 -0.2911  0.4370
19137THY    HP359197   2.749   2.989   3.312  1.0582 -0.7779 -0.4768
19137THY    HP459198   2.656   2.874   3.203 -1.3740  0.6491  0.6251
19137THY    CP359199   2.822   2.912   2.997 -0.2990  1.0202  0.1098
19137THY    HP559200   2.919   2.901   2.948  0.1998  1.8363  0.7932
19137THY    HP659201   2.781   2.995   2.938  0.5462  0.1744 -0.0557
19137THY    HP759202   2.755   2.825   2.994 -0.7558  0.0097  0.4775
19137THY    CA359203   2.886   2.690   3.192  0.3426  0.0418 -0.0070
19137THY    HA359204   2.802   2.659   3.130  0.5353 -0.2511  0.0548
19137THY    CA459205   2.959   2.588   3.256  0.1213 -0.2700 -0.0650
19137THY    HA459206   2.931   2.484   3.244 -1.7411  1.0881  0.2270
19137THY    CA559207   3.078   2.620   3.328  0.5688  0.0513  0.1867
19137THY    CM159208   3.168   2.515   3.373  0.8361  0.4638  0.5519
19137THY    HM159209   3.108   2.425   3.392 -1.5390  2.0177  2.3256
19137THY    HM259210   3.203   2.548   3.472 -0.7089  1.4441 -0.5734
19137THY    HM359211   3.254   2.498   3.308  1.3057  0.4659  2.7163
19137THY    CA659212   3.118   2.758   3.334  0.1280 -0.4216  0.8103
19137THY    HA659213   3.212   2.780   3.385  1.1739 -1.4517 -0.9620
19138THY      O59214   1.469   5.545   3.665 -0.0998  0.3012 -0.3398
19138THY     HO59215   1.457   5.637   3.693  0.5791  0.5219 -0.3078
19138THY    CA159216   1.413   5.549   3.544  0.1183  0.0362  0.3055
19138THY    CA259217   1.409   5.440   3.453 -0.4368 -0.2491  0.8994
19138THY    CP159218   1.440   5.295   3.496 -0.5372  0.6628  0.1175
19138THY    HP159219   1.498   5.292   3.589 -1.5062  1.2788 -2.1203
19138THY    CP259220   1.529   5.217   3.403  0.2025  0.3989 -0.4475
19138THY    HP259221   1.553   5.121   3.449  0.5145  1.7525  0.2524
19138THY    HP359222   1.624   5.269   3.383 -0.7303 -2.2025  0.4554
19138THY    HP459223   1.490   5.189   3.305 -0.1050  0.0317  1.1609
19138THY    CP359224   1.310   5.217   3.525  0.3559 -0.0309  0.1966
19138THY    HP559225   1.338   5.113   3.544 -1.2295 -0.9217 -0.4306
19138THY    HP659226   1.230   5.221   3.450 -0.1182  0.4786  0.3744
19138THY    HP759227   1.271   5.260   3.618 -0.0015 -0.0940  0.0096
19138THY    CA359228   1.363   5.464   3.323 -0.9885  0.6500  0.2163
19138THY    HA359229   1.352   5.394   3.241 -0.8444  1.1623 -0.4194
19138THY    CA459230   1.306   5.590   3.291 -0.1537 -0.1781  0.3463
19138THY    HA459231   1.258   5.604   3.194  1.2720 -0.8304  1.0101
19138THY    CA559232   1.306   5.696   3.383  0.0212  0.6177 -0.3598
19138THY    CM159233   1.246   5.819   3.337  0.3866 -0.7571 -0.4096
19138THY    HM159234   1.142   5.813   3.304  0.2920 -0.4445 -0.5268
19138THY    HM259235   1.316   5.866   3.267  0.8022 -0.6870 -0.9078
19138THY    HM359236   1.243   5.881   3.427  0.6840 -0.2735 -1.0740
19138THY    CA659237   1.356   5.672   3.513  0.5323 -0.0950 -0.3965
19138THY    HA659238   1.351   5.752   3.586 -5.0141 -1.5460  0.9685
19139THY      O59239   5.938   4.717   4.979  0.0580  0.0295  0.3849
19139THY     HO59240   5.893   4.632   4.992  0.6942 -0.4995 -0.0446
19139THY    CA159241   6.017   4.710   5.084 -0.1115 -0.5619  0.1104
19139THY    CA259242   6.086   4.820   5.130  0.2241  0.2095 -0.1854
19139THY    CP159243   6.062   4.951   5.055 -0.2701 -0.0875 -0.2507
19139THY    HP159244   6.001   4.951   4.964 -2.4868  1.3096 -0.8419
19139THY    CP259245   6.200   5.019   5.008 -0.0978  0.4734  0.4091
19139THY    HP259246   6.267   5.042   5.091  0.4986 -0.4760  2.3199
19139THY    HP359247   6.177   5.112   4.955  1.7814 -0.7627  0.2205
19139THY    HP459248   6.248   4.949   4.937 -0.0470  0.7612  0.1518
19139THY    CP359249   6.005   5.056   5.151  0.7654 -0.0805 -0.1237
19139THY    HP559250   5.909   5.024   5.194  0.2056 -1.3706 -0.2256
19139THY    HP659251   5.991   5.150   5.097  2.1119  2.6649  1.8015
19139THY    HP759252   6.061   5.079   5.243  1.3746  0.3500 -2.9738
19139THY    CA359253   6.180   4.804   5.238  0.4740 -0.1766 -0.4146
19139THY    HA359254   6.237   4.886   5.281 -1.8668  0.9540  0.6956
19139THY    CA459255   6.200   4.670   5.288 -0.2501 -0.0070 -0.0910
19139THY    HA459256   6.268   4.656   5.372  0.1694  0.7263  4.7162
19139THY    CA559257   6.128   4.558   5.244  0.0377  1.2424  0.4458
19139THY    CM159258   6.144   4.418   5.300 -0.1795  0.6721  0.1073
19139THY    HM159259   6.215   4.357   5.244  1.9639  2.0406  1.2157
19139THY    HM259260   6.048   4.366   5.301 -0.6085  0.1070  0.8669
19139THY    HM359261   6.179   4.423   5.404 -1.0342  0.9196  1.3145
19139THY    CA659262   6.039   4.578   5.138  0.3040  0.1127 -0.1821
19139THY    HA659263   5.986   4.490   5.102  0.3836  0.9053 -0.5670
19140THY      O59264   2.442   4.960   2.024 -0.2394  0.1231 -0.0166
19140THY     HO59265   2.450   5.040   1.969 -2.6993 -0.3716 -0.0312
19140THY    CA159266   2.491   4.846   1.965 -0.0216 -0.4609 -0.2142
19140THY    CA259267   2.512   4.733   2.049 -0.3429  0.9208  0.4685
19140THY    CP159268   2.474   4.732   2.198 -0.5316 -0.0004 -0.0963
19140THY    HP159269   2.403   4.815   2.209 -0.2212 -0.8183  0.2879
19140THY    CP259270   2.590   4.754   2.292 -0.6223 -0.2397  0.4363
19140THY    HP259271   2.634   4.854   2.279 -1.0518  2.5602  1.0578
19140THY    HP359272   2.664   4.673   2.294  0.2461 -1.6053  1.1534
19140THY    HP459273   2.548   4.752   2.393  1.1759  0.5754  1.2299
19140THY    CP359274   2.388   4.607   2.236 -0.1185  1.1585 -0.7052
19140THY    HP559275   2.290   4.621   2.189  0.4968  0.1367  0.3798
19140THY    HP659276   2.362   4.599   2.342  0.0114  1.1301 -1.5574
19140THY    HP759277   2.438   4.513   2.209 -0.9576 -0.9166 -0.5998
19140THY    CA359278   2.578   4.622   1.979  0.8001  0.5292  0.5749
19140THY    HA359279   2.606   4.531   2.032  1.4318 -0.3785  0.2312
19140THY    CA459280   2.605   4.622   1.846 -0.6859  0.3293 -0.7824
19140THY    HA459281   2.653   4.539   1.795  0.9343 -1.5204  1.1596
19140THY    CA559282   2.579   4.737   1.766  0.7134 -0.9779  0.4193
19140THY    CM159283   2.612   4.735   1.621  0.5590 -0.1504 -0.1405
19140THY    HM159284   2.514   4.735   1.571  0.4429  0.0680  0.2707
19140THY    HM259285   2.655   4.637   1.600  1.6985  0.3621  0.2417
19140THY    HM359286   2.669   4.826   1.600 -0.6590 -1.6502  0.3272
19140THY    CA659287   2.524   4.852   1.830 -0.0123 -0.1100  0.5554
19140THY    HA659288   2.508   4.941   1.770  2.0816 -1.2061  0.2684
19141THY      O59289   1.419   1.779   3.299  0.0380 -0.3863 -0.5749
19141THY     HO59290   1.425   1.684   3.320 -0.3128  0.6357 -0.3891
19141THY    CA159291   1.370   1.837   3.416 -0.2230 -0.1021 -0.0015
19141THY    CA259292   1.299   1.955   3.406 -0.3467  0.1347  0.1793
19141THY    CP159293   1.272   2.022   3.270 -0.0746  0.9095  0.4098
19141THY    HP159294   1.356   2.006   3.200  0.1107  0.2112  3.7790
19141THY    CP259295   1.266   2.177   3.273  0.5297  0.4092  0.9016
19141THY    HP259296   1.181   2.213   3.333 -0.6799 -0.5968 -0.1520
19141THY    HP359297   1.244   2.211   3.171 -0.6576  0.3332 -0.0301
19141THY    HP459298   1.363   2.220   3.298  0.6032  1.0923  0.3476
19141THY    CP359299   1.138   1.969   3.208 -0.2368  0.0372 -0.1645
19141THY    HP559300   1.115   2.017   3.113  2.1473  0.6497  2.4326
19141THY    HP659301   1.056   1.991   3.278 -1.4327 -1.3936  0.0450
19141THY    HP759302   1.139   1.860   3.195  0.3085 -1.2654 -0.0161
19141THY    CA359303   1.261   2.015   3.530 -0.3198 -1.0676 -0.6745
19141THY    HA359304   1.205   2.108   3.531  1.1055  0.6134  0.2365
19141THY    CA459305   1.279   1.934   3.650 -0.0224 -0.5549  0.0327
19141THY    HA459306   1.227   1.964   3.740  0.0645 -0.6283  0.4110
19141THY    CA559307   1.350   1.818   3.651 -0.5061  0.6251  0.0382
19141THY    CM159308   1.364   1.734   3.771 -0.2071 -0.4398 -0.0772
19141THY    HM159309   1.470   1.715   3.791 -0.1050 -0.0051  0.8915
19141THY    HM259310   1.300   1.644   3.765 -0.8657  0.7512  0.2906
19141THY    HM359311   1.328   1.784   3.862 -0.4223 -0.4754 -0.1637
19141THY    CA659312   1.406   1.776   3.529  0.4318 -0.6048  0.8747
19141THY    HA659313   1.453   1.679   3.525 -1.9689  2.2232 -0.5350
19142THY      O59314   7.119   2.870   2.492  0.2994  0.5826 -0.0755
19142THY     HO59315   7.159   2.818   2.421  1.6024  0.8834  0.4803
19142THY    CA159316   7.161   2.997   2.469 -0.3071  0.0774  1.3874
19142THY    CA259317   7.125   3.098   2.559  0.1547 -0.5227 -0.1189
19142THY    CP159318   7.079   3.063   2.701  0.3743 -0.4256  0.2345
19142THY    HP159319   7.018   2.971   2.707 -0.2653  2.3741  0.7423
19142THY    CP259320   6.988   3.162   2.772  0.2099  0.3369 -0.0140
19142THY    HP259321   7.044   3.250   2.805 -0.0081  2.1856 -0.5277
19142THY    HP359322   6.948   3.123   2.866 -0.6778 -0.0935 -0.1837
19142THY    HP459323   6.896   3.192   2.720 -1.1823  3.1453  0.9534
19142THY    CP359324   7.202   3.032   2.788 -0.3699 -0.0277 -0.2852
19142THY    HP559325   7.285   3.102   2.771 -1.1941  1.9132  1.2528
19142THY    HP659326   7.236   2.931   2.759 -0.2218  0.7187 -0.4537
19142THY    HP759327   7.184   3.020   2.895  0.2639  0.2195  0.8086
19142THY    CA359328   7.164   3.229   2.531 -0.1055 -0.2486 -0.6815
19142THY    HA359329   7.151   3.310   2.601  2.7992 -0.2368 -0.1113
19142THY    CA459330   7.228   3.254   2.410 -0.3994 -0.3322 -0.2812
19142THY    HA459331   7.253   3.353   2.371  0.2446  1.4496  0.2986
19142THY    CA559332   7.247   3.161   2.314 -0.2876  0.8198 -0.6921
19142THY    CM159333   7.327   3.191   2.193  0.0613 -0.3363 -0.2559
19142THY    HM159334   7.398   3.119   2.150  1.4033  1.1405  0.1251
19142THY    HM259335   7.381   3.286   2.187  2.5117  1.2080 -1.4576
19142THY    HM359336   7.249   3.201   2.116 -0.5228  0.3070  0.2587
19142THY    CA659337   7.222   3.028   2.343  0.6057 -0.0671  0.2239
19142THY    HA659338   7.249   2.947   2.276  0.8308 -0.0780  0.3079
19143THY      O59339   5.529   2.840   2.626  0.1193 -0.7563 -0.0133
19143THY     HO59340   5.569   2.751   2.625  0.7672 -1.4615  0.2717
19143THY    CA159341   5.540   2.880   2.496 -0.3558 -0.5757 -0.0700
19143THY    CA259342   5.466   2.986   2.448 -0.0627  0.4056 -0.3343
19143THY    CP159343   5.380   3.072   2.531  0.5845  0.2225  0.2851
19143THY    HP159344   5.362   3.034   2.632 -1.4975 -0.6110 -1.1023
19143THY    CP259345   5.234   3.091   2.474 -0.0958  0.4292  0.0482
19143THY    HP259346   5.176   3.144   2.550 -0.7341  1.0111 -1.4414
19143THY    HP359347   5.188   2.993   2.459 -0.8260  1.8059  0.1627
19143THY    HP459348   5.228   3.151   2.382 -1.3595  0.5701  0.1680
19143THY    CP359349   5.441   3.211   2.544  0.7707  0.4656 -0.3349
19143THY    HP559350   5.382   3.269   2.615  1.2822  2.2412 -1.8593
19143THY    HP659351   5.433   3.274   2.455  0.0019  0.3938 -0.5228
19143THY    HP759352   5.545   3.207   2.581  1.1538 -0.6306 -1.1914
19143THY    CA359353   5.488   3.027   2.316 -0.0933  0.4303 -0.0790
19143THY    HA359354   5.439   3.117   2.281 -0.2147 -1.5106 -0.8650
19143THY    CA459355   5.580   2.961   2.232  0.2736 -0.1822 -0.6854
19143THY    HA459356   5.594   2.994   2.129 -1.4018 -1.0493 -2.4660
19143THY    CA559357   5.654   2.855   2.285  0.8434 -0.5724  0.1342
19143THY    CM159358   5.753   2.785   2.197  0.2223  0.1316 -0.1219
19143THY    HM159359   5.840   2.849   2.181  0.0866 -0.4466 -0.0750
19143THY    HM259360   5.701   2.761   2.103 -1.3986  1.6164 -2.9330
19143THY    HM359361   5.781   2.690   2.245  0.1387 -1.0522 -0.7669
19143THY    CA659362   5.626   2.811   2.415  0.0032  0.0762  0.1241
19143THY    HA659363   5.689   2.730   2.451 -0.7707  0.1846 -0.4408
19144THY      O59364   8.714   3.201   1.729 -0.0889  0.8425 -0.1277
19144THY     HO59365   8.680   3.271   1.671  1.9635  0.5643  0.7315
19144THY    CA159366   8.845   3.227   1.730 -0.8600  0.2448 -0.4924
19144THY    CA259367   8.946   3.132   1.776  0.2207  0.4343 -0.0071
19144THY    CP159368   8.925   2.979   1.760  0.6705 -0.6215 -0.8986
19144THY    HP159369   8.825   2.959   1.721  1.0996 -1.5353 -1.3907
19144THY    CP259370   8.941   2.902   1.882 -0.3547 -0.4722  0.4242
19144THY    HP259371   8.868   2.940   1.954  0.1553  0.8052 -0.9442
19144THY    HP359372   9.047   2.918   1.905  0.1981 -0.8300 -2.1823
19144THY    HP459373   8.912   2.797   1.871 -2.7798 -0.6444  1.0566
19144THY    CP359374   9.010   2.913   1.648  1.3600 -0.5813  0.1290
19144THY    HP559375   8.954   2.827   1.611  1.7294 -0.0486 -0.3460
19144THY    HP659376   9.107   2.876   1.683  0.6090  0.8739 -0.5214
19144THY    HP759377   9.019   2.989   1.569 -0.6477 -1.1496 -0.1797
19144THY    CA359378   9.078   3.182   1.804 -0.1503  0.6979  0.3872
19144THY    HA359379   9.160   3.112   1.818  0.4264  0.6752  1.0469
19144THY    CA459380   9.103   3.321   1.795 -0.0611 -1.3140 -0.7453
19144THY    HA459381   9.201   3.363   1.816 -0.6644  0.0461  0.0326
19144THY    CA559382   9.006   3.413   1.765  0.0829 -0.0458 -0.5066
19144THY    CM159383   9.037   3.559   1.776  0.2265  0.5365  1.1822
19144THY    HM159384   9.044   3.591   1.881 -0.3692  1.0902 -0.4424
19144THY    HM259385   8.964   3.623   1.724 -0.0348  0.2692  0.6660
19144THY    HM359386   9.135   3.586   1.733  1.2972  1.5610 -0.8661
19144THY    CA659387   8.877   3.364   1.733 -0.4430 -0.1236 -0.1468
19144THY    HA659388   8.791   3.428   1.717 -1.9058  1.0296 -1.7454
19145THY      O59389   8.359   8.494   4.728 -0.1548  0.4771 -0.1934
19145THY     HO59390   8.314   8.518   4.811 -0.8595 -0.6057  2.6584
19145THY    CA159391   8.458   8.398   4.758 -0.0472  0.5946  0.3316
19145THY    CA259392   8.518   8.325   4.658  0.0540 -0.0211  0.4285
19145THY    CP159393   8.507   8.349   4.507  0.1573  0.5758  0.6698
19145THY    HP159394   8.451   8.441   4.486  1.3433  2.7150  1.9692
19145THY    CP259395   8.427   8.228   4.450  0.0257 -0.7075 -0.0376
19145THY    HP259396   8.329   8.219   4.498 -0.2203 -1.0753  0.6351
19145THY    HP359397   8.481   8.133   4.458 -0.2815 -0.2956 -0.1803
19145THY    HP459398   8.410   8.259   4.346  0.7987 -0.1191  2.6215
19145THY    CP359399   8.635   8.394   4.436 -0.0073 -0.2885 -0.0576
19145THY    HP559400   8.615   8.435   4.336  0.1555 -1.2579 -2.2162
19145THY    HP659401   8.710   8.315   4.421 -0.5098  1.7311 -0.9851
19145THY    HP759402   8.695   8.457   4.503  2.7020 -1.8435 -0.7939
19145THY    CA359403   8.604   8.223   4.701  0.0815 -0.4876  0.2834
19145THY    HA359404   8.666   8.167   4.632  0.9785  0.2344  0.3803
19145THY    CA459405   8.623   8.193   4.841 -0.0877 -0.3946  0.5144
19145THY    HA459406   8.693   8.124   4.886  0.9250  1.3945  2.5961
19145THY    CA559407   8.571   8.280   4.936 -0.4758 -0.4282 -0.0397
19145THY    CM159408   8.603   8.271   5.081 -0.2099 -0.0693  0.1562
19145THY    HM159409   8.538   8.205   5.140  0.4752  2.2038  1.3952
19145THY    HM259410   8.589   8.371   5.124 -0.5083 -1.9239  0.9626
19145THY    HM359411   8.706   8.238   5.097 -0.6252 -1.2753 -1.8993
19145THY    CA659412   8.488   8.386   4.892  0.0604  0.6487  0.6344
19145THY    HA659413   8.440   8.445   4.970 -0.8059  0.2471  0.4790
19146THY      O59414   3.052   6.653   2.566 -0.1484 -0.1449  0.0060
19146THY     HO59415   3.113   6.726   2.545  0.1042  0.3962 -0.0482
19146THY    CA159416   3.028   6.689   2.699 -0.7489 -0.1520 -0.8287
19146THY    CA259417   3.021   6.595   2.803  0.6823  0.1893  0.5856
19146THY    CP159418   3.031   6.443   2.781 -0.5194  0.3677  0.2829
19146THY    HP159419   3.047   6.411   2.677  0.1410  0.5279  0.0771
19146THY    CP259420   2.908   6.371   2.828 -0.3968  0.2209 -0.7129
19146THY    HP259421   2.906   6.267   2.794 -1.7427 -1.2213 -0.2595
19146THY    HP359422   2.826   6.418   2.772 -0.5046  2.1958  1.6710
19146THY    HP459423   2.885   6.370   2.935  1.7511  0.7374 -1.0557
19146THY    CP359424   3.164   6.387   2.844 -0.1194  0.1333  0.2447
19146THY    HP559425   3.150   6.279   2.835  1.3598  2.6496 -0.2446
19146THY    HP659426   3.171   6.412   2.951 -3.0376  0.3811  0.2850
19146THY    HP759427   3.251   6.422   2.788  0.2998  0.4973 -0.2037
19146THY    CA359428   3.006   6.644   2.936  0.8605 -0.1609  0.5610
19146THY    HA359429   3.008   6.573   3.018  0.6656 -0.6803 -0.0598
19146THY    CA459430   2.989   6.778   2.959 -0.6210  0.3678  0.1138
19146THY    HA459431   2.970   6.815   3.059 -1.5802  0.3925 -0.4195
19146THY    CA559432   2.999   6.867   2.858  0.6394  0.8155 -0.1671
19146THY    CM159433   2.968   7.015   2.883 -0.0564 -0.5412 -0.1142
19146THY    HM159434   2.967   7.068   2.787 -3.0091  0.1849  1.3758
19146THY    HM259435   3.047   7.065   2.940  0.4430 -0.4609 -0.9888
19146THY    HM359436   2.868   7.019   2.928  0.1057 -0.1668 -0.2298
19146THY    CA659437   3.031   6.827   2.727 -0.0020 -0.2530  0.2696
19146THY    HA659438   3.030   6.898   2.645  0.3405  0.5174  1.1875
19147THY      O59439   8.586   2.697   3.362 -0.5603 -0.4944 -0.1170
19147THY     HO59440   8.579   2.613   3.410 -0.4175  0.9423  0.6598
19147THY    CA159441   8.666   2.673   3.259  0.4310  0.0656  0.9311
19147THY    CA259442   8.631   2.695   3.125  0.4740  0.0102 -0.0135
19147THY    CP159443   8.494   2.753   3.094 -0.8380 -0.1692  0.2265
19147THY    HP159444   8.437   2.780   3.184 -0.3955 -0.0874  0.9137
19147THY    CP259445   8.414   2.644   3.019  0.6932 -0.4046 -0.4287
19147THY    HP259446   8.391   2.566   3.092 -0.2260 -1.1062 -0.8334
19147THY    HP359447   8.479   2.601   2.942  2.0490  1.1291 -1.2041
19147THY    HP459448   8.327   2.695   2.976  0.8264 -0.1963 -0.0213
19147THY    CP359449   8.496   2.881   3.009 -0.0252 -0.0825 -0.0477
19147THY    HP559450   8.405   2.941   3.020  0.7509 -3.8877  2.1748
19147THY    HP659451   8.524   2.861   2.904  0.0203  0.1029 -1.0017
19147THY    HP759452   8.572   2.944   3.056 -0.2252  0.1754  0.0030
19147THY    CA359453   8.718   2.668   3.016  0.0811  0.9099  0.3577
19147THY    HA359454   8.705   2.694   2.911 -0.3279  0.8610 -0.0452
19147THY    CA459455   8.843   2.620   3.051  0.2460 -0.1895 -0.5598
19147THY    HA459456   8.919   2.597   2.977  2.4477  0.7795  2.8514
19147THY    CA559457   8.885   2.597   3.178  0.0898  0.0438 -0.8652
19147THY    CM159458   9.017   2.530   3.195  1.0572 -0.3377 -0.3399
19147THY    HM159459   9.012   2.424   3.224  2.1363  2.7905  0.3585
19147THY    HM259460   9.081   2.576   3.271  1.6335  0.1593 -1.8989
19147THY    HM359461   9.069   2.517   3.099  1.3640 -0.0723 -1.1221
19147THY    CA659462   8.795   2.620   3.286 -0.6378  0.4956  0.5972
19147THY    HA659463   8.827   2.600   3.388 -1.4086  0.7810  0.7920
19148THY      O59464   1.570   1.531   3.334 -0.0186  0.7541  0.4225
19148THY     HO59465   1.658   1.571   3.341 -1.6208 -1.1288  4.9482
19148THY    CA159466   1.591   1.403   3.290  0.1805  0.4843  0.1357
19148THY    CA259467   1.487   1.306   3.289 -0.2264  0.2731 -0.1605
19148THY    CP159468   1.344   1.346   3.305 -0.6859 -0.6803  0.1824
19148THY    HP159469   1.340   1.453   3.328 -1.0484 -1.0442  0.2480
19148THY    CP259470   1.282   1.273   3.424 -0.0889 -0.3078 -0.8106
19148THY    HP259471   1.265   1.167   3.402  0.6551 -2.3667 -0.5379
19148THY    HP359472   1.180   1.308   3.445  1.0264  0.8849  2.0603
19148THY    HP459473   1.347   1.271   3.512 -0.2371 -0.0755  1.6057
19148THY    CP359474   1.277   1.327   3.177  0.3501  0.3269 -0.0606
19148THY    HP559475   1.270   1.223   3.145  0.4712 -0.4808  0.1761
19148THY    HP659476   1.308   1.397   3.099  0.3269  1.5098  1.3100
19148THY    HP759477   1.169   1.345   3.187 -0.0464 -1.4504 -1.2465
19148THY    CA359478   1.528   1.171   3.269  0.0130  0.2556  0.6867
19148THY    HA359479   1.462   1.085   3.275  1.2638  1.3917 -0.2362
19148THY    CA459480   1.661   1.139   3.249 -0.4917  1.2955 -0.2294
19148THY    HA459481   1.692   1.037   3.230  0.3453 -0.7616  0.3624
19148THY    CA559482   1.749   1.241   3.219 -0.2506 -0.0877 -0.5406
19148THY    CM159483   1.893   1.202   3.189 -0.1453  0.1198 -0.0931
19148THY    HM159484   1.947   1.276   3.128 -0.0124  1.6149  1.0963
19148THY    HM259485   1.914   1.106   3.142  0.6744  0.8927 -0.3048
19148THY    HM359486   1.941   1.193   3.287  0.1999 -0.1706 -1.6753
19148THY    CA659487   1.719   1.372   3.256 -1.0778 -0.1699  0.4828
19148THY    HA659488   1.783   1.459   3.249 -0.3635  1.6722  0.1688
19149THY      O59489   3.139   6.466   5.356 -0.5763  0.1692  0.0620
19149THY     HO59490   3.186   6.519   5.422 -0.2318 -1.3237  1.6961
19149THY    CA159491   3.207   6.483   5.240  0.4938  0.3646 -0.6948
19149THY    CA259492   3.161   6.418   5.119  0.2994 -0.1883 -0.9208
19149THY    CP159493   3.025   6.347   5.116  0.7076 -0.3198  0.4614
19149THY    HP159494   2.963   6.400   5.189  0.6501 -0.6303  0.8315
19149THY    CP259495   3.036   6.192   5.155 -0.8755 -0.1351 -0.0652
19149THY    HP259496   3.108   6.131   5.099  0.4477  2.7006 -1.3142
19149THY    HP359497   2.938   6.145   5.143  0.8944 -1.0833 -3.8729
19149THY    HP459498   3.055   6.174   5.262 -0.7233 -0.2467 -0.5778
19149THY    CP359499   2.941   6.369   4.991  0.3465  0.3987  0.1341
19149THY    HP559500   2.835   6.341   5.002  0.1352 -2.0111 -0.2642
19149THY    HP659501   2.976   6.329   4.895  1.7582  1.4367 -1.2618
19149THY    HP759502   2.945   6.476   4.969  0.3678 -1.6700 -0.2581
19149THY    CA359503   3.253   6.421   5.011 -0.0322 -0.4511  0.6672
19149THY    HA359504   3.234   6.366   4.920 -0.8946  0.0247  0.1460
19149THY    CA459505   3.366   6.510   5.012 -0.2320 -0.2030 -0.2226
19149THY    HA459506   3.425   6.521   4.922 -0.7474 -0.9708 -2.8197
19149THY    CA559507   3.406   6.577   5.130 -0.5316  0.2624  0.1375
19149THY    CM159508   3.544   6.646   5.132 -0.1959  0.4021  0.5051
19149THY    HM159509   3.556   6.744   5.180 -0.4934  0.7573  0.3723
19149THY    HM259510   3.593   6.649   5.034 -0.4121  0.2704 -0.0954
19149THY    HM359511   3.615   6.586   5.189  1.6919 -0.7333  1.5504
19149THY    CA659512   3.322   6.568   5.239  0.0358 -0.5169  0.0846
19149THY    HA659513   3.352   6.616   5.332 -0.8033 -0.3017  0.2105
19150THY      O59514   7.308   7.237   4.726 -0.0020  0.4273  0.3079
19150THY     HO59515   7.260   7.214   4.644  2.3214 -1.3037  1.1955
19150THY    CA159516   7.228   7.204   4.829  0.4195 -0.2388  0.3427
19150THY    CA259517   7.263   7.213   4.962  0.4475  0.3026 -0.4945
19150THY    CP159518   7.406   7.263   4.993 -0.1574  0.3797  1.0514
19150THY    HP159519   7.476   7.262   4.909  1.0683  1.2312 -3.1867
19150THY    CP259520   7.491   7.163   5.073  0.2192 -0.0143  0.1246
19150THY    HP259521   7.583   7.189   5.127  0.6622 -0.0872 -1.2211
19150THY    HP359522   7.506   7.073   5.012 -0.4171 -0.3536  0.2454
19150THY    HP459523   7.431   7.136   5.160  1.6928  1.4759  1.4135
19150THY    CP359524   7.411   7.399   5.051  0.3008  0.2468 -0.4186
19150THY    HP559525   7.344   7.470   5.002  3.4886 -1.7159  1.4992
19150THY    HP659526   7.513   7.437   5.033 -0.6126 -0.7014  1.7355
19150THY    HP759527   7.388   7.391   5.158  1.4533  0.6689  1.3369
19150THY    CA359528   7.163   7.186   5.058  0.0908  0.0519 -0.4879
19150THY    HA359529   7.186   7.186   5.164  2.7684 -0.3771 -3.1437
19150THY    CA459530   7.041   7.143   5.016 -0.5183 -0.5853  0.4313
19150THY    HA459531   6.964   7.112   5.086 -0.7647 -1.3987 -0.8714
19150THY    CA559532   7.009   7.135   4.882  0.1181  0.4039  0.1239
19150THY    CM159533   6.870   7.091   4.839  0.1695 -0.0261 -0.3623
19150THY    HM159534   6.867   7.011   4.764 -0.1843  0.1077 -0.4716
19150THY    HM259535   6.822   7.179   4.795 -0.9827  0.8286 -0.5482
19150THY    HM359536   6.796   7.064   4.915 -1.4376 -1.3913  0.0242
19150THY    CA659537   7.106   7.158   4.786  0.4294 -0.1897  0.6897
19150THY    HA659538   7.077   7.148   4.682 -1.2852  0.1322  1.8925
19151THY      O59539   6.940   0.774   6.196 -0.3139  0.0700 -0.2398
19151THY     HO59540   7.029   0.754   6.230 -0.4491  0.6748  0.1684
19151THY    CA159541   6.858   0.708   6.276 -0.2670 -0.0937  0.2481
19151THY    CA259542   6.723   0.729   6.262  0.3015 -0.1202  0.0844
19151THY    CP159543   6.670   0.842   6.169  0.0827  0.6644  0.0329
19151THY    HP159544   6.744   0.910   6.124 -3.5071 -2.2912  2.4212
19151THY    CP259545   6.590   0.936   6.260 -0.0452  0.1554 -0.3706
19151THY    HP259546   6.511   0.889   6.321 -0.9299  0.5073  1.4840
19151THY    HP359547   6.549   1.024   6.210  3.2993 -1.2963  0.4980
19151THY    HP459548   6.663   0.979   6.328  1.1131 -2.2704  1.7373
19151THY    CP359549   6.574   0.790   6.066  0.6214  0.2259  0.0798
19151THY    HP559550   6.505   0.870   6.035  1.6654 -1.5616  0.3274
19151THY    HP659551   6.511   0.720   6.122  0.2486  0.6272  0.7263
19151THY    HP759552   6.619   0.747   5.976  1.3591  0.0479  1.1740
19151THY    CA359553   6.632   0.644   6.332 -1.0415  0.4772 -0.7782
19151THY    HA359554   6.525   0.656   6.323 -0.9506  0.0799 -0.2030
19151THY    CA459555   6.680   0.555   6.426  0.4798 -0.2124 -0.1864
19151THY    HA459556   6.603   0.500   6.479 -2.8697 -4.2492  0.1076
19151THY    CA559557   6.815   0.531   6.434  0.1746  1.0889 -0.5481
19151THY    CM159558   6.874   0.426   6.528 -0.6161  0.5509  0.5267
19151THY    HM159559   6.973   0.457   6.564 -0.8045  0.7076  0.9541
19151THY    HM259560   6.897   0.341   6.462  0.0897  0.4872  0.7582
19151THY    HM359561   6.809   0.401   6.612 -1.7490 -0.9635 -1.8775
19151THY    CA659562   6.905   0.609   6.361 -0.8104 -0.3423 -0.8134
19151THY    HA659563   7.011   0.588   6.356 -0.7478 -0.5648 -0.4513
19152THY      O59564   8.387   5.250   2.423 -0.1254 -0.0566  0.1703
19152THY     HO59565   8.395   5.255   2.519  1.9972 -0.2244  0.9461
19152THY    CA159566   8.281   5.323   2.389 -0.0316 -0.1342  0.5566
19152THY    CA259567   8.207   5.288   2.271  0.3949 -0.4422 -0.2066
19152THY    CP159568   8.261   5.183   2.167  0.6212  0.2556 -0.5353
19152THY    HP159569   8.330   5.113   2.217  0.5393  1.6342  0.3307
19152THY    CP259570   8.335   5.259   2.052 -0.1331 -0.4284 -0.0078
19152THY    HP259571   8.267   5.296   1.974 -0.0370 -1.6870 -2.3101
19152THY    HP359572   8.404   5.189   2.002 -1.6109 -0.1379 -1.7379
19152THY    HP459573   8.390   5.344   2.094  0.1595 -1.5639  0.3907
19152THY    CP359574   8.139   5.102   2.122 -0.2420  0.6991  0.3791
19152THY    HP559575   8.073   5.075   2.205 -0.2605  0.6187  0.1797
19152THY    HP659576   8.168   5.015   2.063  0.2054 -0.4266  1.2613
19152THY    HP759577   8.070   5.161   2.060  1.4352 -0.4181  1.2524
19152THY    CA359578   8.085   5.354   2.247  0.0183  0.2481 -0.6120
19152THY    HA359579   8.026   5.337   2.158 -0.6997  0.9139 -1.7666
19152THY    CA459580   8.033   5.447   2.345  0.2351  0.3423 -1.0893
19152THY    HA459581   7.934   5.491   2.337  0.2450  1.4007 -0.8321
19152THY    CA559582   8.100   5.466   2.464 -0.2969 -0.4071 -0.0774
19152THY    CM159583   8.056   5.572   2.559 -0.3354 -0.4022  0.0082
19152THY    HM159584   7.967   5.547   2.618 -0.4995 -0.1694  1.0906
19152THY    HM259585   8.039   5.660   2.495 -0.2232 -0.8566 -0.2971
19152THY    HM359586   8.123   5.613   2.635 -1.9257  0.6944  0.6821
19152THY    CA659587   8.226   5.403   2.486  0.4641  0.1001  0.3886
19152THY    HA659588   8.277   5.414   2.582 -1.6957  1.2939  0.6226
19153THY      O59589   6.356   3.098   3.501  0.0571 -0.1843  0.2212
19153THY     HO59590   6.429   3.130   3.446  1.0107  1.5038  1.0057
19153THY    CA159591   6.251   3.096   3.421 -0.0842  0.1204 -0.7969
19153THY    CA259592   6.121   3.127   3.468 -0.3416 -0.0939 -0.2356
19153THY    CP159593   6.099   3.165   3.610  0.1457 -0.3654 -0.1444
19153THY    HP159594   6.189   3.147   3.670  0.1808 -0.6341 -0.9114
19153THY    CP259595   5.984   3.091   3.672  0.0775 -0.2042 -0.0839
19153THY    HP259596   5.961   3.118   3.776  0.1040  0.1648 -1.4122
19153THY    HP359597   5.987   2.982   3.673 -2.8859 -1.6185 -0.3077
19153THY    HP459598   5.892   3.113   3.616 -0.3036  1.4337  3.1069
19153THY    CP359599   6.073   3.311   3.633  0.6200 -0.0292 -0.0768
19153THY    HP559600   6.059   3.329   3.740  1.4685  0.1606 -0.4917
19153THY    HP659601   5.991   3.345   3.569  1.0387  0.8407  2.9341
19153THY    HP759602   6.156   3.374   3.597  0.3885 -3.0857 -1.3564
19153THY    CA359603   6.014   3.150   3.381  0.3413  0.0670  0.3368
19153THY    HA359604   5.916   3.185   3.410  0.0018  0.4635 -0.9008
19153THY    CA459605   6.039   3.129   3.244  0.1266 -0.5511  0.1577
19153THY    HA459606   5.955   3.155   3.181  1.0257 -1.8187  0.0438
19153THY    CA559607   6.165   3.080   3.196  1.0104  0.1570  0.0838
19153THY    CM159608   6.191   3.052   3.049 -0.1155 -1.0356  0.3660
19153THY    HM159609   6.099   3.002   3.015 -1.0800  2.4801 -0.5864
19153THY    HM259610   6.282   2.992   3.032  1.2043  0.1497  1.9490
19153THY    HM359611   6.209   3.146   2.997 -2.3123 -1.8743  0.3913
19153THY    CA659612   6.270   3.060   3.282  0.7512 -0.4077 -0.4950
19153THY    HA659613   6.363   3.018   3.244  1.5062  2.4385 -1.5910
19154THY      O59614   1.572   1.088   4.246 -0.4504  0.9831  0.3471
19154THY     HO59615   1.581   1.003   4.294 -1.4056 -0.9184 -0.9005
19154THY    CA159616   1.483   1.164   4.317 -0.2945 -0.3208 -1.5495
19154THY    CA259617   1.454   1.299   4.278 -0.1949 -0.1773 -0.4317
19154THY    CP159618   1.534   1.366   4.162 -0.2586  0.1254  0.0308
19154THY    HP159619   1.562   1.297   4.081  1.0070  0.4778  0.1010
19154THY    CP259620   1.672   1.415   4.205 -0.1102  0.2633  0.0510
19154THY    HP259621   1.736   1.446   4.123  2.0104  0.2140 -3.8308
19154THY    HP359622   1.728   1.331   4.247  1.1700  1.4858  1.4477
19154THY    HP459623   1.664   1.484   4.290  1.7692 -0.5051  1.2755
19154THY    CP359624   1.482   1.481   4.078  0.3226  0.5077  0.6855
19154THY    HP559625   1.473   1.564   4.149 -0.2567  0.2408  0.8550
19154THY    HP659626   1.383   1.466   4.033  0.6068  0.8186 -2.9728
19154THY    HP759627   1.559   1.499   4.001  0.3311 -0.0937 -1.6075
19154THY    CA359628   1.355   1.367   4.345 -0.8572 -0.4423  0.2993
19154THY    HA359629   1.336   1.474   4.333  1.4230  1.3784  1.0247
19154THY    CA459630   1.284   1.299   4.452  0.0365 -0.7050 -0.1355
19154THY    HA459631   1.209   1.352   4.510 -0.4405 -0.2673 -1.2818
19154THY    CA559632   1.310   1.163   4.490 -0.5834 -0.5230  0.2238
19154THY    CM159633   1.230   1.095   4.601 -0.0239 -0.3860  0.6590
19154THY    HM159634   1.304   1.085   4.681  1.0912 -1.4998 -0.2638
19154THY    HM259635   1.183   1.003   4.565 -0.2468  0.7877  0.3001
19154THY    HM359636   1.149   1.166   4.624 -2.3787  1.0270 -2.2505
19154THY    CA659637   1.412   1.104   4.421  0.6308 -0.1071  0.8943
19154THY    HA659638   1.432   1.003   4.455  0.0010 -1.4417  0.3011
19155THY      O59639   2.140   1.424   2.729  0.2643  0.3808 -0.2190
19155THY     HO59640   2.094   1.398   2.648  1.0045 -0.3867  0.7763
19155THY    CA159641   2.272   1.434   2.694 -0.7305 -0.6222 -0.4097
19155THY    CA259642   2.354   1.543   2.730  0.3034  0.3104  0.3336
19155THY    CP159643   2.300   1.662   2.812 -0.2960 -0.9321 -0.3164
19155THY    HP159644   2.198   1.643   2.849  0.5902  1.3787 -0.9442
19155THY    CP259645   2.304   1.798   2.742 -0.1915 -0.0736 -0.6109
19155THY    HP259646   2.288   1.888   2.802 -0.7442 -0.1411 -0.6624
19155THY    HP359647   2.237   1.815   2.656 -1.7608  1.5561  2.2713
19155THY    HP459648   2.394   1.802   2.680 -1.3724 -1.9046 -1.1531
19155THY    CP359649   2.376   1.679   2.957 -0.0882  0.1227 -0.1975
19155THY    HP559650   2.360   1.775   3.007 -0.7586  0.1646 -0.3291
19155THY    HP659651   2.483   1.680   2.932  0.8401  3.4960 -1.5175
19155THY    HP759652   2.366   1.586   3.014  0.7930 -0.5296 -0.7073
19155THY    CA359653   2.488   1.541   2.686  0.2834 -0.1994  0.1367
19155THY    HA359654   2.547   1.627   2.714 -1.2226  1.3475  0.7310
19155THY    CA459655   2.538   1.434   2.613 -0.4976 -0.5015 -0.4849
19155THY    HA459656   2.643   1.440   2.589  0.2018  2.0102 -1.2503
19155THY    CA559657   2.455   1.325   2.583  0.4489 -0.3161  0.5028
19155THY    CM159658   2.511   1.196   2.513  0.4410 -0.1579  0.7611
19155THY    HM159659   2.604   1.220   2.461 -0.3541 -2.6817 -1.2706
19155THY    HM259660   2.438   1.147   2.449  0.6998  0.8667 -1.0435
19155THY    HM359661   2.536   1.120   2.588 -2.0830 -1.3515 -1.4064
19155THY    CA659662   2.323   1.328   2.621  0.1525  0.0766  0.6291
19155THY    HA659663   2.259   1.243   2.601  3.3012  0.6696 -2.0418
19156THY      O59664   8.955   7.407   2.506  0.1438  0.4555  0.3399
19156THY     HO59665   9.048   7.428   2.489 -0.5533 -1.8737  1.9910
19156THY    CA159666   8.914   7.310   2.424 -0.0360  0.6011  0.1646
19156THY    CA259667   8.778   7.289   2.413  0.4727 -0.1166  0.2348
19156THY    CP159668   8.683   7.352   2.514  0.4545 -0.2306  0.6714
19156THY    HP159669   8.739   7.394   2.598  2.8650 -1.6522  0.5624
19156THY    CP259670   8.578   7.260   2.576  0.4942  0.1985 -0.1575
19156THY    HP259671   8.627   7.182   2.637  0.5421 -0.6417 -0.7968
19156THY    HP359672   8.501   7.212   2.514 -0.1744  0.7005  0.2433
19156THY    HP459673   8.523   7.328   2.642 -2.1815 -3.9739  2.1517
19156THY    CP359674   8.604   7.461   2.450  0.1343  0.0245  0.1857
19156THY    HP559675   8.545   7.515   2.526 -0.5697  0.0019 -0.5303
19156THY    HP659676   8.526   7.424   2.382 -0.6262  1.1465 -0.3327
19156THY    HP759677   8.663   7.524   2.383  0.4664 -0.4570 -0.6182
19156THY    CA359678   8.732   7.190   2.327 -0.4207 -0.1950 -0.5286
19156THY    HA359679   8.627   7.165   2.335 -1.1899 -1.0519  2.0428
19156THY    CA459680   8.822   7.130   2.233 -0.5192 -0.1751 -0.0631
19156THY    HA459681   8.797   7.051   2.163 -0.0339 -1.2488  0.7057
19156THY    CA559682   8.959   7.163   2.235 -0.5107  0.4458 -0.2664
19156THY    CM159683   9.055   7.112   2.134  0.2852  0.2696 -0.0682
19156THY    HM159684   9.159   7.122   2.167  0.2925  1.1501 -2.4026
19156THY    HM259685   9.034   7.168   2.043 -1.3103  1.8287  2.0249
19156THY    HM359686   9.044   7.013   2.087 -0.3337 -2.3205  1.1650
19156THY    CA659687   9.003   7.260   2.326 -0.5015 -0.7212  0.0719
19156THY    HA659688   9.106   7.294   2.326 -0.5173  0.6384  0.1589
19157THY      O59689   0.820   8.693   3.743  0.3930 -0.1071 -0.0827
19157THY     HO59690   0.730   8.720   3.770  0.7253 -1.2747  2.5771
19157THY    CA159691   0.827   8.559   3.724  0.4665  0.8586  0.0640
19157THY    CA259692   0.949   8.494   3.724  0.0828  0.3541 -0.5675
19157THY    CP159693   1.077   8.582   3.747 -0.0751 -0.2020 -0.5145
19157THY    HP159694   1.053   8.677   3.795 -2.2054  0.7709 -1.4764
19157THY    CP259695   1.129   8.621   3.604  0.6084  0.7141 -0.0122
19157THY    HP259696   1.114   8.536   3.537  3.6198  1.3359 -1.1733
19157THY    HP359697   1.236   8.644   3.598  0.6015  1.3543  0.2132
19157THY    HP459698   1.075   8.701   3.551  0.7441  0.6533  0.0402
19157THY    CP359699   1.179   8.515   3.838 -0.0612  0.3618 -0.4659
19157THY    HP559700   1.204   8.415   3.800  0.6719  0.9887 -0.5337
19157THY    HP659701   1.142   8.497   3.940 -0.5761  0.6327  1.8614
19157THY    HP759702   1.271   8.573   3.852 -0.8824  2.5995  0.3761
19157THY    CA359703   0.955   8.357   3.696 -0.3233  0.4432  0.7491
19157THY    HA359704   1.045   8.297   3.685 -3.4633  0.0600 -4.5954
19157THY    CA459705   0.839   8.289   3.670 -0.2371  0.0232  0.0992
19157THY    HA459706   0.840   8.186   3.635 -2.8372  0.5633 -0.1834
19157THY    CA559707   0.716   8.355   3.683 -0.0382  0.3177  0.5834
19157THY    CM159708   0.589   8.273   3.654 -0.2100  0.1891 -0.1823
19157THY    HM159709   0.608   8.231   3.554  0.9787 -0.7642  2.4294
19157THY    HM259710   0.491   8.319   3.673 -0.0521  0.4517  0.0439
19157THY    HM359711   0.588   8.196   3.732 -0.8194  0.8504  0.4902
19157THY    CA659712   0.707   8.491   3.701 -0.1282  0.4270  0.0766
19157THY    HA659713   0.617   8.549   3.680  0.6889 -0.7997  0.9468
19158THY      O59714   0.683   5.477   7.142  0.0151  0.3729  0.0264
19158THY     HO59715   0.755   5.412   7.153 -0.9188 -1.4161 -1.3929
19158THY    CA159716   0.630   5.438   7.022 -0.2370 -0.0660 -0.0465
19158THY    CA259717   0.508   5.477   6.982  0.9718  0.3998  0.4669
19158THY    CP159718   0.418   5.554   7.076 -0.1075  0.6251  0.5436
19158THY    HP159719   0.462   5.555   7.176 -0.3416  0.8595 -2.3755
19158THY    CP259720   0.284   5.490   7.092  0.1685  0.1279 -0.0803
19158THY    HP259721   0.309   5.387   7.119 -1.8491 -0.7510 -0.8384
19158THY    HP359722   0.220   5.496   7.003 -3.0758  2.3994  2.8041
19158THY    HP459723   0.232   5.534   7.178 -0.1564  0.3474 -0.8858
19158THY    CP359724   0.408   5.698   7.029  0.4455 -0.8627  0.0355
19158THY    HP559725   0.342   5.710   6.942  0.3408 -0.9481 -1.0803
19158THY    HP659726   0.507   5.745   7.026  0.6642 -3.0198 -0.4386
19158THY    HP759727   0.343   5.748   7.102 -0.1040  0.4474 -2.4613
19158THY    CA359728   0.462   5.444   6.852 -0.5679 -0.2106  0.3701
19158THY    HA359729   0.367   5.485   6.819 -0.7304  1.9094  1.8734
19158THY    CA459730   0.543   5.357   6.769 -0.0621 -0.6019  0.9633
19158THY    HA459731   0.510   5.326   6.670 -0.1918  0.5756 -3.3713
19158THY    CA559732   0.667   5.318   6.815 -0.0160 -0.4830  0.8441
19158THY    CM159733   0.758   5.240   6.735  0.0263  0.3319  0.2923
19158THY    HM159734   0.781   5.154   6.798  1.0213 -0.6032 -0.1548
19158THY    HM259735   0.844   5.303   6.709 -1.1770 -1.3077  1.3447
19158THY    HM359736   0.703   5.197   6.651 -2.7339  1.1906  1.8889
19158THY    CA659737   0.708   5.359   6.940 -0.7205 -0.5673  0.5682
19158THY    HA659738   0.801   5.322   6.982 -1.8209  1.3246 -0.1976
19159THY      O59739   1.095   5.723   5.523  0.3836 -0.5110  0.2730
19159THY     HO59740   1.181   5.766   5.510  0.5057 -2.1523 -0.3836
19159THY    CA159741   1.018   5.778   5.626 -0.1190  0.3376  0.0366
19159THY    CA259742   0.891   5.733   5.651 -0.0663  0.1912  0.0812
19159THY    CP159743   0.818   5.629   5.566 -0.1674  0.0338 -0.3397
19159THY    HP159744   0.880   5.620   5.476  1.6793  1.2766 -0.8257
19159THY    CP259745   0.679   5.682   5.524 -0.3186  0.2015 -0.3127
19159THY    HP259746   0.692   5.786   5.491  4.1032  1.9756 -0.0743
19159THY    HP359747   0.600   5.663   5.598 -0.2023  0.6107  0.7337
19159THY    HP459748   0.641   5.625   5.439 -2.3274 -1.1064  2.6712
19159THY    CP359749   0.806   5.488   5.634  0.8216 -0.0129 -0.4176
19159THY    HP559750   0.704   5.457   5.660  0.8658 -0.3521 -0.8460
19159THY    HP659751   0.863   5.493   5.727  0.5520  0.2693 -2.0555
19159THY    HP759752   0.849   5.409   5.572 -0.6953  1.3772 -2.4199
19159THY    CA359753   0.812   5.786   5.753 -0.4195 -0.8485  0.2120
19159THY    HA359754   0.713   5.745   5.771  0.4229 -1.8807 -2.4666
19159THY    CA459755   0.870   5.880   5.839 -0.0686 -0.1446 -0.7740
19159THY    HA459756   0.815   5.917   5.925  2.1660  1.2733 -0.5951
19159THY    CA559757   1.000   5.928   5.820 -0.0626  0.1260  0.5828
19159THY    CM159758   1.053   6.042   5.895 -0.0372 -0.1658  0.6651
19159THY    HM159759   1.108   6.001   5.981 -0.1064 -0.2627  0.3675
19159THY    HM259760   0.965   6.097   5.931 -1.4913 -2.7132  0.1561
19159THY    HM359761   1.121   6.105   5.837 -1.3640 -0.4985  1.8344
19159THY    CA659762   1.070   5.881   5.705 -0.2761 -0.6348  0.9048
19159THY    HA659763   1.167   5.919   5.675  0.7576  0.5388 -0.6813
19160THY      O59764   0.852   7.768   5.090  0.0829 -0.1413 -0.3859
19160THY     HO59765   0.846   7.730   5.001 -1.8549  0.9466 -2.8975
19160THY    CA159766   0.763   7.697   5.168  0.2129  0.1369  0.1804
19160THY    CA259767   0.712   7.751   5.289  0.5069 -0.6032 -0.4945
19160THY    CP159768   0.747   7.890   5.329 -0.2218 -0.2393 -0.0135
19160THY    HP159769   0.820   7.938   5.263  0.0839 -0.2544 -0.4875
19160THY    CP259770   0.814   7.886   5.466  0.5125 -0.3554  0.4022
19160THY    HP259771   0.907   7.830   5.449 -0.0321 -0.9754 -0.3460
19160THY    HP359772   0.756   7.825   5.536  0.7733 -2.1122 -2.0479
19160THY    HP459773   0.833   7.987   5.503  1.0775  0.7605 -0.1033
19160THY    CP359774   0.625   7.979   5.354 -0.2716  0.6780  0.1330
19160THY    HP559775   0.578   8.003   5.258  1.1890 -0.1655 -0.2407
19160THY    HP659776   0.652   8.079   5.389 -0.8951  0.6360  0.3197
19160THY    HP759777   0.561   7.927   5.426 -0.7937  0.0029 -0.1878
19160THY    CA359778   0.618   7.678   5.374 -0.3311  0.8395 -0.5303
19160THY    HA359779   0.584   7.704   5.474 -0.5906  0.3889  0.9885
19160THY    CA459780   0.582   7.559   5.318  0.2516  0.6328  0.8833
19160THY    HA459781   0.514   7.502   5.380  0.2849 -0.7862 -0.7840
19160THY    CA559782   0.649   7.496   5.209 -0.1438 -0.0343  0.3539
19160THY    CM159783   0.620   7.345   5.180  0.3495 -0.1056 -0.3700
19160THY    HM159784   0.531   7.319   5.240 -0.2201  0.3726  2.4147
19160THY    HM259785   0.694   7.275   5.220  1.6015 -2.9521 -0.7835
19160THY    HM359786   0.604   7.331   5.073 -2.7481  0.0189  1.2882
19160THY    CA659787   0.733   7.568   5.128 -0.5297  0.2533  0.1015
19160THY    HA659788   0.766   7.523   5.035 -0.4368 -0.0915  0.8665
19161THY      O59789   8.966   9.402   2.020 -0.3870 -0.3143 -0.0484
19161THY     HO59790   8.884   9.439   1.982  1.1920 -1.8354  2.1585
19161THY    CA159791   8.954   9.273   2.061 -0.8635 -0.3046 -0.4207
19161THY    CA259792   9.065   9.207   2.111 -0.0741 -0.2402 -0.9695
19161THY    CP159793   9.190   9.287   2.156  0.6328 -0.5479 -0.7376
19161THY    HP159794   9.147   9.387   2.171 -0.5882 -0.1530 -1.3086
19161THY    CP259795   9.296   9.293   2.055 -0.5003  0.4437  0.0083
19161THY    HP259796   9.322   9.189   2.031  2.8927 -0.3704  0.9133
19161THY    HP359797   9.388   9.352   2.067 -1.1141 -1.2430  1.3966
19161THY    HP459798   9.252   9.337   1.965 -0.6895  0.1361 -0.7965
19161THY    CP359799   9.246   9.235   2.290  0.0143 -0.2350  0.0727
19161THY    HP559800   9.167   9.222   2.365  1.6821  1.4746 -0.7347
19161THY    HP659801   9.301   9.320   2.333  0.2736 -0.1840 -0.1210
19161THY    HP759802   9.301   9.140   2.284 -1.4297 -0.8715 -0.7488
19161THY    CA359803   9.063   9.068   2.125 -0.2123  0.5098 -0.5850
19161THY    HA359804   9.149   9.013   2.160  0.7750 -0.0125  0.5722
19161THY    CA459805   8.953   8.997   2.093 -0.0935  0.2530 -0.4675
19161THY    HA459806   8.951   8.889   2.101 -1.7376 -0.1006 -0.4916
19161THY    CA559807   8.837   9.060   2.050  0.2233  0.9549  0.2088
19161THY    CM159808   8.712   8.989   2.035 -0.3115 -0.5722 -0.3341
19161THY    HM159809   8.621   9.049   2.042 -1.0152  0.4391 -1.4584
19161THY    HM259810   8.710   8.899   2.099  2.2284 -0.2361 -0.2148
19161THY    HM359811   8.702   8.951   1.932 -0.0240 -0.5015 -0.6035
19161THY    CA659812   8.838   9.197   2.031 -0.0115 -0.0586  0.2813
19161THY    HA659813   8.744   9.240   1.995  0.0767 -0.1205  0.4221
19162THY      O59814   0.992   3.590   7.372 -0.1798 -0.1355 -0.4865
19162THY     HO59815   1.078   3.632   7.389 -1.2035  0.1775  1.6102
19162THY    CA159816   1.023   3.460   7.353 -0.4224  0.4486 -0.3668
19162THY    CA259817   0.938   3.372   7.290 -0.1191  0.6060 -0.4171
19162THY    CP159818   0.791   3.406   7.254 -0.7032  0.0513  0.6590
19162THY    HP159819   0.751   3.497   7.299 -2.5863  0.7218 -0.4660
19162THY    CP259820   0.703   3.302   7.319  0.2371  0.1787 -0.1600
19162THY    HP259821   0.600   3.336   7.305 -0.2073  2.6761 -0.2869
19162THY    HP359822   0.718   3.298   7.428 -1.4359  0.4263 -0.5600
19162THY    HP459823   0.710   3.201   7.279  0.9475  1.6373 -0.7280
19162THY    CP359824   0.762   3.394   7.098  0.0786  0.4601  0.3832
19162THY    HP559825   0.810   3.482   7.053  1.7136  0.7374 -0.3234
19162THY    HP659826   0.653   3.396   7.087  0.1014  0.2150  0.2846
19162THY    HP759827   0.800   3.306   7.045 -0.4378  0.6539  0.0381
19162THY    CA359828   0.979   3.238   7.274 -0.1664 -0.8919  0.2525
19162THY    HA359829   0.926   3.158   7.223  1.6295  0.7477 -2.1097
19162THY    CA459830   1.109   3.203   7.307  0.7053  0.7282  0.3713
19162THY    HA459831   1.144   3.102   7.287 -0.7100  1.6726 -0.3323
19162THY    CA559832   1.189   3.284   7.387 -0.3733  0.1373 -0.2303
19162THY    CM159833   1.333   3.251   7.410 -0.4366 -0.2369 -0.0748
19162THY    HM159834   1.350   3.277   7.515  0.0214 -0.3478  0.0883
19162THY    HM259835   1.397   3.310   7.344  1.6695 -0.5499 -2.5521
19162THY    HM359836   1.356   3.144   7.397  0.3085 -0.0473  0.0543
19162THY    CA659837   1.146   3.417   7.408  0.5415  0.9832 -0.0395
19162THY    HA659838   1.204   3.491   7.463 -1.7820  1.0742  1.8795
19163THY      O59839   1.096   1.945   4.871  0.0682  0.3139  0.2264
19163THY     HO59840   1.175   1.892   4.890  0.7347  0.0254  1.0857
19163THY    CA159841   1.079   1.940   4.740  0.2351 -0.1872 -0.0029
19163THY    CA259842   1.003   2.034   4.669 -0.0747  0.0054  0.4913
19163THY    CP159843   0.936   2.153   4.743  0.2091  0.3665 -0.2593
19163THY    HP159844   1.008   2.181   4.821 -1.1593  1.3899  0.5544
19163THY    CP259845   0.809   2.105   4.817  0.1430  0.4949  0.2930
19163THY    HP259846   0.818   2.003   4.857  1.6471  1.1429  0.6569
19163THY    HP359847   0.725   2.109   4.747  0.6572 -0.1378  0.2368
19163THY    HP459848   0.787   2.159   4.910  0.8746  0.1888  1.1429
19163THY    CP359849   0.908   2.269   4.659 -0.4576 -0.2363 -0.2177
19163THY    HP559850   0.995   2.281   4.595  0.4127  0.7663 -1.0585
19163THY    HP659851   0.906   2.361   4.719  0.7857  0.6164 -0.7272
19163THY    HP759852   0.820   2.267   4.593 -1.1659  0.5796  1.3336
19163THY    CA359853   0.973   2.000   4.533  0.3208  0.0119  0.2298
19163THY    HA359854   0.918   2.067   4.468  2.4935  0.0254  2.1677
19163THY    CA459855   1.035   1.886   4.471  0.4162  0.1453 -0.8701
19163THY    HA459856   1.012   1.869   4.366  0.2991  0.4354 -2.6801
19163THY    CA559857   1.107   1.797   4.546 -0.1789 -0.3838 -0.1849
19163THY    CM159858   1.165   1.665   4.488 -0.0606 -0.0161  0.1211
19163THY    HM159859   1.119   1.570   4.519  0.7908  0.4012 -0.1741
19163THY    HM259860   1.269   1.653   4.523 -0.6036  1.4403 -0.6373
19163THY    HM359861   1.154   1.678   4.380 -0.4642  0.2644  2.6127
19163THY    CA659862   1.114   1.819   4.685 -0.3705 -0.2450  0.5816
19163THY    HA659863   1.172   1.744   4.738 -1.3684 -1.1587 -0.9032
19164THY      O59864   0.692   7.640   2.437  0.2983 -0.1905 -0.2174
19164THY     HO59865   0.684   7.544   2.454  0.2944 -0.2838 -0.2343
19164THY    CA159866   0.602   7.662   2.337  0.6070  0.1982  0.0970
19164THY    CA259867   0.528   7.779   2.330  0.6783 -0.0452  0.4766
19164THY    CP159868   0.564   7.899   2.414 -1.0643 -0.4135  0.1471
19164THY    HP159869   0.645   7.876   2.485 -1.1343  0.0691  1.3187
19164THY    CP259870   0.441   7.953   2.494 -0.4615 -0.1239  0.2888
19164THY    HP259871   0.355   7.975   2.430 -0.2580 -1.1625 -1.6993
19164THY    HP359872   0.468   8.047   2.545  2.1749 -0.7919 -0.0158
19164THY    HP459873   0.422   7.887   2.580 -1.8756 -0.6865 -0.0723
19164THY    CP359874   0.624   8.003   2.318 -0.1757 -0.2318  0.3959
19164THY    HP559875   0.551   8.029   2.241  0.0546 -0.5308  0.1729
19164THY    HP659876   0.708   7.956   2.265  1.1218  1.8616  0.2096
19164THY    HP759877   0.667   8.094   2.360 -0.0162 -2.6522  1.5174
19164THY    CA359878   0.418   7.791   2.235  0.8070  0.1007  0.2150
19164THY    HA359879   0.366   7.886   2.222  2.3113  0.2911  1.1069
19164THY    CA459880   0.391   7.677   2.149  0.7468 -0.8308  0.6377
19164THY    HA459881   0.308   7.689   2.079 -1.1267  1.2569  0.4335
19164THY    CA559882   0.479   7.568   2.150  0.9165 -0.3575  0.5536
19164THY    CM159883   0.458   7.445   2.064 -0.4178  0.1378  0.3765
19164THY    HM159884   0.350   7.436   2.049 -0.5810  1.0275  0.7099
19164THY    HM259885   0.501   7.355   2.111  1.5311  0.5130  1.4665
19164THY    HM359886   0.512   7.452   1.969  0.2378  0.5098  0.4126
19164THY    CA659887   0.579   7.562   2.248 -0.4707  0.1611 -0.2237
19164THY    HA659888   0.657   7.487   2.244  0.8922 -0.1799  1.1669
19165THY      O59889   3.732   7.069   7.452  0.8460  0.3968  0.4677
19165THY     HO59890   3.701   7.057   7.544  0.8550  0.4232  0.6320
19165THY    CA159891   3.673   7.185   7.414  0.0802  0.6082 -0.8293
19165THY    CA259892   3.701   7.235   7.285 -0.0624 -0.1804 -0.2127
19165THY    CP159893   3.801   7.148   7.200 -0.3968  0.1848  0.5432
19165THY    HP159894   3.802   7.040   7.220  0.2764 -1.3275  0.2351
19165THY    CP259895   3.951   7.196   7.227  0.4505 -0.3283  0.1051
19165THY    HP259896   3.957   7.304   7.210 -2.4092  1.5446  0.6797
19165THY    HP359897   4.021   7.156   7.153  2.0233  0.8901  0.4862
19165THY    HP459898   3.989   7.175   7.327  1.1219 -1.0450 -2.3575
19165THY    CP359899   3.773   7.161   7.047 -0.0786  0.5226 -0.6137
19165THY    HP559900   3.671   7.127   7.023 -0.2995 -1.3345  1.1909
19165THY    HP659901   3.851   7.118   6.983 -1.3892 -0.8109 -1.0930
19165THY    HP759902   3.760   7.268   7.025  0.4087 -1.5736 -0.9496
19165THY    CA359903   3.637   7.359   7.244 -0.2963 -0.7773 -0.1705
19165THY    HA359904   3.653   7.394   7.142 -0.1355 -0.5034  0.5706
19165THY    CA459905   3.556   7.423   7.338  0.4624  0.3284 -0.1637
19165THY    HA459906   3.502   7.510   7.302 -0.3049  1.6047 -0.0907
19165THY    CA559907   3.536   7.369   7.469 -0.2050  0.4367  0.4487
19165THY    CM159908   3.440   7.450   7.559 -0.6569 -0.2004  0.3761
19165THY    HM159909   3.486   7.522   7.628 -0.2084 -1.1052  0.9775
19165THY    HM259910   3.382   7.375   7.614 -1.7357 -3.6253 -1.5514
19165THY    HM359911   3.367   7.503   7.496  0.3035 -4.0086 -2.4362
19165THY    CA659912   3.602   7.249   7.512 -0.8594  0.8535  0.5028
19165THY    HA659913   3.585   7.195   7.604  0.1668 -0.1007 -1.5275
19166THY      O59914   1.003   7.390   6.095 -0.2444  0.2450 -0.5682
19166THY     HO59915   1.005   7.300   6.060 -0.9699 -2.1633  0.2743
19166THY    CA159916   0.874   7.417   6.132  0.2691 -0.3417  0.3390
19166THY    CA259917   0.843   7.502   6.241 -0.3049 -0.1806 -0.0470
19166THY    CP159918   0.955   7.576   6.321 -0.2365 -0.1331  0.1997
19166THY    HP159919   1.025   7.620   6.249 -2.8459 -1.8236  1.8163
19166THY    CP259920   1.034   7.480   6.411 -0.2601  0.4135  0.0034
19166THY    HP259921   0.953   7.451   6.480 -0.2614  0.7496  0.7666
19166THY    HP359922   1.110   7.535   6.468  0.5010 -0.3732 -0.2286
19166THY    HP459923   1.070   7.392   6.357  0.5119  0.4033  0.3147
19166THY    CP359924   0.900   7.690   6.416 -0.9575 -0.4426  0.0361
19166THY    HP559925   0.984   7.753   6.447 -2.5327  1.2786  1.3737
19166THY    HP659926   0.855   7.648   6.506 -1.8471 -0.5343  0.7793
19166THY    HP759927   0.823   7.755   6.372 -2.6715 -1.0653 -2.2975
19166THY    CA359928   0.708   7.509   6.281  0.3492  0.0495 -0.0917
19166THY    HA359929   0.689   7.567   6.371  3.7042  1.1382 -0.4874
19166THY    CA459930   0.603   7.454   6.207  0.9098  0.6690  0.1488
19166THY    HA459931   0.499   7.465   6.236  0.9996  0.6441  1.1147
19166THY    CA559932   0.642   7.368   6.096  0.4217 -0.2216 -0.5872
19166THY    CM159933   0.529   7.317   6.002 -0.0595 -0.0311 -1.5301
19166THY    HM159934   0.577   7.241   5.938  1.8776  0.0569 -0.4604
19166THY    HM259935   0.486   7.387   5.929 -0.6448 -0.3492 -2.2048
19166THY    HM359936   0.459   7.264   6.067  0.8115  0.3430 -2.2669
19166THY    CA659937   0.773   7.350   6.066  0.2071  0.0331 -0.0056
19166THY    HA659938   0.804   7.287   5.984  0.8600  0.4771 -0.2625
19167THY      O59939   1.520   6.807   7.656  0.8004  0.2182  0.2366
19167THY     HO59940   1.518   6.755   7.738  0.4220 -0.1691 -0.3734
19167THY    CA159941   1.415   6.758   7.584  0.3419 -0.7429 -0.5377
19167THY    CA259942   1.345   6.837   7.485 -0.2383 -0.4520  0.7076
19167THY    CP159943   1.405   6.974   7.451  0.3663  0.7712 -0.6287
19167THY    HP159944   1.501   6.998   7.498  1.9442 -2.7192  0.5638
19167THY    CP259945   1.310   7.084   7.495  0.3450 -0.0145  0.2687
19167THY    HP259946   1.216   7.074   7.440  0.4894 -0.0525 -1.0252
19167THY    HP359947   1.356   7.184   7.491  1.2556 -1.0305 -0.1636
19167THY    HP459948   1.275   7.066   7.597 -0.8620 -0.4293  0.1779
19167THY    CP359949   1.422   6.992   7.295 -0.4359 -1.1468 -0.6684
19167THY    HP559950   1.483   6.907   7.262 -0.7684  1.9371 -2.2485
19167THY    HP659951   1.465   7.091   7.277 -0.4359  1.1217 -0.2056
19167THY    HP759952   1.327   6.987   7.240 -2.1782  1.6048  0.1906
19167THY    CA359953   1.239   6.781   7.405  0.5908 -0.7092  0.7645
19167THY    HA359954   1.192   6.832   7.321  0.0199 -1.7016 -1.3204
19167THY    CA459955   1.186   6.655   7.444  0.0361  0.2579 -0.0371
19167THY    HA459956   1.103   6.607   7.393 -2.6886  2.4190  2.0247
19167THY    CA559957   1.261   6.583   7.538  1.0882 -0.2049 -0.0736
19167THY    CM159958   1.212   6.439   7.569 -0.8929 -0.1550  0.2092
19167THY    HM159959   1.210   6.370   7.483 -0.0076  1.2057 -1.6084
19167THY    HM259960   1.111   6.443   7.612 -1.1305 -0.7284  4.3727
19167THY    HM359961   1.284   6.392   7.636 -0.3626 -0.0937  1.1042
19167THY    CA659962   1.367   6.629   7.609 -0.1103 -0.4720 -0.1652
19167THY    HA659963   1.418   6.563   7.679 -1.3116  0.8855  0.3015
19168THY      O59964   2.444   5.548   1.910 -0.1757 -0.1511 -0.3735
19168THY     HO59965   2.463   5.465   1.957 -3.8816  3.2889  0.4297
19168THY    CA159966   2.512   5.647   1.975  0.4712  0.1231 -0.5927
19168THY    CA259967   2.541   5.773   1.920 -0.3105 -0.6058  0.0305
19168THY    CP159968   2.502   5.810   1.781 -0.0204 -0.3264  0.6154
19168THY    HP159969   2.418   5.748   1.747  1.2823 -1.0034 -0.8338
19168THY    CP259970   2.621   5.784   1.693 -0.3745  0.1175  0.6565
19168THY    HP259971   2.709   5.849   1.701  1.9817 -0.8794 -2.1495
19168THY    HP359972   2.589   5.793   1.589 -0.1141 -0.1701 -1.2657
19168THY    HP459973   2.642   5.676   1.694 -0.7724 -2.2672  0.5070
19168THY    CP359974   2.458   5.959   1.759  0.4893  0.0111  0.0577
19168THY    HP559975   2.382   5.991   1.831 -0.2640 -0.5374 -0.4707
19168THY    HP659976   2.404   5.962   1.664 -0.9112  0.6353 -2.6568
19168THY    HP759977   2.548   6.022   1.757  0.6316  0.7729 -0.1143
19168THY    CA359978   2.591   5.875   2.002 -0.2458  0.6616 -0.9240
19168THY    HA359979   2.620   5.970   1.959  0.4572  2.9911 -0.0111
19168THY    CA459980   2.638   5.837   2.130 -0.6202  0.3148  0.4661
19168THY    HA459981   2.697   5.907   2.189  0.9087 -0.8376  0.2025
19168THY    CA559982   2.626   5.711   2.177 -0.3486  0.3198  0.2648
19168THY    CM159983   2.689   5.682   2.314  0.0679  0.2182 -0.2476
19168THY    HM159984   2.648   5.749   2.391 -1.2023 -1.2972  0.7806
19168THY    HM259985   2.796   5.705   2.308  0.0056  0.1355  0.0221
19168THY    HM359986   2.686   5.580   2.356  0.4763  2.3694  0.5598
19168THY    CA659987   2.551   5.617   2.107 -0.1331 -0.1860 -0.6066
19168THY    HA659988   2.528   5.519   2.148  0.8851 -0.5535 -1.0185
19169THY      O59989   3.706   8.471   3.054 -0.2164  0.2908  0.3373
19169THY     HO59990   3.682   8.529   2.980 -2.5292  1.7423  1.3981
19169THY    CA159991   3.757   8.551   3.148  0.6244  0.0308 -0.2757
19169THY    CA259992   3.724   8.537   3.286  0.1489  0.0404 -0.3880
19169THY    CP159993   3.638   8.426   3.335 -0.1785 -0.3216 -0.3946
19169THY    HP159994   3.595   8.376   3.248  2.4653 -1.1004 -1.5014
19169THY    CP259995   3.523   8.462   3.429  0.1760 -0.1110 -0.5477
19169THY    HP259996   3.466   8.371   3.447 -1.6734 -1.7443  0.2258
19169THY    HP359997   3.457   8.539   3.389  0.3752  0.4133 -0.0995
19169THY    HP459998   3.563   8.488   3.528 -0.2376 -0.3328  1.0370
19169THY    CP359999   3.723   8.323   3.406  0.4659 -0.3314  0.3859
19169THY    HP560000   3.660   8.251   3.460  2.6307 -0.8564 -2.0664
19169THY    HP660001   3.784   8.372   3.483 -1.0343  1.5846 -0.5923
19169THY    HP760002   3.772   8.265   3.327 -2.2464  0.0720 -2.7690
19169THY    CA360003   3.771   8.633   3.377 -0.2249 -0.2618  0.1600
19169THY    HA360004   3.745   8.614   3.481  0.8158  0.3862  2.0301
19169THY    CA460005   3.848   8.735   3.321 -0.2300  0.4146 -0.0598
19169THY    HA460006   3.896   8.801   3.393  0.0319  1.6305 -1.5252
19169THY    CA560007   3.875   8.756   3.183  0.1452  0.0870  0.2337
19169THY    CM160008   3.981   8.860   3.136 -1.1375 -0.3173  0.1649
19169THY    HM160009   3.963   8.927   3.052 -1.3273 -0.4516 -0.0523
19169THY    HM260010   4.081   8.815   3.125 -1.9608  3.5883 -3.2657
19169THY    HM360011   4.015   8.925   3.218 -1.3548 -0.8574  0.9737
19169THY    CA660012   3.819   8.661   3.099  0.0086  0.8195  0.0801
19169THY    HA660013   3.848   8.668   2.995 -0.8180  0.4523 -1.4995
19170THY      O60014   0.932   8.874   3.164 -0.1227  0.2439 -0.4674
19170THY     HO60015   0.882   8.811   3.219  1.2064  2.0596  0.0122
19170THY    CA160016   0.953   8.983   3.247  0.5827 -0.1126  0.0380
19170THY    CA260017   0.995   9.107   3.192  0.3930 -0.9754  0.0650
19170THY    CP160018   1.016   9.120   3.042 -0.0682  0.4877 -0.1532
19170THY    HP160019   1.008   9.023   2.992 -0.9297  0.3316 -0.0148
19170THY    CP260020   1.151   9.189   3.012 -0.1138  0.1319  0.1157
19170THY    HP260021   1.163   9.199   2.904 -0.5284 -0.0660 -1.2366
19170THY    HP360022   1.235   9.137   3.059  0.7130  0.9324  2.0747
19170THY    HP460023   1.160   9.289   3.057  1.8854  0.6415 -0.2499
19170THY    CP360024   0.900   9.200   2.981 -0.2945 -0.5503 -0.1254
19170THY    HP560025   0.884   9.298   3.027  0.2259  0.6982 -0.6074
19170THY    HP660026   0.818   9.143   3.028 -0.3839  1.8001  1.7927
19170THY    HP760027   0.885   9.207   2.872  1.2675 -0.7134  1.1038
19170THY    CA360028   1.021   9.216   3.279 -0.3838  0.8093  0.5945
19170THY    HA360029   1.054   9.316   3.251  0.7914 -0.7033 -0.1742
19170THY    CA460030   1.006   9.189   3.417  0.2874 -0.1590 -0.3898
19170THY    HA460031   1.034   9.270   3.483 -0.9262 -1.4926  1.1975
19170THY    CA560032   0.967   9.065   3.473 -0.1471  0.5716  0.0275
19170THY    CM160033   0.968   9.036   3.616  0.6571 -0.3528  0.0508
19170THY    HM160034   1.028   9.110   3.669 -0.0173  0.3196  0.1258
19170THY    HM260035   1.005   8.934   3.635 -0.2665 -0.1885 -0.2634
19170THY    HM360036   0.872   9.028   3.667  1.8337  1.7724 -1.5755
19170THY    CA660037   0.940   8.959   3.383  0.4250  0.0232 -0.0381
19170THY    HA660038   0.903   8.864   3.421  0.6496  0.6477  0.1228
19171THY      O60039   3.853   3.196   2.324  0.2137 -0.1751 -0.1313
19171THY     HO60040   3.811   3.282   2.341 -2.7149  0.5701 -1.5955
19171THY    CA160041   3.740   3.120   2.326  0.0519 -0.1199 -0.2975
19171THY    CA260042   3.741   2.979   2.328  1.0419  0.3920 -0.6341
19171THY    CP160043   3.866   2.896   2.308 -0.2129 -0.1800  0.1643
19171THY    HP160044   3.953   2.922   2.370 -1.9229  2.1230  0.6153
19171THY    CP260045   3.887   2.911   2.157  0.3069 -0.6855  0.7977
19171THY    HP260046   3.815   2.851   2.099  0.2147 -1.9457  2.0771
19171THY    HP360047   3.989   2.875   2.141 -0.2539  0.3417 -1.4279
19171THY    HP460048   3.878   3.011   2.112  0.0407  0.4418  1.2896
19171THY    CP360049   3.859   2.749   2.338  0.1041 -0.1869 -0.2405
19171THY    HP560050   3.957   2.709   2.306  0.5109  1.1979 -0.3911
19171THY    HP660051   3.779   2.706   2.277  1.6878 -2.4139 -0.2333
19171THY    HP760052   3.852   2.722   2.444  0.1730 -0.5656 -1.8751
19171THY    CA360053   3.621   2.906   2.345  0.5029 -0.1375  0.0229
19171THY    HA360054   3.604   2.799   2.345 -2.5221  2.4482  0.3638
19171THY    CA460055   3.503   2.980   2.379 -0.0774 -0.0409  0.7053
19171THY    HA460056   3.408   2.928   2.381 -0.0942  0.5005  0.7528
19171THY    CA560057   3.507   3.122   2.375 -0.3211  0.0830  0.4897
19171THY    CM160058   3.381   3.197   2.396  0.0172 -0.1148 -0.1638
19171THY    HM160059   3.383   3.269   2.478  2.6213 -0.9744  0.8533
19171THY    HM260060   3.306   3.123   2.425  0.1583  1.1877  0.1869
19171THY    HM360061   3.350   3.249   2.304  0.5473 -1.6104 -2.3595
19171THY    CA660062   3.622   3.196   2.351  0.9724  0.0912  0.2132
19171THY    HA660063   3.614   3.305   2.351 -1.8607  0.3463  0.0906
19172THY      O60064   8.907   3.422   3.919  0.3573 -0.1799  0.2221
19172THY     HO60065   8.971   3.388   3.854  2.0974  0.2980  2.3515
19172THY    CA160066   8.793   3.425   3.849 -0.2984  0.2784 -0.0671
19172THY    CA260067   8.700   3.520   3.880  0.2235 -0.7425  0.0387
19172THY    CP160068   8.722   3.623   3.991  0.3389 -0.0890  0.0647
19172THY    HP160069   8.806   3.593   4.053  0.2829 -0.9511 -2.0141
19172THY    CP260070   8.613   3.607   4.087  0.0406 -0.2146  0.3500
19172THY    HP260071   8.635   3.683   4.163  3.0240 -0.1815 -0.4138
19172THY    HP360072   8.614   3.507   4.131  0.8790  1.1008  0.9077
19172THY    HP460073   8.512   3.614   4.044 -0.5471  0.4020 -2.9601
19172THY    CP360074   8.731   3.763   3.936 -0.1637  0.7364  0.0669
19172THY    HP560075   8.777   3.829   4.010 -0.7793 -0.3668  1.7946
19172THY    HP660076   8.633   3.809   3.921 -0.0892 -2.3247 -0.5385
19172THY    HP760077   8.777   3.767   3.836  0.7415  1.0839 -1.0881
19172THY    CA360078   8.582   3.532   3.805  0.0240 -0.0565 -0.0395
19172THY    HA360079   8.503   3.605   3.821 -0.2126 -1.2420 -0.0042
19172THY    CA460080   8.562   3.446   3.695 -0.1084  0.5156 -0.5379
19172THY    HA460081   8.472   3.460   3.636 -1.8032  3.1526  0.3934
19172THY    CA560082   8.665   3.355   3.659  0.3372  1.0006 -0.1598
19172THY    CM160083   8.659   3.268   3.530  0.2682 -0.2471 -0.4878
19172THY    HM160084   8.620   3.323   3.444 -1.0677  1.4561  1.3909
19172THY    HM260085   8.581   3.192   3.539 -2.0241 -0.2686  1.7559
19172THY    HM360086   8.755   3.219   3.510 -0.6781 -1.5945 -1.9100
19172THY    CA660087   8.775   3.342   3.739  0.4950 -0.8755 -0.2147
19172THY    HA660088   8.859   3.279   3.709  0.8049  1.4674 -1.0063
19173THY      O60089   8.271   7.297   5.484 -0.4758 -0.4259  0.6816
19173THY     HO60090   8.202   7.296   5.416  2.6474 -3.9554 -0.5576
19173THY    CA160091   8.231   7.383   5.577  0.3546  0.2954 -0.3119
19173THY    CA260092   8.309   7.488   5.627 -0.5747  0.5172  0.5881
19173THY    CP160093   8.449   7.504   5.577  0.6502 -0.1254  0.2714
19173THY    HP160094   8.456   7.469   5.473 -0.7465 -0.6938  1.5718
19173THY    CP260095   8.535   7.421   5.664  0.7473 -0.0212  0.8471
19173THY    HP260096   8.523   7.458   5.767 -1.5655 -0.5657  1.8094
19173THY    HP360097   8.643   7.422   5.647  0.7635 -0.0430 -0.3016
19173THY    HP460098   8.504   7.316   5.663  0.0575 -1.4122  1.0463
19173THY    CP360099   8.503   7.644   5.566 -0.7137 -0.2711 -0.1203
19173THY    HP560100   8.427   7.713   5.526  0.4287 -0.7781  0.8736
19173THY    HP660101   8.597   7.653   5.511  2.1661  3.5193 -3.5573
19173THY    HP760102   8.512   7.678   5.670  1.1157 -0.2633 -0.5553
19173THY    CA360103   8.247   7.580   5.718  0.5788  0.2130 -0.0077
19173THY    HA360104   8.309   7.662   5.751 -1.7107  1.2513  1.3915
19173THY    CA460105   8.121   7.557   5.764  0.3450  0.0973 -0.1347
19173THY    HA460106   8.066   7.621   5.832  0.1328 -0.4725  0.3025
19173THY    CA560107   8.047   7.444   5.722 -0.5969 -0.1464  0.6443
19173THY    CM160108   7.902   7.429   5.759 -0.0248 -0.4088 -0.4257
19173THY    HM160109   7.857   7.528   5.774  0.2001  1.0966 -0.5337
19173THY    HM260110   7.898   7.366   5.849  2.4996 -0.4420 -0.7524
19173THY    HM360111   7.847   7.362   5.691  0.2842  0.3026 -1.4274
19173THY    CA660112   8.105   7.356   5.628  0.1451 -0.2752  0.0858
19173THY    HA660113   8.037   7.278   5.598  1.0879 -0.0857 -0.8330
19174THY      O60114   1.802   2.495   6.688 -0.2011 -0.0123 -0.7918
19174THY     HO60115   1.839   2.527   6.604 -1.7141 -0.0259  1.0863
19174THY    CA160116   1.693   2.430   6.644  0.5905 -1.4723  0.4089
19174THY    CA260117   1.578   2.408   6.726  0.0952  0.7664 -0.1910
19174THY    CP160118   1.562   2.477   6.860 -0.0045 -0.2332  0.0833
19174THY    HP160119   1.659   2.490   6.910  0.4138 -1.2473  0.9849
19174THY    CP260120   1.485   2.394   6.975 -0.2167 -0.3712 -0.2888
19174THY    HP260121   1.475   2.458   7.063 -0.5976  1.0833 -2.2749
19174THY    HP360122   1.545   2.306   7.000 -1.4615 -2.5867 -1.8560
19174THY    HP460123   1.385   2.368   6.938 -1.5014  0.7557  2.6516
19174THY    CP360124   1.506   2.614   6.843 -0.7032 -0.2886 -0.1695
19174THY    HP560125   1.397   2.624   6.844 -0.6906 -0.4369 -0.0229
19174THY    HP660126   1.530   2.643   6.740  0.6807  0.0665  0.0261
19174THY    HP760127   1.553   2.689   6.909 -0.3707 -2.8384  2.0168
19174THY    CA360128   1.459   2.349   6.662  0.2784 -0.7971  0.0707
19174THY    HA360129   1.363   2.342   6.712  0.8265  0.6608  1.9626
19174THY    CA460130   1.463   2.300   6.528  0.3277 -0.2397  0.3111
19174THY    HA460131   1.383   2.249   6.476  1.5983 -0.4394 -1.5458
19174THY    CA560132   1.585   2.314   6.457  0.1063  0.1158 -0.8780
19174THY    CM160133   1.592   2.241   6.329 -0.5351  0.8463  0.5338
19174THY    HM160134   1.519   2.159   6.326 -2.1824 -2.0601  1.9598
19174THY    HM260135   1.692   2.196   6.320  1.0685  3.8232  3.1365
19174THY    HM360136   1.572   2.312   6.248  0.1005 -1.4266 -1.7174
19174THY    CA660137   1.697   2.382   6.516 -0.7023 -0.0126  0.0876
19174THY    HA660138   1.792   2.385   6.465  0.6943  2.0875 -2.7407
19175THY      O60139   7.773   3.364   2.637 -0.7162 -0.1893 -1.0197
19175THY     HO60140   7.843   3.303   2.607  0.2820 -0.8050  0.3715
19175THY    CA160141   7.812   3.371   2.767 -0.4253 -0.2553 -0.0899
19175THY    CA260142   7.802   3.493   2.828 -0.2296  0.0867  0.3448
19175THY    CP160143   7.769   3.614   2.748 -0.3653  0.0121 -0.1754
19175THY    HP160144   7.732   3.586   2.648  0.2155 -0.2630  0.0255
19175THY    CP260145   7.891   3.701   2.723  0.5569 -0.3151  0.5864
19175THY    HP260146   7.871   3.799   2.679 -0.4833 -0.9139  0.1220
19175THY    HP360147   7.966   3.648   2.662 -0.4465 -1.3691  0.3436
19175THY    HP460148   7.935   3.720   2.821  1.3008 -0.9721  2.4263
19175THY    CP360149   7.655   3.698   2.822 -0.1244 -0.3420  0.7833
19175THY    HP560150   7.623   3.777   2.753  0.5903 -2.5375 -0.7710
19175THY    HP660151   7.681   3.732   2.923 -2.3208  2.1256 -3.9792
19175THY    HP760152   7.566   3.637   2.837 -1.5163 -0.2701  2.7402
19175THY    CA360153   7.821   3.497   2.966  0.0997 -0.5240 -0.1044
19175THY    HA360154   7.810   3.584   3.030  0.2471 -0.2821 -0.2599
19175THY    CA460155   7.851   3.379   3.030 -1.1573  0.2615  0.4412
19175THY    HA460156   7.869   3.380   3.137 -0.0240  0.1458 -1.8002
19175THY    CA560157   7.862   3.257   2.964  0.6825  0.1235  0.6224
19175THY    CM160158   7.885   3.140   3.044 -0.1790  0.3935 -0.0877
19175THY    HM160159   7.860   3.149   3.150 -1.0109  0.3071 -1.0463
19175THY    HM260160   7.988   3.106   3.028  0.2779 -0.2471  1.5304
19175THY    HM360161   7.815   3.060   3.015 -0.9191  1.2331  0.2394
19175THY    CA660162   7.833   3.253   2.829 -0.1921 -0.2053  0.4215
19175THY    HA660163   7.834   3.162   2.770  0.3356 -0.8753  0.8472
19176THY      O60164   1.636   2.427   4.203  0.1524  0.0737 -0.6636
19176THY     HO60165   1.704   2.492   4.181 -2.3364  1.2885  2.5930
19176THY    CA160166   1.627   2.426   4.338 -0.1200 -0.6804 -0.3366
19176THY    CA260167   1.509   2.412   4.410 -0.1701  0.4826  0.2616
19176THY    CP160168   1.379   2.415   4.321  0.0418 -0.6047  0.2218
19176THY    HP160169   1.402   2.368   4.225  0.4466 -0.5348  0.2728
19176THY    CP260170   1.327   2.557   4.323 -0.0997 -0.1866  0.5258
19176THY    HP260171   1.297   2.595   4.422  1.8369  0.3939  0.6521
19176THY    HP360172   1.244   2.580   4.256  0.9833 -2.4244 -1.6859
19176THY    HP460173   1.398   2.628   4.278 -0.6270 -0.7735  0.6943
19176THY    CP360174   1.278   2.314   4.373  0.0677 -0.1107 -1.1398
19176THY    HP560175   1.311   2.216   4.410 -0.7879  2.6680 -0.4620
19176THY    HP660176   1.199   2.312   4.296  1.1327 -1.4919  2.1965
19176THY    HP760177   1.235   2.358   4.463  1.8818  0.3270 -0.1713
19176THY    CA360178   1.508   2.410   4.553  0.4572  0.6606 -0.0739
19176THY    HA360179   1.414   2.412   4.608 -0.6036 -1.0793  0.8951
19176THY    CA460180   1.622   2.435   4.614  0.7440 -0.4339  0.1702
19176THY    HA460181   1.623   2.438   4.722 -0.0622 -0.4019 -0.3857
19176THY    CA560182   1.743   2.441   4.547 -0.1994  0.2190 -0.2162
19176THY    CM160183   1.872   2.445   4.624  0.7119  0.1646 -0.4559
19176THY    HM160184   1.867   2.527   4.696 -1.1381  1.2762 -1.4797
19176THY    HM260185   1.958   2.450   4.556 -0.3821 -1.2965 -0.9460
19176THY    HM360186   1.887   2.353   4.682 -0.3504  0.7729 -0.2698
19176THY    CA660187   1.747   2.435   4.403 -0.1351 -0.6172 -0.2285
19176THY    HA660188   1.840   2.428   4.347  0.1112 -0.5125  1.7678
19177THY      O60189   8.013   4.057   1.766  0.0650 -0.3346  0.4310
19177THY     HO60190   8.020   4.146   1.729 -0.0406  0.2781  0.6964
19177THY    CA160191   7.913   4.072   1.857  0.3229  0.8225 -0.1914
19177THY    CA260192   7.912   3.993   1.983  0.1892  0.2913 -0.4397
19177THY    CP160193   8.007   3.873   1.999 -0.7327 -0.1983 -0.2092
19177THY    HP160194   8.094   3.885   1.934 -0.5784 -0.3459 -1.8260
19177THY    CP260195   7.955   3.732   1.953 -0.5408 -0.0127  0.0708
19177THY    HP260196   7.911   3.684   2.041 -1.0019  0.5004  1.3912
19177THY    HP360197   8.036   3.671   1.910 -1.0013 -0.4264 -0.2493
19177THY    HP460198   7.872   3.747   1.884 -1.0295  0.9420  2.1067
19177THY    CP360199   8.058   3.867   2.146  0.1291 -0.3338 -1.0774
19177THY    HP560200   8.096   3.965   2.179  0.0854  1.2906 -1.5695
19177THY    HP660201   8.138   3.793   2.156  0.4539 -0.4612 -0.7514
19177THY    HP760202   7.972   3.840   2.208  0.3499  0.4110 -0.1421
19177THY    CA360203   7.805   4.022   2.071  0.6668 -0.1512 -0.0435
19177THY    HA360204   7.789   3.963   2.161  0.7952  0.1412  0.3662
19177THY    CA460205   7.713   4.125   2.046 -0.6600  0.3520  0.1320
19177THY    HA460206   7.634   4.147   2.118  1.2189  1.5265  3.9696
19177THY    CA560207   7.724   4.204   1.929  0.0715 -0.0985 -0.2099
19177THY    CM160208   7.619   4.305   1.885 -0.4391  0.0547 -0.1049
19177THY    HM160209   7.544   4.303   1.965  1.9365  2.4212 -0.2719
19177THY    HM260210   7.585   4.265   1.788 -0.6525 -0.0704  0.3839
19177THY    HM360211   7.645   4.409   1.868 -2.7739 -0.5889  0.4406
19177THY    CA660212   7.825   4.182   1.834  0.1195 -0.0231 -0.8187
19177THY    HA660213   7.818   4.238   1.742 -0.6118  1.3248  1.4167
19178THY      O60214   7.470   6.506   3.957 -0.0053 -0.0298  0.3584
19178THY     HO60215   7.496   6.596   3.929  1.1636 -2.6221 -0.6680
19178THY    CA160216   7.533   6.487   4.069 -0.0779  0.1414  0.0181
19178THY    CA260217   7.572   6.366   4.112 -0.1228  0.0909  0.2570
19178THY    CP160218   7.528   6.238   4.039  0.1373  0.1267 -0.0002
19178THY    HP160219   7.520   6.251   3.930  1.4037 -0.3264 -2.3902
19178THY    CP260220   7.390   6.193   4.081  0.5251 -0.1344  0.3068
19178THY    HP260221   7.350   6.105   4.028 -1.8067  2.6296 -0.4505
19178THY    HP360222   7.327   6.282   4.070  1.2661  2.7049  1.2881
19178THY    HP460223   7.392   6.171   4.188 -2.2743  0.2510  1.5419
19178THY    CP360224   7.636   6.128   4.039  0.5698  0.2250  0.7988
19178THY    HP560225   7.645   6.068   4.130 -3.8227 -1.0206 -2.2443
19178THY    HP660226   7.729   6.170   3.999 -0.3375 -2.7854  0.1937
19178THY    HP760227   7.607   6.061   3.957  0.1856  0.5002  0.6209
19178THY    CA360228   7.619   6.351   4.242  0.1089 -0.8161  0.1794
19178THY    HA360229   7.652   6.259   4.289  0.4202  2.9009  1.9917
19178THY    CA460230   7.673   6.468   4.306 -0.4256  0.6730  0.1294
19178THY    HA460231   7.738   6.462   4.393  2.3429 -1.3135 -0.9227
19178THY    CA560232   7.659   6.594   4.255 -0.6356  0.3690 -0.3704
19178THY    CM160233   7.720   6.717   4.317 -0.5431 -0.5840 -0.0132
19178THY    HM160234   7.727   6.797   4.242  2.1958 -0.1686  0.2465
19178THY    HM260235   7.822   6.698   4.351 -0.6631  0.1360  0.5950
19178THY    HM360236   7.668   6.736   4.411 -0.6975 -0.5939 -0.3792
19178THY    CA660237   7.583   6.602   4.139  0.1144  0.1215 -0.4886
19178THY    HA660238   7.558   6.702   4.103  1.7714 -1.3894 -0.5560
19179THY      O60239   6.847   1.584   3.565  0.2362 -0.4569  0.2948
19179THY     HO60240   6.911   1.562   3.496  1.9155  1.6198 -1.8534
19179THY    CA160241   6.854   1.717   3.606  0.2575  0.1723 -0.3071
19179THY    CA260242   6.811   1.764   3.728  0.4360  0.1629 -0.1227
19179THY    CP160243   6.781   1.670   3.846  0.5750 -0.3563  0.3927
19179THY    HP160244   6.767   1.566   3.814  1.6057  0.7749 -0.1243
19179THY    CP260245   6.657   1.706   3.938 -0.6534  0.1741 -0.5955
19179THY    HP260246   6.667   1.799   3.994  0.1381 -0.1868 -0.4470
19179THY    HP360247   6.640   1.628   4.013  0.0637 -1.1871 -2.1475
19179THY    HP460248   6.565   1.722   3.880 -1.2171  1.6555  2.0598
19179THY    CP360249   6.908   1.664   3.931 -0.0331  0.1101  0.4272
19179THY    HP560250   6.928   1.762   3.976 -0.7572 -2.5529  1.9214
19179THY    HP660251   6.995   1.645   3.867 -0.8430 -1.7152  2.4118
19179THY    HP760252   6.913   1.592   4.013  1.5995  0.0235  0.4153
19179THY    CA360253   6.807   1.906   3.754  0.9602  0.2096  1.2031
19179THY    HA360254   6.773   1.953   3.845 -1.2815  0.8619 -1.4114
19179THY    CA460255   6.842   1.992   3.647 -0.5759 -0.4046  0.2124
19179THY    HA460256   6.829   2.099   3.661 -1.0406 -0.5987  0.1847
19179THY    CA560257   6.887   1.937   3.527 -0.1918  0.4144  0.0426
19179THY    CM160258   6.926   2.024   3.414 -0.8698  0.5679  0.0947
19179THY    HM160259   7.033   2.047   3.416 -0.6657 -1.2751 -0.5195
19179THY    HM260260   6.861   2.112   3.409 -1.4454 -0.3933 -0.3679
19179THY    HM360261   6.908   1.973   3.319  0.4288 -0.6535  1.8071
19179THY    CA660262   6.890   1.805   3.506 -0.1103  0.5356 -0.1392
19179THY    HA660263   6.918   1.769   3.407 -1.0566 -0.4934  1.8057
19180THY      O60264   1.765   0.570   4.810  0.0738  0.6229  0.4692
19180THY     HO60265   1.814   0.625   4.875  2.2170 -0.9536  0.5365
19180THY    CA160266   1.645   0.632   4.794 -0.5688 -0.4160  0.1539
19180THY    CA260267   1.547   0.571   4.709  0.9012  0.8686  0.3338
19180THY    CP160268   1.580   0.442   4.641  0.8845  0.3358  0.0414
19180THY    HP160269   1.682   0.405   4.654  0.3953  2.8740 -0.5595
19180THY    CP260270   1.537   0.443   4.489  0.6367 -0.1546 -1.0063
19180THY    HP260271   1.584   0.359   4.437  1.6922 -0.6610 -0.1286
19180THY    HP360272   1.580   0.533   4.443  0.5205 -0.6220 -1.1863
19180THY    HP460273   1.428   0.437   4.473  0.3442  1.5393 -0.7457
19180THY    CP360274   1.499   0.329   4.697 -0.0922  0.4494  0.6350
19180THY    HP560275   1.543   0.232   4.675  2.0405  1.7523  1.2422
19180THY    HP660276   1.398   0.322   4.654 -0.1101  0.8169 -1.9907
19180THY    HP760277   1.476   0.339   4.803  0.2531  0.5161  0.7234
19180THY    CA360278   1.429   0.645   4.682  0.2035  0.2191 -0.9065
19180THY    HA360279   1.362   0.601   4.608  0.0804  0.0869 -0.4992
19180THY    CA460280   1.410   0.769   4.755  0.6161  0.4099 -0.3409
19180THY    HA460281   1.319   0.826   4.740  1.8108  0.6375  1.7546
19180THY    CA560282   1.518   0.825   4.829 -0.5069 -0.1544  0.0909
19180THY    CM160283   1.508   0.957   4.899  0.4983  0.3351 -0.4570
19180THY    HM160284   1.605   1.004   4.918 -0.4383  0.3066  1.6086
19180THY    HM260285   1.455   0.942   4.994  1.8861  1.0310 -1.0559
19180THY    HM360286   1.462   1.023   4.824  3.6218 -1.8690 -0.5537
19180THY    CA660287   1.624   0.752   4.851 -0.4106 -1.1303  0.1798
19180THY    HA660288   1.707   0.784   4.913  1.8746 -4.0383  0.3055
19181THY      O60289   8.882   6.887   4.176 -0.2156  0.1873  0.2101
19181THY     HO60290   8.913   6.930   4.094 -0.2016 -1.1802 -2.2291
19181THY    CA160291   8.809   6.786   4.126 -0.2484  0.3033 -0.2221
19181THY    CA260292   8.801   6.663   4.182 -0.1630 -0.2325  0.0459
19181THY    CP160293   8.865   6.640   4.322 -0.2165  0.0561  0.3449
19181THY    HP160294   8.857   6.734   4.377 -1.3020  1.3232 -0.4468
19181THY    CP260295   9.024   6.620   4.305 -0.0672  0.1219 -0.1498
19181THY    HP260296   9.054   6.520   4.271 -1.3455 -0.0769 -0.4812
19181THY    HP360297   9.070   6.626   4.405 -0.9331  0.7473 -2.4695
19181THY    HP460298   9.068   6.690   4.234  0.4499 -0.0786 -0.6671
19181THY    CP360299   8.799   6.530   4.409  0.2435 -0.3034  0.0853
19181THY    HP560300   8.843   6.523   4.509 -0.7047  0.1291  0.1773
19181THY    HP660301   8.814   6.434   4.357 -0.1688 -0.4350  0.0897
19181THY    HP760302   8.692   6.545   4.424  0.2231 -1.0288  0.7441
19181THY    CA360303   8.733   6.553   4.119  0.7672 -0.6101  0.5237
19181THY    HA360304   8.737   6.452   4.159 -0.6632  1.2676  1.1647
19181THY    CA460305   8.670   6.574   3.994  0.3318 -0.2954  0.1689
19181THY    HA460306   8.624   6.497   3.932  1.2993 -0.9569  0.1038
19181THY    CA560307   8.679   6.704   3.938  1.2998 -0.0900  0.5991
19181THY    CM160308   8.627   6.730   3.800 -0.0349  0.9122  0.2363
19181THY    HM160309   8.646   6.823   3.745 -4.1921 -0.8541  0.2652
19181THY    HM260310   8.517   6.737   3.805 -0.0807  1.4475 -0.8086
19181THY    HM360311   8.641   6.650   3.727  1.1469 -2.3428  3.1149
19181THY    CA660312   8.747   6.804   4.004 -0.0197 -0.4130  0.7886
19181THY    HA660313   8.747   6.901   3.956  1.2921 -0.3384  0.8356
19182THY      O60314   8.281   5.687   3.601  0.1059 -0.3365  0.2841
19182THY     HO60315   8.268   5.675   3.505  0.5441 -0.3932  0.2504
19182THY    CA160316   8.382   5.612   3.640  0.7202  0.1893  0.2747
19182THY    CA260317   8.440   5.634   3.770  0.3068  0.2116  0.0904
19182THY    CP160318   8.384   5.741   3.866 -0.3615  0.1374  0.4714
19182THY    HP160319   8.290   5.779   3.824 -0.8570 -0.4239 -1.2771
19182THY    CP260320   8.484   5.852   3.875  0.4071  0.2398 -0.3880
19182THY    HP260321   8.445   5.934   3.936  0.7825  1.6989 -1.2668
19182THY    HP360322   8.497   5.887   3.772 -1.0698  0.0337 -0.3656
19182THY    HP460323   8.574   5.807   3.919 -0.3861 -0.1240 -2.4596
19182THY    CP360324   8.342   5.685   4.006  1.1533 -0.3215  0.1515
19182THY    HP560325   8.295   5.755   4.076  1.3028 -1.2917  1.2535
19182THY    HP660326   8.428   5.632   4.048 -0.8620  0.7730 -2.4750
19182THY    HP760327   8.271   5.605   3.982 -0.7552 -1.4708  2.0888
19182THY    CA360328   8.545   5.552   3.809  0.3832  0.3753  0.5059
19182THY    HA360329   8.597   5.559   3.904  0.5165  0.4525 -1.2214
19182THY    CA460330   8.603   5.458   3.720  0.5383 -0.1971 -0.8727
19182THY    HA460331   8.689   5.399   3.752  0.2299  1.1547 -0.5989
19182THY    CA560332   8.545   5.446   3.590  0.8909 -0.1773  0.3766
19182THY    CM160333   8.594   5.341   3.492  0.1076 -0.8825 -0.0830
19182THY    HM160334   8.681   5.374   3.434  2.0017  0.3442 -2.6236
19182THY    HM260335   8.515   5.297   3.429  0.1746  0.9664 -3.1210
19182THY    HM360336   8.639   5.258   3.547 -0.1267 -1.8154 -0.8359
19182THY    CA660337   8.429   5.514   3.558  0.8577  0.4026 -0.5225
19182THY    HA660338   8.390   5.494   3.459  0.1609  0.6787 -0.5495
19183THY      O60339   5.419   8.593   3.127  0.3334 -0.2419  0.1219
19183THY     HO60340   5.375   8.506   3.133  0.7405  0.7945 -0.0254
19183THY    CA160341   5.500   8.598   3.239 -0.0666  0.4372  0.1098
19183THY    CA260342   5.524   8.725   3.298 -0.5449 -0.3091  1.0884
19183THY    CP160343   5.453   8.849   3.245  0.1992 -0.0534  0.1093
19183THY    HP160344   5.355   8.817   3.209  1.1422 -0.9578 -1.9227
19183THY    CP260345   5.521   8.918   3.126  0.6188  0.0961 -0.9954
19183THY    HP260346   5.559   8.838   3.061  0.2009  1.2141 -2.1419
19183THY    HP360347   5.613   8.975   3.146  1.8103 -2.7656 -1.7278
19183THY    HP460348   5.453   8.985   3.073 -0.2616 -0.9862 -2.6714
19183THY    CP360349   5.426   8.957   3.346 -0.4552  0.6929  0.2361
19183THY    HP560350   5.527   8.996   3.363 -0.0460  0.0856 -0.5284
19183THY    HP660351   5.369   8.920   3.432 -1.5912 -1.2030 -2.8039
19183THY    HP760352   5.373   9.045   3.307  0.7818  0.5090  0.9154
19183THY    CA360353   5.629   8.738   3.393 -0.8061 -0.1330  0.1543
19183THY    HA360354   5.647   8.834   3.439 -2.1729  1.1882 -0.1816
19183THY    CA460355   5.686   8.621   3.443 -0.1176  0.2535 -0.8033
19183THY    HA460356   5.763   8.636   3.519  0.6706 -1.1238  3.2545
19183THY    CA560357   5.658   8.499   3.382  0.1577 -0.7382 -0.6149
19183THY    CM160358   5.722   8.377   3.432 -0.5517  1.0395 -0.1126
19183THY    HM160359   5.831   8.394   3.427 -0.3791  3.7313 -0.0257
19183THY    HM260360   5.699   8.294   3.364  0.4065  0.6410 -0.0735
19183THY    HM360361   5.700   8.347   3.535 -0.3540  1.6468  1.6997
19183THY    CA660362   5.571   8.489   3.277 -0.1746  0.2099 -0.0110
19183THY    HA660363   5.562   8.396   3.220  2.4269  2.3054 -1.6880
19184THY      O60364   2.318   2.615   7.936 -0.0606 -0.5027  0.1420
19184THY     HO60365   2.257   2.591   8.009 -0.1642 -0.6858 -0.1668
19184THY    CA160366   2.369   2.491   7.916 -0.4263 -0.0710 -0.3492
19184THY    CA260367   2.476   2.466   7.824  0.1051 -0.3680 -0.0852
19184THY    CP160368   2.546   2.576   7.741  0.0472  0.4622  0.3980
19184THY    HP160369   2.480   2.664   7.733 -1.6133 -2.6137 -0.9757
19184THY    CP260370   2.563   2.519   7.596 -0.4837 -0.0712 -0.1101
19184THY    HP260371   2.651   2.456   7.577 -1.3266 -2.0494 -0.7698
19184THY    HP360372   2.565   2.602   7.524  1.8944 -0.0639 -0.0841
19184THY    HP460373   2.473   2.460   7.576 -1.1769 -2.1351  1.4828
19184THY    CP360374   2.687   2.613   7.804  0.4363  0.2605 -0.0271
19184THY    HP560375   2.669   2.617   7.913 -1.2819  0.0075  0.0018
19184THY    HP660376   2.715   2.713   7.772 -1.2261  1.1900  0.7837
19184THY    HP760377   2.762   2.535   7.786 -0.3269 -0.6296 -0.5856
19184THY    CA360378   2.516   2.326   7.811  0.3759 -0.7160  0.1496
19184THY    HA360379   2.605   2.297   7.755  0.8052  0.5270 -1.0334
19184THY    CA460380   2.450   2.227   7.887  0.6884  0.3258  0.0742
19184THY    HA460381   2.473   2.123   7.867 -0.9612 -2.1481  0.0812
19184THY    CA560382   2.352   2.258   7.977 -0.1907 -0.3281 -0.2511
19184THY    CM160383   2.276   2.156   8.052  0.0065  0.3349  0.7590
19184THY    HM160384   2.269   2.178   8.159  2.1801  0.6041  0.3531
19184THY    HM260385   2.315   2.054   8.042 -0.5120  0.3667  0.5563
19184THY    HM360386   2.170   2.158   8.022  0.2747 -0.8563 -0.7776
19184THY    CA660387   2.312   2.390   7.991 -0.0901  0.7922  0.1582
19184THY    HA660388   2.224   2.406   8.054  0.6025  1.2096  2.9008
19185THY      O60389   1.582   4.389   5.974 -0.3828 -0.6492 -0.4215
19185THY     HO60390   1.509   4.325   5.979 -0.0206  1.2816 -0.7632
19185THY    CA160391   1.514   4.487   5.917  0.1923  0.0114  0.6458
19185THY    CA260392   1.538   4.623   5.936  0.2204  0.0415 -0.3185
19185THY    CP160393   1.660   4.677   6.017  0.7417  0.4446 -0.3271
19185THY    HP160394   1.689   4.612   6.100 -1.5318  1.6323  0.1071
19185THY    CP260395   1.656   4.820   6.083  0.2467  0.6828  0.4358
19185THY    HP260396   1.605   4.816   6.180 -0.3326  0.4488  1.6064
19185THY    HP360397   1.614   4.889   6.009  0.0252  0.1032 -0.3105
19185THY    HP460398   1.752   4.860   6.117  0.3062 -0.4004  1.2587
19185THY    CP360399   1.787   4.671   5.925 -1.0322  0.9179  0.5610
19185THY    HP560400   1.880   4.720   5.958  0.6088 -0.7044 -1.3151
19185THY    HP660401   1.761   4.716   5.828  2.2441 -1.2157 -1.6995
19185THY    HP760402   1.813   4.566   5.912 -1.4228  1.2412  0.4196
19185THY    CA360403   1.467   4.713   5.861  1.0311  0.0434 -0.4818
19185THY    HA360404   1.481   4.820   5.862  0.0698  1.4150 -0.3556
19185THY    CA460405   1.381   4.671   5.758  0.7089  0.1978 -0.2974
19185THY    HA460406   1.342   4.745   5.688  1.3536 -1.4145 -1.4278
19185THY    CA560407   1.367   4.533   5.736  0.5868  0.0914  0.1085
19185THY    CM160408   1.279   4.478   5.624  0.5725  0.0549 -0.1848
19185THY    HM160409   1.193   4.545   5.634  0.9275  3.0692 -0.0745
19185THY    HM260410   1.251   4.374   5.641 -0.2407  1.1859  0.2014
19185THY    HM360411   1.319   4.489   5.522 -0.3902 -0.1846  1.6148
19185THY    CA660412   1.431   4.443   5.820  0.3279  0.8217 -0.0180
19185THY    HA660413   1.423   4.340   5.787  2.0276 -1.0013  0.3719
19186THY      O60414   7.995   8.668   6.827 -0.1421  0.2062  0.7044
19186THY     HO60415   7.924   8.611   6.863 -0.9427 -1.5439  0.5329
19186THY    CA160416   8.017   8.641   6.700 -0.4696  0.0274 -0.0588
19186THY    CA260417   8.075   8.735   6.614  0.3060  0.3157  0.4921
19186THY    CP160418   8.103   8.882   6.661  1.3059  0.6773  0.1390
19186THY    HP160419   8.072   8.908   6.763  0.7655  0.1017  1.8962
19186THY    CP260420   8.027   8.986   6.577  0.5356  0.4266 -0.8870
19186THY    HP260421   8.032   9.087   6.619 -0.5460  2.5397 -1.6432
19186THY    HP360422   7.921   8.956   6.583 -0.8727 -0.0911  3.2681
19186THY    HP460423   8.057   8.970   6.473  0.2952  0.6050 -2.6963
19186THY    CP360424   8.241   8.922   6.643 -0.1629  0.0166 -0.9029
19186THY    HP560425   8.272   8.949   6.542 -1.1726 -1.2508 -4.0527
19186THY    HP660426   8.304   8.837   6.670  0.7209  0.8403 -0.0099
19186THY    HP760427   8.256   9.012   6.704  2.5853 -0.8689 -0.6889
19186THY    CA360428   8.092   8.700   6.482 -0.3421  0.5511  0.3204
19186THY    HA360429   8.139   8.773   6.417 -1.2075 -1.0781 -0.5022
19186THY    CA460430   8.043   8.575   6.423  0.6864  0.1380 -0.4717
19186THY    HA460431   8.053   8.556   6.317  0.4397  0.3624 -1.9761
19186THY    CA560432   7.973   8.488   6.503  0.5545  0.3535  0.3515
19186THY    CM160433   7.912   8.353   6.456  0.0631  0.7256 -1.2166
19186THY    HM160434   7.991   8.281   6.430 -1.1068 -2.5451 -1.5116
19186THY    HM260435   7.872   8.385   6.359 -1.5053  1.7498  0.1207
19186THY    HM360436   7.834   8.310   6.520  0.7156  2.3300 -0.1072
19186THY    CA660437   7.964   8.520   6.643  0.1608  0.0604  0.0745
19186THY    HA660438   7.908   8.455   6.710  1.4360  0.3420 -0.7692
19187THY      O60439   5.304   4.842   3.106  0.2364 -0.3257 -0.2905
19187THY     HO60440   5.400   4.851   3.108  0.2319  3.4898  0.6092
19187THY    CA160441   5.288   4.732   3.191  0.4236 -0.0945 -0.2838
19187THY    CA260442   5.176   4.719   3.276 -0.2511 -0.5376  0.3713
19187THY    CP160443   5.062   4.814   3.259 -0.4292 -0.1602  0.2851
19187THY    HP160444   5.101   4.908   3.219 -0.2209 -0.4166  0.0909
19187THY    CP260445   5.000   4.853   3.394 -0.3583  0.7287 -0.1285
19187THY    HP260446   4.966   4.772   3.459  0.9881  0.3371 -1.0602
19187THY    HP360447   4.927   4.935   3.392 -0.7217 -0.2427 -0.4601
19187THY    HP460448   5.082   4.906   3.444  0.8314 -1.0758 -0.1582
19187THY    CP360449   4.945   4.766   3.165  0.0141  0.0604 -0.0056
19187THY    HP560450   4.861   4.836   3.152 -1.2037 -0.0183 -1.4363
19187THY    HP660451   4.911   4.667   3.198  1.1732 -2.9976 -1.5507
19187THY    HP760452   4.984   4.742   3.066 -1.7175 -0.8287  0.7010
19187THY    CA360453   5.183   4.620   3.380  0.7402 -0.4649 -0.2350
19187THY    HA360454   5.093   4.603   3.438 -1.0363 -2.3843  1.9442
19187THY    CA460455   5.302   4.550   3.409 -0.8144 -0.7976 -0.0727
19187THY    HA460456   5.301   4.476   3.488  0.1392 -1.5226 -0.8914
19187THY    CA560457   5.409   4.568   3.326  0.0373  0.3504  0.0043
19187THY    CM160458   5.536   4.497   3.353 -0.3119  0.3218 -0.4171
19187THY    HM160459   5.529   4.432   3.441 -0.7984  1.4653  1.1356
19187THY    HM260460   5.626   4.560   3.357 -0.4610 -0.3624 -0.1561
19187THY    HM360461   5.555   4.422   3.276  0.7438  0.8763 -0.7453
19187THY    CA660462   5.402   4.659   3.222  0.1147  0.4900 -0.7530
19187THY    HA660463   5.489   4.669   3.158  0.8634  1.4408 -1.1093
19188THY      O60464   5.675   2.719   8.103  0.5725 -0.3848  0.2758
19188THY     HO60465   5.640   2.634   8.136  0.2636  0.3174  0.6669
19188THY    CA160466   5.675   2.706   7.969 -0.0109 -1.0334 -0.7756
19188THY    CA260467   5.677   2.809   7.876 -0.0647 -0.0286  0.0259
19188THY    CP160468   5.658   2.954   7.925 -0.1419  0.2709 -0.8340
19188THY    HP160469   5.713   2.957   8.020  0.8074 -0.2786  1.2781
19188THY    CP260470   5.513   2.981   7.961  0.0208 -0.6108  0.2631
19188THY    HP260471   5.461   2.959   7.867  1.2768 -1.1290 -0.6142
19188THY    HP360472   5.495   3.084   7.992 -3.1055  1.0662 -0.6607
19188THY    HP460473   5.476   2.911   8.037  1.8155 -0.2641 -0.3608
19188THY    CP360474   5.713   3.058   7.829  0.0437 -0.2023  0.5141
19188THY    HP560475   5.818   3.030   7.811 -0.6972 -1.7552 -1.5198
19188THY    HP660476   5.710   3.159   7.871 -1.5442  0.5421  0.1822
19188THY    HP760477   5.653   3.070   7.738 -0.7603  0.6295  4.0116
19188THY    CA360478   5.693   2.773   7.736 -0.2494 -0.1594  0.0721
19188THY    HA360479   5.716   2.845   7.659 -2.8035 -0.0550  1.0979
19188THY    CA460480   5.700   2.632   7.703 -0.1782  0.1524 -0.1051
19188THY    HA460481   5.722   2.603   7.600  0.3225  0.3743 -0.5377
19188THY    CA560482   5.680   2.531   7.798  0.0888  0.1442 -0.5659
19188THY    CM160483   5.681   2.390   7.750 -0.1328 -0.2219  0.4516
19188THY    HM160484   5.698   2.317   7.830 -1.8757  0.0104  0.2577
19188THY    HM260485   5.776   2.376   7.698  1.1031  2.1245 -0.4330
19188THY    HM360486   5.592   2.367   7.689 -0.3691 -0.1355  1.1119
19188THY    CA660487   5.670   2.572   7.937 -0.0674 -0.4420  0.1485
19188THY    HA660488   5.676   2.489   8.006 -0.8342 -0.7233 -0.1543
19189THY      O60489   7.385   7.600   6.519  0.0324 -0.3740 -0.6478
19189THY     HO60490   7.397   7.573   6.426 -1.2770 -0.8520  0.3244
19189THY    CA160491   7.444   7.721   6.529 -0.4109 -0.2122  0.0672
19189THY    CA260492   7.405   7.824   6.620  0.3325 -0.7548 -0.1039
19189THY    CP160493   7.298   7.796   6.725 -0.1250  0.1622 -0.1532
19189THY    HP160494   7.237   7.712   6.689 -1.1372 -0.6686  0.9055
19189THY    CP260495   7.204   7.912   6.754  0.4117  0.5231  0.2716
19189THY    HP260496   7.134   7.897   6.837 -1.7756 -0.9053  1.9131
19189THY    HP360497   7.146   7.933   6.663  0.1710  0.2800 -1.3067
19189THY    HP460498   7.260   8.003   6.776 -2.6147 -2.0836  3.0162
19189THY    CP360499   7.363   7.748   6.853 -0.5958 -0.4302 -0.3984
19189THY    HP560500   7.472   7.758   6.850 -0.4877 -0.5078 -1.4440
19189THY    HP660501   7.337   7.643   6.873  0.4665  2.7547 -0.1746
19189THY    HP760502   7.339   7.806   6.943 -0.4897 -2.4433  3.0041
19189THY    CA360503   7.469   7.946   6.608 -0.3463  0.3576 -0.3204
19189THY    HA360504   7.443   8.031   6.670  0.9023 -1.5403  1.5293
19189THY    CA460505   7.566   7.967   6.506  0.2416 -0.1324 -0.3213
19189THY    HA460506   7.612   8.065   6.505 -0.6983  1.5930  0.1809
19189THY    CA560507   7.608   7.867   6.433 -0.2734  0.4624  0.8114
19189THY    CM160508   7.709   7.891   6.327 -0.7580  0.0116 -0.2088
19189THY    HM160509   7.675   7.852   6.230 -0.2221 -0.1470 -0.2863
19189THY    HM260510   7.807   7.847   6.349  1.7795  2.2752  5.6371
19189THY    HM360511   7.729   7.997   6.310  0.1942 -0.7254 -0.4850
19189THY    CA660512   7.542   7.746   6.439 -0.3226 -0.1509 -0.3568
19189THY    HA660513   7.568   7.673   6.363  2.4012  0.6220 -0.3259
19190THY      O60514   2.036   4.228   1.729 -0.8354  0.6153  1.0339
19190THY     HO60515   2.021   4.140   1.693 -1.4106 -0.1981  1.4567
19190THY    CA160516   2.130   4.206   1.821 -0.1506  0.4086  0.4320
19190THY    CA260517   2.196   4.315   1.882 -0.2898 -0.1757 -0.1080
19190THY    CP160518   2.156   4.457   1.850  0.1336  0.2857  0.0642
19190THY    HP160519   2.097   4.457   1.758 -1.6040  1.3714 -0.4559
19190THY    CP260520   2.275   4.549   1.824  0.2027  0.2075 -0.0047
19190THY    HP260521   2.305   4.594   1.919 -1.2866  0.7837 -0.2067
19190THY    HP360522   2.241   4.639   1.771  0.4691 -1.7025 -0.9598
19190THY    HP460523   2.354   4.511   1.758 -1.7478 -3.0652  1.2186
19190THY    CP360524   2.059   4.512   1.954 -0.1576 -0.3617  0.1318
19190THY    HP560525   1.964   4.459   1.940  0.8753  1.0601 -2.2707
19190THY    HP660526   2.048   4.621   1.955 -1.1188  0.9581  0.0489
19190THY    HP760527   2.078   4.476   2.056  1.0635 -0.0050  1.6901
19190THY    CA360528   2.291   4.292   1.989 -0.3198  0.0653  0.1098
19190THY    HA360529   2.350   4.368   2.040 -0.0797 -0.0053 -0.0296
19190THY    CA460530   2.311   4.162   2.032 -0.2932  0.6634  0.0848
19190THY    HA460531   2.379   4.147   2.116  1.3148 -0.7794 -1.1110
19190THY    CA560532   2.242   4.058   1.965  0.3671  0.1616  0.5130
19190THY    CM160533   2.270   3.917   2.002 -0.2178  0.1025 -0.1946
19190THY    HM160534   2.278   3.851   1.915  0.7694  0.0829 -0.0637
19190THY    HM260535   2.186   3.877   2.060  0.5197  3.2541  2.3837
19190THY    HM360536   2.364   3.906   2.058  0.4687 -0.4574  2.2568
19190THY    CA660537   2.148   4.078   1.866  0.2633 -0.0614  0.5312
19190THY    HA660538   2.093   3.997   1.820  1.0133 -0.2369  0.1115
19191THY      O60539   5.279   8.520   4.035  0.8349 -0.1907 -0.0124
19191THY     HO60540   5.223   8.549   3.961  0.1425  0.8867  1.5107
19191THY    CA160541   5.398   8.582   4.025 -0.5378  0.6158  0.0337
19191THY    CA260542   5.488   8.589   4.134  0.0904 -0.2373  0.0536
19191THY    CP160543   5.439   8.549   4.278  0.1443 -0.3543  0.1092
19191THY    HP160544   5.372   8.462   4.272 -1.3110 -1.2953  1.2513
19191THY    CP260545   5.349   8.658   4.351 -0.1482 -0.1249 -0.1935
19191THY    HP260546   5.255   8.662   4.295  0.2644 -0.8090  0.0864
19191THY    HP360547   5.411   8.749   4.358  1.3584  1.0974 -1.2519
19191THY    HP460548   5.329   8.635   4.457 -0.2336 -0.2212 -0.5570
19191THY    CP360549   5.548   8.515   4.376  0.6856 -0.0325 -1.0351
19191THY    HP560550   5.620   8.457   4.318 -0.0766 -1.6702 -0.4017
19191THY    HP660551   5.507   8.455   4.458 -1.4921  0.5750  1.0957
19191THY    HP760552   5.593   8.604   4.422 -0.0273 -2.2738  0.5809
19191THY    CA360553   5.619   8.639   4.119 -0.2911  0.4477  0.8074
19191THY    HA360554   5.686   8.651   4.204 -0.6403  0.7157  0.8664
19191THY    CA460555   5.658   8.682   3.994 -0.3197  0.7563 -0.1902
19191THY    HA460556   5.753   8.732   3.979 -0.0392  1.1595 -0.5935
19191THY    CA560557   5.574   8.685   3.882 -0.4745  0.6527 -0.2355
19191THY    CM160558   5.639   8.711   3.748  0.1501 -0.3042 -0.2737
19191THY    HM160559   5.746   8.724   3.763  0.1810  0.7490 -1.5648
19191THY    HM260560   5.600   8.791   3.683  1.1606 -0.0536  0.4372
19191THY    HM360561   5.619   8.616   3.698 -1.7658  2.3094 -1.3537
19191THY    CA660562   5.443   8.623   3.900  0.0579 -0.2256 -0.0185
19191THY    HA660563   5.384   8.616   3.809  0.3801 -0.3402 -1.7311
19192THY      O60564   5.260   5.936   3.008 -0.0620 -0.4370  0.6459
19192THY     HO60565   5.350   5.919   2.974 -0.0275 -1.2043  2.1976
19192THY    CA160566   5.167   5.890   2.918  0.2295 -0.3872 -0.6853
19192THY    CA260567   5.030   5.898   2.931  0.0344  0.2215  0.0100
19192THY    CP160568   4.962   5.948   3.058 -0.5579  0.2214 -0.1234
19192THY    HP160569   5.041   6.005   3.107 -0.4837 -0.7048  0.5835
19192THY    CP260570   4.899   5.844   3.152 -0.1740  0.2695 -0.6756
19192THY    HP260571   4.973   5.774   3.192 -0.5936  1.1327 -0.6337
19192THY    HP360572   4.820   5.788   3.100 -0.3933 -0.5921  0.3969
19192THY    HP460573   4.858   5.905   3.233 -0.0268 -0.8360  0.9626
19192THY    CP360574   4.865   6.060   3.024 -0.2411 -0.1535 -0.1086
19192THY    HP560575   4.775   6.022   2.974 -0.0841 -1.6567  1.3934
19192THY    HP660576   4.906   6.131   2.951 -0.3943  1.3778  1.6325
19192THY    HP760577   4.841   6.109   3.120 -0.1574  0.2683 -0.8760
19192THY    CA360578   4.947   5.855   2.826 -0.1231  0.0454  0.0526
19192THY    HA360579   4.839   5.855   2.838 -0.0721  0.5093  0.0304
19192THY    CA460580   5.004   5.807   2.713 -0.5127  0.5663 -0.9196
19192THY    HA460581   4.944   5.768   2.631 -2.8861 -0.0462  3.4268
19192THY    CA560582   5.142   5.805   2.699 -0.0328  0.0809 -0.6766
19192THY    CM160583   5.181   5.750   2.570  0.8215 -0.0964  0.6280
19192THY    HM160584   5.144   5.808   2.486 -2.5393  0.0019 -1.1587
19192THY    HM260585   5.149   5.645   2.567  3.4312  3.4111 -0.4865
19192THY    HM360586   5.291   5.743   2.576  0.9735  2.0853  3.2542
19192THY    CA660587   5.226   5.839   2.803 -0.2890 -0.0304 -0.4236
19192THY    HA660588   5.333   5.834   2.788 -0.6166 -2.7586 -0.4101
19193THY      O60589   4.969   8.396   5.749  0.2279 -0.5834 -0.4188
19193THY     HO60590   5.045   8.456   5.735  0.5199  2.7156  0.1894
19193THY    CA160591   4.867   8.451   5.676  0.8009  0.2619  0.0650
19193THY    CA260592   4.745   8.379   5.645 -0.2566  0.1102  0.0836
19193THY    CP160593   4.725   8.240   5.699  0.3228  0.2009  0.1300
19193THY    HP160594   4.802   8.227   5.777 -0.8907  1.6217  1.0747
19193THY    CP260595   4.750   8.124   5.592  0.3501 -0.2700 -0.0925
19193THY    HP260596   4.702   8.156   5.498  1.4097 -1.0015 -0.5813
19193THY    HP360597   4.719   8.024   5.625 -0.3887 -0.2398  0.1360
19193THY    HP460598   4.856   8.119   5.567  0.6250  1.0807 -1.7595
19193THY    CP360599   4.588   8.211   5.772 -0.4756  0.1748 -0.9292
19193THY    HP560600   4.553   8.299   5.828 -0.7826 -1.8383  0.3031
19193THY    HP660601   4.587   8.130   5.846 -1.2399  0.5694 -0.5700
19193THY    HP760602   4.510   8.202   5.696  1.3349 -1.8719 -0.2441
19193THY    CA360603   4.643   8.436   5.569 -0.2058 -0.1103 -0.3511
19193THY    HA360604   4.558   8.373   5.543  0.5437 -1.7590 -0.7421
19193THY    CA460605   4.673   8.560   5.518 -0.5322  0.0566 -0.0682
19193THY    HA460606   4.601   8.609   5.453  0.2562 -1.1070 -0.4122
19193THY    CA560607   4.790   8.630   5.541  0.4319 -0.6535  0.5615
19193THY    CM160608   4.815   8.771   5.493  0.1761  0.0751  0.3732
19193THY    HM160609   4.887   8.827   5.554  1.2098  0.8924 -1.7369
19193THY    HM260610   4.720   8.825   5.483 -1.0867  0.5255 -1.6953
19193THY    HM360611   4.864   8.763   5.395  2.3775  1.1132  0.3598
19193THY    CA660612   4.887   8.574   5.621  0.0997  0.1910  0.2114
19193THY    HA660613   4.976   8.634   5.642  0.6319 -0.8338 -0.1876
19194THY      O60614   3.517   5.352   7.761  0.3951  0.5326  0.6046
19194THY     HO60615   3.578   5.378   7.833  1.5700  0.1762 -1.0344
19194THY    CA160616   3.537   5.218   7.740  0.6062 -0.3506 -0.4881
19194THY    CA260617   3.531   5.169   7.610 -0.6928  0.5038 -0.0927
19194THY    CP160618   3.536   5.270   7.488 -0.0956 -0.0667 -0.2527
19194THY    HP160619   3.468   5.350   7.521  1.1664 -0.5424  1.0644
19194THY    CP260620   3.462   5.216   7.365  0.0310 -0.4824 -0.3775
19194THY    HP260621   3.377   5.149   7.384 -1.1526  1.1035  1.4563
19194THY    HP360622   3.533   5.167   7.298  0.4584  0.4486 -1.0680
19194THY    HP460623   3.416   5.301   7.313 -1.0885 -1.3679 -1.4856
19194THY    CP360624   3.672   5.337   7.450 -0.2322  0.1081  0.3005
19194THY    HP560625   3.727   5.275   7.378  1.5116  2.1150 -0.6216
19194THY    HP660626   3.738   5.352   7.536  0.7216 -0.9850  2.8567
19194THY    HP760627   3.658   5.430   7.394 -1.0123  0.1443  0.2109
19194THY    CA360628   3.551   5.028   7.584 -0.0357  0.2871 -0.7616
19194THY    HA360629   3.545   4.984   7.485  0.9718  0.6461 -1.7575
19194THY    CA460630   3.557   4.943   7.695 -0.3481  0.3156  0.0481
19194THY    HA460631   3.562   4.837   7.670 -1.2031 -0.0243  0.0803
19194THY    CA560632   3.556   4.996   7.827  0.1429  0.1998  0.2032
19194THY    CM160633   3.562   4.899   7.945  1.0179 -0.3460  0.0424
19194THY    HM160634   3.465   4.850   7.961 -0.3372 -0.0129  2.6111
19194THY    HM260635   3.576   4.951   8.040 -2.1391 -1.3875  3.2171
19194THY    HM360636   3.630   4.814   7.939  0.6594  1.4311 -0.4049
19194THY    CA660637   3.546   5.130   7.849 -0.4858  0.1338  0.1176
19194THY    HA660638   3.532   5.166   7.950 -0.8479  0.4503 -0.8781
19195THY      O60639   1.114   4.378   2.555 -0.0169  0.3023  0.5950
19195THY     HO60640   1.172   4.348   2.483 -1.2783 -0.1224 -0.9231
19195THY    CA160641   1.165   4.359   2.678 -0.2460  0.4402  0.1660
19195THY    CA260642   1.084   4.368   2.794 -0.5698 -0.8105  0.3362
19195THY    CP160643   0.936   4.388   2.782 -0.5697  0.3214  0.4372
19195THY    HP160644   0.896   4.317   2.708 -3.0233  0.4586  1.5812
19195THY    CP260645   0.906   4.526   2.738  0.4369  0.3613 -0.8516
19195THY    HP260646   0.908   4.592   2.825  0.6923 -0.3662  0.1196
19195THY    HP360647   0.805   4.507   2.698  0.9707 -0.9624 -1.0273
19195THY    HP460648   0.985   4.550   2.666  0.0262 -0.0810 -0.7966
19195THY    CP360649   0.861   4.358   2.909  0.4149  0.1620 -0.1892
19195THY    HP560650   0.876   4.417   3.000 -0.9083  1.1944 -1.3806
19195THY    HP660651   0.878   4.255   2.944  0.5816  5.4428  1.3153
19195THY    HP760652   0.754   4.362   2.887  0.4751  0.0610  1.3125
19195THY    CA360653   1.160   4.343   2.915 -0.0158  0.0579  0.3027
19195THY    HA360654   1.113   4.353   3.012  0.1800  0.1680  0.1348
19195THY    CA460655   1.301   4.310   2.917  0.5373 -0.5412  0.2044
19195THY    HA460656   1.353   4.300   3.011 -0.8607  0.0740 -1.9470
19195THY    CA560657   1.368   4.306   2.796  1.0049 -1.2041  0.8041
19195THY    CM160658   1.520   4.275   2.793 -0.5041  0.3551 -0.0537
19195THY    HM160659   1.582   4.319   2.872 -2.3338  2.3797 -0.9413
19195THY    HM260660   1.569   4.329   2.711  1.5680  0.5563 -1.5036
19195THY    HM360661   1.551   4.170   2.796  2.2721  3.7395  0.6735
19195THY    CA660662   1.299   4.324   2.676 -0.0458 -0.0457  0.3419
19195THY    HA660663   1.347   4.320   2.578 -0.4827 -0.3586  2.1741
19196THY      O60664   5.504   8.562   5.542  0.0052  0.7710  0.0321
19196THY     HO60665   5.487   8.476   5.583  0.0008  0.7218  0.0094
19196THY    CA160666   5.628   8.605   5.573  0.0549 -0.1998  0.1520
19196THY    CA260667   5.679   8.735   5.548  0.1410  0.1435 -0.9491
19196THY    CP160668   5.600   8.850   5.487  0.6654 -0.8063  0.4476
19196THY    HP160669   5.497   8.826   5.459 -0.3168  0.4901  2.8043
19196THY    CP260670   5.662   8.903   5.359  0.4579 -0.2534  0.5167
19196THY    HP260671   5.612   8.994   5.326 -0.7970  2.3817  0.8555
19196THY    HP360672   5.673   8.823   5.284 -0.0341 -0.3659  0.5510
19196THY    HP460673   5.769   8.927   5.362  1.2819 -0.6452 -2.6412
19196THY    CP360674   5.588   8.959   5.594 -0.3641 -0.4470  0.1054
19196THY    HP560675   5.525   9.043   5.561  0.7587 -0.0980  1.0996
19196THY    HP660676   5.686   9.004   5.609 -0.2630 -3.1265  0.9557
19196THY    HP760677   5.556   8.914   5.689  0.4300 -0.5296 -0.6557
19196THY    CA360678   5.808   8.765   5.589 -0.0549  0.6001  0.1103
19196THY    HA360679   5.853   8.860   5.562  1.9236  0.0718 -0.9130
19196THY    CA460680   5.891   8.664   5.646 -0.0485  0.3121 -0.0290
19196THY    HA460681   5.996   8.678   5.672 -0.4322  2.0214 -0.1401
19196THY    CA560682   5.842   8.532   5.659  0.4365 -0.4007 -0.2951
19196THY    CM160683   5.930   8.427   5.714  0.2503 -0.1162  0.2667
19196THY    HM160684   6.026   8.421   5.661 -1.0120 -2.6659  1.2592
19196THY    HM260685   5.881   8.329   5.708 -0.1245 -2.0457  0.5409
19196THY    HM360686   5.957   8.444   5.819 -0.1262  0.4565 -2.2794
19196THY    CA660687   5.713   8.502   5.623  0.2067  0.4002  0.0809
19196THY    HA660688   5.674   8.404   5.647  0.2651  1.4619  0.3031
19197THY      O60689   0.305   7.924   4.485 -0.0413  0.5129 -0.4804
19197THY     HO60690   0.320   8.013   4.521 -1.9169 -0.1664  0.1570
19197THY    CA160691   0.398   7.882   4.401 -0.6962  1.1127 -1.0570
19197THY    CA260692   0.375   7.784   4.304 -0.6026 -0.3323 -1.0268
19197THY    CP160693   0.229   7.743   4.265 -0.3691  0.6190  0.6143
19197THY    HP160694   0.168   7.742   4.356  0.4612  1.2904  3.1217
19197THY    CP260695   0.220   7.618   4.188 -0.4916  0.1021  1.0691
19197THY    HP260696   0.249   7.528   4.243 -0.2873 -0.3748  0.8385
19197THY    HP360697   0.280   7.618   4.096  0.1573  0.5116  1.6586
19197THY    HP460698   0.112   7.621   4.169 -0.6904  1.1688  0.8826
19197THY    CP360699   0.165   7.856   4.179 -0.0020 -0.0657 -0.0970
19197THY    HP560700   0.209   7.859   4.078  1.2844  0.4643 -0.1877
19197THY    HP660701   0.179   7.951   4.233  2.3555  0.5990 -0.7447
19197THY    HP760702   0.061   7.825   4.178  0.0060 -1.2404 -0.1071
19197THY    CA360703   0.490   7.740   4.232  0.0353 -0.3482 -0.2349
19197THY    HA360704   0.480   7.665   4.153  1.1524  2.0436 -3.0915
19197THY    CA460705   0.616   7.791   4.247 -0.4514  0.5738  0.3229
19197THY    HA460706   0.700   7.760   4.186 -0.1286  1.2346 -0.1104
19197THY    CA560707   0.634   7.886   4.347 -0.2660  0.3369  0.1475
19197THY    CM160708   0.775   7.930   4.376  0.5611  0.4467  0.4367
19197THY    HM160709   0.833   7.852   4.427  1.6526 -1.0938  0.2089
19197THY    HM260710   0.789   8.019   4.438  1.6289 -0.9773  1.3026
19197THY    HM360711   0.813   7.953   4.276 -0.3274 -0.5048 -1.8678
19197THY    CA660712   0.530   7.926   4.424  0.0129  0.0885 -0.0313
19197THY    HA660713   0.549   8.002   4.499  1.0363  1.4169 -1.5300
19198THY      O60714   2.159   8.085   5.716 -0.3718  0.3884  0.4028
19198THY     HO60715   2.222   8.011   5.720 -0.3802 -1.1319  0.2889
19198THY    CA160716   2.214   8.179   5.634 -0.3603 -0.2665 -0.0497
19198THY    CA260717   2.223   8.318   5.661 -0.4269  0.4097 -0.1911
19198THY    CP160718   2.177   8.353   5.798  0.4012  0.2319  0.0422
19198THY    HP160719   2.114   8.272   5.836  1.1318 -0.1403 -0.7062
19198THY    CP260720   2.082   8.474   5.803 -0.1879  0.5030 -0.3968
19198THY    HP260721   1.996   8.450   5.740 -1.0820  1.7278 -0.5191
19198THY    HP360722   2.117   8.570   5.764  0.9541  3.2556  0.3991
19198THY    HP460723   2.048   8.492   5.906  1.1920  1.0788 -0.9728
19198THY    CP360724   2.294   8.370   5.893 -0.5227  0.0280  0.0971
19198THY    HP560725   2.359   8.282   5.885  0.0037  3.1834  0.1062
19198THY    HP660726   2.264   8.359   5.998  2.8234  1.1582  0.7377
19198THY    HP760727   2.358   8.457   5.880  2.3892  3.3461 -1.3053
19198THY    CA360728   2.297   8.401   5.577 -0.3240 -0.0074 -0.4266
19198THY    HA360729   2.314   8.508   5.591 -0.0702 -0.3806 -0.4162
19198THY    CA460730   2.350   8.355   5.457  0.3206  0.5765 -0.3187
19198THY    HA460731   2.395   8.421   5.384  1.0594 -0.2804 -1.7101
19198THY    CA560732   2.331   8.220   5.425 -0.2821  0.7473  0.0090
19198THY    CM160733   2.377   8.173   5.277  0.0076 -0.2090 -1.0096
19198THY    HM160734   2.357   8.234   5.188 -0.3544  0.1918 -0.5294
19198THY    HM260735   2.345   8.069   5.264 -0.9777  3.1699 -1.2792
19198THY    HM360736   2.486   8.168   5.289  0.0362  0.6237  0.6382
19198THY    CA660737   2.274   8.133   5.520 -0.1472  0.0881  0.1666
19198THY    HA660738   2.247   8.031   5.492 -1.6203  0.6213  0.3895
19199THY      O60739   8.345   6.741   7.260  0.0523  0.1032  0.5207
19199THY     HO60740   8.409   6.812   7.281 -0.4710 -0.3861  1.1510
19199THY    CA160741   8.396   6.649   7.171 -1.0591  0.0082 -0.9638
19199THY    CA260742   8.310   6.564   7.097  0.1525 -0.5790 -0.3985
19199THY    CP160743   8.157   6.566   7.128 -0.4751  0.3341  0.2014
19199THY    HP160744   8.135   6.656   7.187  1.4136 -0.5320  1.2993
19199THY    CP260745   8.105   6.443   7.209 -0.1671  1.0149 -0.3805
19199THY    HP260746   8.145   6.354   7.160 -0.8990  0.0545 -0.1934
19199THY    HP360747   7.996   6.443   7.208 -0.2153 -1.6014  0.4265
19199THY    HP460748   8.123   6.444   7.317  0.6662  0.8843  0.3018
19199THY    CP360749   8.084   6.587   6.994  0.3476 -0.1691 -0.0673
19199THY    HP560750   7.978   6.559   7.004  0.3254 -0.9643 -0.2954
19199THY    HP660751   8.113   6.527   6.907 -0.1447 -1.1652  1.0861
19199THY    HP760752   8.067   6.693   6.968 -2.8845  1.9177  0.0912
19199THY    CA360753   8.368   6.475   7.015 -0.3574  0.5678  0.3141
19199THY    HA360754   8.309   6.411   6.950 -0.2230  1.0471 -0.3014
19199THY    CA460755   8.512   6.466   7.007  0.2197  0.1867 -0.4432
19199THY    HA460756   8.563   6.394   6.944 -1.8872 -0.2134 -1.6488
19199THY    CA560757   8.591   6.548   7.087 -0.6482 -0.1477  0.5251
19199THY    CM160758   8.747   6.545   7.066 -0.0658  0.8119 -0.3267
19199THY    HM160759   8.800   6.625   7.120  0.1506 -2.5479  2.0039
19199THY    HM260760   8.765   6.568   6.961 -0.6116  0.8963  0.5419
19199THY    HM360761   8.797   6.451   7.092  3.1145 -1.1508  0.6778
19199THY    CA660762   8.538   6.649   7.161  0.1734 -0.0323 -0.0021
19199THY    HA660763   8.607   6.712   7.216 -0.1254 -0.4640  0.7164
19200THY      O60764   4.640   3.216   5.601 -0.7247  0.1864 -0.4551
19200THY     HO60765   4.554   3.261   5.592 -0.7618 -1.1488 -0.7514
19200THY    CA160766   4.614   3.088   5.607  0.9927  0.0263  0.4268
19200THY    CA260767   4.714   2.988   5.613  0.7039  0.1178  0.1790
19200THY    CP160768   4.851   3.034   5.651 -0.2035 -0.5277  0.2003
19200THY    HP160769   4.864   3.136   5.615 -0.8813  0.3179  0.5996
19200THY    CP260770   4.967   2.942   5.603 -0.5674  1.0089  0.0232
19200THY    HP260771   4.983   2.974   5.499  1.8988  1.6039  0.9472
19200THY    HP360772   4.938   2.838   5.619 -0.1892 -1.7117 -0.5920
19200THY    HP460773   5.059   2.953   5.662 -1.2263  2.3282 -1.2708
19200THY    CP360774   4.856   3.050   5.804 -0.5071  0.1821  0.5347
19200THY    HP560775   4.767   3.105   5.835 -1.7178 -1.6230 -0.2853
19200THY    HP660776   4.944   3.097   5.850 -2.3593  0.8796  3.5967
19200THY    HP760777   4.868   2.950   5.847  3.4729 -1.5445  0.0477
19200THY    CA360778   4.673   2.852   5.598 -0.3591  0.3762  0.9221
19200THY    HA360779   4.743   2.770   5.611 -0.4060  3.2285  1.2602
19200THY    CA460780   4.535   2.830   5.570  0.1441  0.0514  0.1512
19200THY    HA460781   4.491   2.731   5.566 -1.0529  0.3379  0.6577
19200THY    CA560782   4.454   2.940   5.547 -0.2985 -0.5450 -0.4421
19200THY    CM160783   4.307   2.912   5.520 -0.4671  0.2876 -0.4556
19200THY    HM160784   4.253   3.002   5.490 -0.0092  0.1758 -0.2152
19200THY    HM260785   4.257   2.860   5.603  0.0548 -0.7835 -2.8314
19200THY    HM360786   4.306   2.848   5.431  1.4838 -0.2337  0.1851
19200THY    CA660787   4.487   3.064   5.574 -1.0717  0.3437 -0.7467
19200THY    HA660788   4.407   3.136   5.560 -1.5621  2.7632 -0.7231
19201THY      O60789   1.055   3.413   2.773 -0.3556 -0.3131 -0.1957
19201THY     HO60790   1.130   3.352   2.781  0.3215  0.4569  0.7006
19201THY    CA160791   0.940   3.346   2.749 -0.0198  0.4912  0.1294
19201THY    CA260792   0.836   3.389   2.658 -0.4096 -0.2264  0.0536
19201THY    CP160793   0.853   3.521   2.583 -0.5972 -0.6857  0.6356
19201THY    HP160794   0.959   3.548   2.592 -0.6709 -1.1761  1.1130
19201THY    CP260795   0.776   3.631   2.652  0.2115 -0.1133 -0.3221
19201THY    HP260796   0.670   3.603   2.654 -0.4684  2.9266  1.9226
19201THY    HP360797   0.791   3.727   2.603  0.1681  0.8943  0.2134
19201THY    HP460798   0.807   3.642   2.757  0.6304 -0.3245  0.5893
19201THY    CP360799   0.811   3.519   2.439  0.0936 -0.0323  0.4175
19201THY    HP560800   0.706   3.485   2.434  0.2718  0.6586 -0.2624
19201THY    HP660801   0.861   3.436   2.388  0.6484  2.6208 -0.9677
19201THY    HP760802   0.830   3.615   2.390  1.1818  0.9773  0.7387
19201THY    CA360803   0.718   3.313   2.652  0.3892 -0.2057  0.9716
19201THY    HA360804   0.628   3.333   2.595  1.0512 -1.2611  0.9958
19201THY    CA460805   0.717   3.196   2.727 -0.7985 -0.2523  0.1908
19201THY    HA460806   0.629   3.134   2.714 -0.0280  0.3163 -1.0428
19201THY    CA560807   0.812   3.156   2.820 -0.1709 -0.3298 -0.3641
19201THY    CM160808   0.791   3.028   2.905  0.1102  0.8249  0.0962
19201THY    HM160809   0.892   2.993   2.929  0.4265 -1.2022 -0.5271
19201THY    HM260810   0.737   2.950   2.850 -0.5733  2.2823 -0.4934
19201THY    HM360811   0.730   3.057   2.991 -1.9719 -0.3841 -0.4842
19201THY    CA660812   0.926   3.235   2.834  0.8684  0.5267  0.0898
19201THY    HA660813   1.007   3.204   2.898  1.2903 -0.7976 -1.7169
19202THY      O60814   7.270   8.536   2.867 -0.0772  0.3844 -0.2056
19202THY     HO60815   7.308   8.538   2.777 -1.9329 -0.4497 -0.0828
19202THY    CA160816   7.238   8.666   2.891  0.7361 -0.1327 -0.0022
19202THY    CA260817   7.154   8.742   2.804 -0.2332 -0.2953 -0.1779
19202THY    CP160818   7.087   8.676   2.675 -0.3798 -0.2543  0.3073
19202THY    HP160819   7.124   8.573   2.667  0.3941  0.8597  0.4854
19202THY    CP260820   7.116   8.745   2.548 -0.3751 -0.0131  0.0658
19202THY    HP260821   7.070   8.844   2.554 -0.0816  1.4185  0.1257
19202THY    HP360822   7.087   8.693   2.455 -0.9757  1.1956 -1.8771
19202THY    HP460823   7.221   8.775   2.539 -0.7760  0.3964  1.6389
19202THY    CP360824   6.935   8.673   2.698 -0.4669  0.0533  0.1040
19202THY    HP560825   6.906   8.590   2.633  2.5767 -1.1579 -0.1240
19202THY    HP660826   6.891   8.765   2.658 -1.2806 -0.5200 -0.5184
19202THY    HP760827   6.898   8.656   2.800 -0.7089 -0.1046 -0.3274
19202THY    CA360828   7.133   8.875   2.834 -0.7717 -0.2238 -0.3760
19202THY    HA360829   7.058   8.932   2.779 -0.7916  0.9367  0.7548
19202THY    CA460830   7.187   8.941   2.944  0.0363 -0.2811  0.8729
19202THY    HA460831   7.162   9.046   2.957  0.6294  0.4421  0.9283
19202THY    CA560832   7.274   8.863   3.024 -0.4728 -0.0859 -0.2220
19202THY    CM160833   7.341   8.929   3.136 -0.2392  0.7071  0.5630
19202THY    HM160834   7.417   8.859   3.172 -1.1251  1.3800 -0.0823
19202THY    HM260835   7.264   8.932   3.214 -0.0494  0.9199 -0.0071
19202THY    HM360836   7.372   9.031   3.110 -0.3603 -0.5166  0.3070
19202THY    CA660837   7.306   8.725   2.998  0.0070  0.1264  0.6103
19202THY    HA660838   7.384   8.671   3.050  1.4600  0.1288  2.6036
19203THY      O60839   8.625   2.279   2.786 -0.4705  0.4220  0.4084
19203THY     HO60840   8.548   2.320   2.827 -1.5652 -0.9935 -0.1655
19203THY    CA160841   8.694   2.378   2.723 -0.4350 -1.0398  0.0887
19203THY    CA260842   8.836   2.376   2.712  0.1681 -0.3507  0.2636
19203THY    CP160843   8.915   2.248   2.731  0.2964  0.2770  0.7759
19203THY    HP160844   8.845   2.170   2.764 -2.5460 -1.9529  2.1894
19203THY    CP260845   9.002   2.269   2.857  0.2222  0.3248  0.1646
19203THY    HP260846   9.034   2.172   2.896  1.4305 -3.7112 -1.2806
19203THY    HP360847   8.954   2.333   2.932 -0.5238  1.0525 -1.2160
19203THY    HP460848   9.088   2.327   2.822  1.2794  1.8933 -0.4162
19203THY    CP360849   8.991   2.202   2.605 -0.5023 -0.3791  0.4120
19203THY    HP560850   8.920   2.209   2.522 -0.8173 -0.0237  1.9642
19203THY    HP660851   9.018   2.100   2.635 -0.3015  1.8133  1.0494
19203THY    HP760852   9.079   2.266   2.591 -1.5679 -1.4077  1.7152
19203THY    CA360853   8.900   2.495   2.671 -0.1539 -0.4248 -0.1537
19203THY    HA360854   9.008   2.499   2.665 -0.1139  0.4532  0.1492
19203THY    CA460855   8.824   2.615   2.648  0.5682 -0.1795  0.1900
19203THY    HA460856   8.865   2.713   2.625 -0.8821 -0.9408  0.6547
19203THY    CA560857   8.681   2.600   2.651  0.3134 -1.0685 -0.3634
19203THY    CM160858   8.583   2.703   2.599 -0.4961 -0.4038 -0.2613
19203THY    HM160859   8.571   2.676   2.493 -1.7346 -0.0715 -1.0765
19203THY    HM260860   8.625   2.804   2.614 -0.5222  2.3880 -0.5825
19203THY    HM360861   8.487   2.708   2.651 -1.4230 -2.1782  1.4686
19203THY    CA660862   8.618   2.486   2.703 -0.1402  0.3744 -0.7583
19203THY    HA660863   8.511   2.471   2.704 -0.1204  1.7035 -0.8954
19204THY      O60864   5.759   4.438   4.076  0.3763  0.1870 -0.1160
19204THY     HO60865   5.844   4.444   4.030  0.1510 -0.5716 -2.0315
19204THY    CA160866   5.779   4.508   4.189  0.4095  0.5333  0.4947
19204THY    CA260867   5.679   4.511   4.292 -0.2760  0.0488 -1.0075
19204THY    CP160868   5.549   4.441   4.274 -0.7134 -0.6943  0.3614
19204THY    HP160869   5.552   4.372   4.189  1.4417 -1.0863  0.8901
19204THY    CP260870   5.430   4.530   4.245  0.9054  0.9100 -0.6822
19204THY    HP260871   5.340   4.486   4.201  0.0937  1.4632  0.3950
19204THY    HP360872   5.449   4.601   4.163  2.8974  1.1579 -0.8610
19204THY    HP460873   5.388   4.582   4.331  2.1488  0.4947  1.1226
19204THY    CP360874   5.518   4.349   4.392  0.0919 -0.4786 -0.1427
19204THY    HP560875   5.449   4.270   4.361  1.8519 -1.7980 -1.2463
19204THY    HP660876   5.481   4.409   4.475 -0.1555 -2.2803  2.3870
19204THY    HP760877   5.613   4.299   4.415  1.5266 -0.9412  2.2174
19204THY    CA360878   5.716   4.564   4.418 -0.9742 -0.2340  0.0785
19204THY    HA360879   5.648   4.561   4.503 -2.0492 -1.0339  0.9006
19204THY    CA460880   5.842   4.625   4.436  0.6698  0.3602  0.1307
19204THY    HA460881   5.869   4.663   4.534  1.1107  0.7077 -1.0423
19204THY    CA560882   5.932   4.621   4.334  0.4705 -0.1811  0.0101
19204THY    CM160883   6.071   4.674   4.370  0.7344  0.4417  1.0262
19204THY    HM160884   6.148   4.630   4.305  0.2864 -0.2759  1.2861
19204THY    HM260885   6.085   4.639   4.473 -2.7721  0.4887 -0.5669
19204THY    HM360886   6.080   4.783   4.371 -0.2092  4.0381  1.1918
19204THY    CA660887   5.905   4.559   4.213  0.0336 -0.4064 -0.2974
19204THY    HA660888   5.993   4.533   4.155 -0.4971 -0.8653 -1.1157
19205THY      O60889   4.254   4.909   6.225  0.5182 -0.0610  0.0721
19205THY     HO60890   4.255   4.824   6.272 -1.5812 -1.2268 -0.6548
19205THY    CA160891   4.367   4.907   6.158 -0.5723  0.3613  0.1987
19205THY    CA260892   4.434   5.026   6.110 -0.3017 -1.2230  0.3299
19205THY    CP160893   4.374   5.169   6.121 -0.0415 -0.3223 -0.6104
19205THY    HP160894   4.279   5.174   6.176 -0.1058 -0.5392  1.2370
19205THY    CP260895   4.345   5.232   5.984  0.1412 -0.7841 -0.6155
19205THY    HP260896   4.438   5.239   5.926  0.5362 -0.4044 -2.2190
19205THY    HP360897   4.304   5.332   6.001  0.0679  1.6706 -1.0052
19205THY    HP460898   4.268   5.181   5.925  0.4476 -0.8171 -1.0479
19205THY    CP360899   4.469   5.262   6.198  0.5998  0.1480  0.1194
19205THY    HP560900   4.556   5.286   6.136 -1.6804 -2.8830  1.1044
19205THY    HP660901   4.508   5.214   6.289  0.7515 -1.6982 -3.6703
19205THY    HP760902   4.412   5.355   6.209  0.2446 -2.5254  0.2749
19205THY    CA360903   4.561   5.004   6.043  0.1490 -0.0162  0.2654
19205THY    HA360904   4.614   5.088   6.001  0.7423 -1.0606 -0.6123
19205THY    CA460905   4.608   4.876   6.027 -0.2631 -0.4844 -0.0713
19205THY    HA460906   4.696   4.871   5.964  0.7796  0.8152  1.1890
19205THY    CA560907   4.537   4.760   6.079  0.2295 -0.4987 -0.6528
19205THY    CM160908   4.597   4.623   6.090  0.1983 -1.1052  0.5664
19205THY    HM160909   4.638   4.610   6.190  0.3749 -1.2713 -0.2202
19205THY    HM260910   4.689   4.609   6.032  0.7858  0.3407 -2.5289
19205THY    HM360911   4.526   4.541   6.070  1.3154  2.8098 -1.6330
19205THY    CA660912   4.422   4.783   6.152 -0.1265  0.3720  0.4732
19205THY    HA660913   4.375   4.694   6.192 -0.9192  1.3065  1.2981
19206THY      O60914   0.824   4.969   4.013 -0.0607 -0.2894 -0.6572
19206THY     HO60915   0.833   4.890   3.957  0.7686  2.0998 -2.3665
19206THY    CA160916   0.820   5.069   3.920 -0.5552  0.1539 -0.3219
19206THY    CA260917   0.756   5.191   3.947 -0.9922 -0.4053  0.5909
19206THY    CP160918   0.709   5.216   4.090 -0.0391  1.1632 -0.0110
19206THY    HP160919   0.720   5.125   4.150  2.6802  0.7276 -0.0504
19206THY    CP260920   0.566   5.279   4.097 -0.4841  1.1257 -0.5138
19206THY    HP260921   0.541   5.283   4.204 -1.7968  0.8284 -0.5712
19206THY    HP360922   0.492   5.226   4.037  1.6529 -1.5426 -0.7174
19206THY    HP460923   0.565   5.383   4.061  0.7273  0.2085 -0.7963
19206THY    CP360924   0.808   5.311   4.156  0.0608 -0.7770  0.0746
19206THY    HP560925   0.909   5.298   4.114  0.6367  1.2706 -3.4984
19206THY    HP660926   0.807   5.292   4.264 -1.6183 -0.6999  0.4974
19206THY    HP760927   0.776   5.415   4.147  1.1250 -2.0624  0.3123
19206THY    CA360928   0.737   5.281   3.841  0.7174  0.2001 -0.9099
19206THY    HA360929   0.686   5.377   3.852 -0.8277  0.1847 -1.7057
19206THY    CA460930   0.770   5.247   3.713 -0.1782  0.3970  0.0209
19206THY    HA460931   0.751   5.314   3.629  0.7327  1.3247  1.5052
19206THY    CA560932   0.845   5.134   3.692  0.3573 -0.3665  0.8710
19206THY    CM160933   0.887   5.104   3.557 -0.7214  0.3387 -0.5535
19206THY    HM160934   0.805   5.115   3.485 -0.7014  0.2535 -0.9815
19206THY    HM260935   0.915   4.999   3.560  1.9412  1.7616  0.1095
19206THY    HM360936   0.972   5.169   3.532 -0.9164  2.6013  0.6923
19206THY    CA660937   0.864   5.042   3.791 -0.6196  0.7058 -0.2877
19206THY    HA660938   0.902   4.945   3.762 -1.2992 -0.6064 -0.1927
19207THY      O60939   6.227   0.568   5.361 -0.1108 -0.3503  0.1874
19207THY     HO60940   6.231   0.637   5.292 -2.7626 -0.5936  0.2315
19207THY    CA160941   6.131   0.597   5.457 -0.2821  0.6023  0.6152
19207THY    CA260942   6.165   0.587   5.592 -0.2497 -0.2438 -0.2071
19207THY    CP160943   6.282   0.502   5.630  0.2631 -0.4256  0.2698
19207THY    HP160944   6.326   0.460   5.538  0.4682  0.3223 -1.2370
19207THY    CP260945   6.247   0.390   5.729 -0.1206 -0.0287  0.2350
19207THY    HP260946   6.153   0.339   5.707  0.5391 -1.5035 -0.3939
19207THY    HP360947   6.252   0.424   5.833 -0.9111  0.3297 -0.6890
19207THY    HP460948   6.327   0.315   5.724  0.2813  1.4819  0.5235
19207THY    CP360949   6.393   0.592   5.696 -0.8403  0.1497  0.1150
19207THY    HP560950   6.373   0.633   5.795  2.6531  1.1936 -0.3483
19207THY    HP660951   6.412   0.678   5.631  1.8646 -1.1272 -1.2881
19207THY    HP760952   6.486   0.535   5.685  0.4020  0.2139  2.0136
19207THY    CA360953   6.065   0.623   5.688 -0.6740  0.1264 -0.2955
19207THY    HA360954   6.077   0.615   5.795 -0.7969  0.1531 -0.1335
19207THY    CA460955   5.947   0.686   5.646  0.3314 -0.4173  0.1966
19207THY    HA460956   5.871   0.720   5.717  0.6760 -0.1265  0.3652
19207THY    CA560957   5.926   0.699   5.508  0.1011  0.1239 -0.9081
19207THY    CM160958   5.799   0.765   5.455 -0.1470  0.2999  0.8220
19207THY    HM160959   5.712   0.746   5.519 -0.7521 -0.2372  1.7070
19207THY    HM260960   5.786   0.709   5.362 -0.9373  0.8439  0.0777
19207THY    HM360961   5.803   0.875   5.448  0.9619 -2.1915  0.6661
19207THY    CA660962   6.018   0.649   5.411 -0.1597  0.2701 -0.5178
19207THY    HA660963   6.008   0.668   5.305  2.5110 -0.1131 -0.9488
19208THY      O60964   6.401   2.983   6.863 -0.1918 -0.0563 -0.0881
19208THY     HO60965   6.376   3.053   6.927 -1.8533  0.7068 -1.2956
19208THY    CA160966   6.293   2.902   6.862  0.0117 -0.2128  0.0930
19208THY    CA260967   6.261   2.825   6.750  0.1757  0.0786  0.3036
19208THY    CP160968   6.349   2.804   6.625  0.6613  0.7629 -0.2329
19208THY    HP160969   6.430   2.876   6.638  0.1868 -3.1531  1.2678
19208THY    CP260970   6.284   2.840   6.489  0.5182 -0.0613 -0.1505
19208THY    HP260971   6.175   2.848   6.491  0.2378  0.9016 -3.0346
19208THY    HP360972   6.297   2.762   6.413  2.4029  1.2005 -1.1486
19208THY    HP460973   6.331   2.928   6.444  1.7253  1.2358 -0.0953
19208THY    CP360974   6.416   2.669   6.609  0.4296  0.3116 -0.1846
19208THY    HP560975   6.354   2.606   6.544 -0.2846  1.6645 -0.9231
19208THY    HP660976   6.410   2.620   6.707  1.8821  0.5708  0.1112
19208THY    HP760977   6.516   2.676   6.566  0.9761  1.2827 -1.5396
19208THY    CA360978   6.151   2.733   6.753  0.8136 -0.5209  0.1929
19208THY    HA360979   6.132   2.656   6.679  0.5792 -0.4788  0.2083
19208THY    CA460980   6.079   2.729   6.876  1.1669 -0.1782  0.0403
19208THY    HA460981   5.999   2.657   6.892 -0.3820  2.0045  2.0672
19208THY    CA560982   6.098   2.826   6.980 -0.3117  0.8583 -0.5458
19208THY    CM160983   6.010   2.832   7.103  0.5023  0.0188 -0.0907
19208THY    HM160984   5.916   2.779   7.086  1.2265 -2.0118 -0.8224
19208THY    HM260985   5.991   2.939   7.122 -0.2819 -2.0187  0.1785
19208THY    HM360986   6.065   2.794   7.190  0.5296  0.5294  1.0754
19208THY    CA660987   6.216   2.904   6.972 -0.7091 -0.6280  0.4720
19208THY    HA660988   6.245   2.958   7.062 -0.3662  0.6148 -1.6844
19209THY      O60989   9.298   2.034   5.936  0.4432 -0.0037  0.3978
19209THY     HO60990   9.321   1.988   6.019  0.7376 -0.0913  0.3824
19209THY    CA160991   9.323   2.165   5.948 -0.2882  0.9264 -0.0988
19209THY    CA260992   9.338   2.251   5.833  0.4893  0.2603 -0.1007
19209THY    CP160993   9.338   2.195   5.688 -0.2587 -0.2082  0.7443
19209THY    HP160994   9.263   2.115   5.680  0.7877  1.1845 -0.4457
19209THY    CP260995   9.480   2.151   5.643 -0.4077  0.6356  0.8343
19209THY    HP260996   9.546   2.239   5.648  1.5580 -0.4115 -0.5005
19209THY    HP360997   9.472   2.109   5.542  0.8141  1.1518 -0.7603
19209THY    HP460998   9.510   2.071   5.711  0.2664 -0.7557 -0.1427
19209THY    CP360999   9.287   2.298   5.588  0.5112  0.3104  0.1003
19209THY    HP561000   9.261   2.246   5.496 -2.4861  0.9609  0.2468
19209THY    HP661001   9.359   2.377   5.562 -0.2863 -2.4990 -0.0223
19209THY    HP761002   9.201   2.351   5.630 -1.0001 -1.7185 -0.6397
19209THY    CA361003   9.343   2.388   5.855  1.1513  0.3463 -0.3300
19209THY    HA361004   9.339   2.457   5.771 -1.7873  0.1998 -0.5352
19209THY    CA461005   9.341   2.442   5.990  0.0884  0.9287  0.8885
19209THY    HA461006   9.349   2.548   6.012 -3.2109 -0.3757  1.5253
19209THY    CA561007   9.333   2.353   6.100 -0.4468  0.4015  0.9649
19209THY    CM161008   9.343   2.407   6.238 -0.1285  0.3652 -0.5865
19209THY    HM161009   9.429   2.368   6.295  0.1553 -0.4945 -1.2369
19209THY    HM261010   9.251   2.407   6.298 -0.2201  0.2251 -0.4257
19209THY    HM361011   9.377   2.511   6.223  0.7933 -1.3038 -1.0975
19209THY    CA661012   9.319   2.213   6.075 -0.1961  0.4479  0.8584
19209THY    HA661013   9.325   2.150   6.164  0.8772  0.7112  1.3153
19210THY      O61014   3.682   7.774   5.697  0.1052 -0.4119 -0.0444
19210THY     HO61015   3.594   7.735   5.685 -0.0820 -3.3364  1.0571
19210THY    CA161016   3.747   7.728   5.582 -0.4164 -0.1411 -0.1765
19210THY    CA261017   3.779   7.814   5.476 -0.6765 -0.0508 -1.5166
19210THY    CP161018   3.758   7.971   5.494 -0.1649  0.1626  0.1042
19210THY    HP161019   3.714   7.998   5.591  1.7603  1.2725 -0.5202
19210THY    CP261020   3.658   8.025   5.389 -0.0574  0.0739  0.3920
19210THY    HP261021   3.552   8.013   5.414  0.0198 -0.2588 -1.1302
19210THY    HP361022   3.674   7.961   5.302 -0.2014  0.1447  0.2574
19210THY    HP461023   3.691   8.121   5.348  0.2870 -1.1771 -0.2432
19210THY    CP361024   3.890   8.048   5.487  0.7430  0.8484 -0.6063
19210THY    HP561025   3.968   8.005   5.552  0.5028  1.0892 -0.6794
19210THY    HP661026   3.871   8.153   5.509 -0.7353 -1.2312 -0.3729
19210THY    HP761027   3.927   8.051   5.384  0.5313  0.8032  1.0127
19210THY    CA361028   3.858   7.756   5.371 -0.3220 -0.1189 -0.4025
19210THY    HA361029   3.906   7.815   5.294 -0.4393  0.1798  0.0903
19210THY    CA461030   3.886   7.620   5.376 -0.3111 -0.1434 -0.1596
19210THY    HA461031   3.947   7.581   5.295 -0.2312 -0.2088  0.0968
19210THY    CA561032   3.839   7.532   5.472 -0.1505 -0.3256  0.1750
19210THY    CM161033   3.875   7.395   5.481 -0.2963 -0.5637  0.5085
19210THY    HM161034   3.829   7.339   5.399 -0.7284 -1.5565  2.2560
19210THY    HM261035   3.838   7.348   5.572 -1.2592 -0.8748  0.6429
19210THY    HM361036   3.982   7.371   5.484 -0.8548 -1.1799 -2.3926
19210THY    CA661037   3.777   7.590   5.585 -0.1009  0.4777 -1.0509
19210THY    HA661038   3.753   7.533   5.674 -1.9914 -0.4855 -1.8478
19211THY      O61039   2.530   3.445   1.873 -0.1185 -0.4627  0.2791
19211THY     HO61040   2.487   3.361   1.898  0.7889 -1.1096 -0.4065
19211THY    CA161041   2.652   3.406   1.836 -0.4433  0.5394  0.5113
19211THY    CA261042   2.772   3.477   1.862 -0.0127  0.4862  0.7056
19211THY    CP161043   2.764   3.602   1.951 -0.7448  0.0613 -0.0650
19211THY    HP161044   2.662   3.626   1.982 -0.0109  2.4507  0.2776
19211THY    CP261045   2.815   3.732   1.882  0.6270  1.0003  0.3903
19211THY    HP261046   2.924   3.732   1.888  0.6199  1.1687  1.2103
19211THY    HP361047   2.774   3.817   1.937 -0.0591  0.0259  0.7104
19211THY    HP461048   2.785   3.740   1.777  1.5513  0.8454  2.3641
19211THY    CP361049   2.848   3.589   2.082  0.2425  0.6218 -0.0469
19211THY    HP561050   2.955   3.599   2.060  0.2032  0.3091 -0.3118
19211THY    HP661051   2.828   3.493   2.130 -3.4385 -1.1711 -0.3374
19211THY    HP761052   2.825   3.677   2.144 -0.5391  0.4054 -0.0924
19211THY    CA361053   2.897   3.426   1.813  0.0183  0.8373 -0.0612
19211THY    HA361054   2.989   3.483   1.830 -1.0959  2.1100  1.4329
19211THY    CA461055   2.900   3.306   1.738 -0.0622 -0.3021 -0.0876
19211THY    HA461056   2.994   3.272   1.696  0.6318  0.3410  0.9849
19211THY    CA561057   2.783   3.234   1.713 -0.5073 -0.1283 -0.4552
19211THY    CM161058   2.786   3.113   1.628  0.7903 -0.4161  1.0222
19211THY    HM161059   2.877   3.110   1.568  1.2308  0.2922  0.0249
19211THY    HM261060   2.698   3.090   1.567  1.3546 -0.8464 -0.0349
19211THY    HM361061   2.798   3.027   1.695  0.1875 -2.3137 -0.6200
19211THY    CA661062   2.665   3.280   1.768 -0.1121 -0.4335  0.7854
19211THY    HA661063   2.569   3.240   1.736 -1.1457  1.4139  1.6524
19212THY      O61064   7.847   4.678   2.758 -0.0378  0.3010 -0.1037
19212THY     HO61065   7.918   4.723   2.806  1.1882  0.2423 -1.9008
19212THY    CA161066   7.744   4.684   2.844  0.2634 -0.0817  0.0112
19212THY    CA261067   7.650   4.582   2.852  0.0351 -0.0995 -0.0876
19212THY    CP161068   7.670   4.449   2.777 -1.3851 -0.1406 -0.6587
19212THY    HP161069   7.757   4.454   2.711 -1.4586 -0.1802  0.1078
19212THY    CP261070   7.551   4.411   2.692 -0.4124  0.1004 -0.5500
19212THY    HP261071   7.562   4.305   2.666 -0.0014  0.4181 -0.5900
19212THY    HP361072   7.538   4.470   2.601  1.7700 -1.2976 -2.0975
19212THY    HP461073   7.460   4.419   2.752 -0.3024  0.6397 -2.7276
19212THY    CP361074   7.717   4.339   2.883  0.0004 -0.0506  0.1806
19212THY    HP561075   7.823   4.362   2.903  0.1596 -0.1016 -0.4713
19212THY    HP661076   7.717   4.240   2.835  0.9768 -0.3987  0.3335
19212THY    HP761077   7.649   4.342   2.969  1.4797  1.1365  1.4980
19212THY    CA361078   7.541   4.597   2.943  0.6446  0.5171  0.2513
19212THY    HA361079   7.482   4.515   2.983 -1.6768  0.1660  1.6532
19212THY    CA461080   7.543   4.704   3.036 -0.4545  0.2153 -1.1304
19212THY    HA461081   7.465   4.726   3.109 -0.1817 -0.2737  1.8945
19212THY    CA561082   7.624   4.808   3.019  0.3262  0.3715 -0.6915
19212THY    CM161083   7.599   4.929   3.114 -0.2346  0.0936  0.5269
19212THY    HM161084   7.523   4.995   3.070  1.5479  0.8225  3.2267
19212THY    HM261085   7.687   4.995   3.115 -0.3461 -0.6066  0.6935
19212THY    HM361086   7.577   4.892   3.215  1.2870  0.2999  0.1270
19212THY    CA661087   7.728   4.801   2.923  0.4221 -0.2236 -0.2511
19212THY    HA661088   7.794   4.888   2.917 -0.1418 -1.9724  0.1009
19213THY      O61089   7.076   3.891   5.726  0.6666  0.4617 -0.5845
19213THY     HO61090   7.153   3.911   5.782  1.0371  0.2634 -1.4201
19213THY    CA161091   6.962   3.854   5.795  0.8359 -0.2186 -0.4996
19213THY    CA261092   6.862   3.777   5.741  0.2141  0.4274  0.4441
19213THY    CP161093   6.886   3.733   5.596  0.4266  0.4341 -0.2550
19213THY    HP161094   6.993   3.731   5.574  0.5156  0.8477 -0.1179
19213THY    CP261095   6.818   3.818   5.493 -0.0182  0.0352  0.1195
19213THY    HP261096   6.890   3.836   5.412 -0.7026 -0.7551 -0.6327
19213THY    HP361097   6.812   3.921   5.529 -1.2629 -0.3446  0.1840
19213THY    HP461098   6.724   3.778   5.455 -0.2630  0.2764  0.4613
19213THY    CP361099   6.847   3.580   5.572 -0.3603  0.1396 -0.1601
19213THY    HP561100   6.927   3.530   5.627 -0.5977 -0.9569 -1.8376
19213THY    HP661101   6.852   3.558   5.465  0.0708 -0.0629  0.8635
19213THY    HP761102   6.746   3.554   5.608  0.1125  1.0743 -0.7582
19213THY    CA361103   6.759   3.728   5.820 -0.3552 -0.2918 -0.3005
19213THY    HA361104   6.679   3.665   5.782 -1.0103  2.8284 -1.5135
19213THY    CA461105   6.750   3.759   5.958  0.2045  0.3400 -0.8151
19213THY    HA461106   6.671   3.718   6.020  0.1611  1.2741  0.5967
19213THY    CA561107   6.854   3.837   6.012  0.6862 -0.3320  0.6767
19213THY    CM161108   6.844   3.875   6.156  0.6024  0.8088 -0.1223
19213THY    HM161109   6.777   3.826   6.228  0.7411  1.0776  0.0817
19213THY    HM261110   6.830   3.983   6.160  0.6808 -1.0973 -0.0002
19213THY    HM361111   6.941   3.845   6.198 -0.5785  2.6509 -1.6063
19213THY    CA661112   6.950   3.885   5.929  0.3387 -0.4357  0.4305
19213THY    HA661113   7.026   3.938   5.985  0.3121 -1.0447  1.1352
19214THY      O61114   4.258   1.212   3.628 -0.7268 -0.6024  0.0361
19214THY     HO61115   4.318   1.154   3.679  2.2817 -1.5588  2.0948
19214THY    CA161116   4.241   1.323   3.699  0.5669 -0.3668 -0.7961
19214THY    CA261117   4.119   1.354   3.765 -0.2900  0.3305  0.2373
19214THY    CP161118   4.015   1.239   3.782 -0.7013  0.1938 -0.1067
19214THY    HP161119   4.041   1.149   3.726 -0.2711  1.4809 -0.8111
19214THY    CP261120   3.870   1.290   3.743 -0.1241 -0.2406 -0.0230
19214THY    HP261121   3.838   1.387   3.784  0.5399 -0.7472  0.4195
19214THY    HP361122   3.800   1.223   3.793  0.5492  1.0188  0.1720
19214THY    HP461123   3.864   1.281   3.634 -0.8753 -0.0965 -1.4282
19214THY    CP361124   4.026   1.191   3.929 -0.3486 -0.8947  0.1187
19214THY    HP561125   3.935   1.134   3.953  0.7763  0.6735 -1.1151
19214THY    HP661126   4.036   1.281   3.990  1.4512 -0.0204 -0.6206
19214THY    HP761127   4.118   1.132   3.940  0.8007 -2.7589  1.4549
19214THY    CA361128   4.097   1.478   3.831 -0.3007  0.5417 -0.2515
19214THY    HA361129   4.008   1.497   3.890 -0.5304  0.5322 -1.2413
19214THY    CA461130   4.197   1.576   3.818 -0.1249  1.0433  0.2617
19214THY    HA461131   4.184   1.676   3.859  0.0366  3.3301 -0.6063
19214THY    CA561132   4.320   1.546   3.756  0.1280  0.3961  0.1285
19214THY    CM161133   4.436   1.649   3.752 -0.3638  0.8969 -0.5222
19214THY    HM161134   4.447   1.709   3.843  0.2028 -0.0363  0.8443
19214THY    HM261135   4.416   1.724   3.675 -0.6630  0.5895 -0.9100
19214THY    HM361136   4.535   1.607   3.729 -0.1049  0.6368  0.2140
19214THY    CA661137   4.336   1.422   3.695  0.5432  0.1881  0.1652
19214THY    HA661138   4.430   1.386   3.653 -0.0768 -1.3410  0.2256
19215THY      O61139   2.910   0.075   6.869  0.0229  0.1391  0.3508
19215THY     HO61140   2.907   0.012   6.795  1.2681  1.0265 -0.8177
19215THY    CA161141   2.909   0.199   6.817  0.1218 -0.0074  0.1322
19215THY    CA261142   2.956   0.309   6.888  0.0505 -0.6108  0.2786
19215THY    CP161143   3.009   0.294   7.036 -0.2798 -0.4668 -0.0909
19215THY    HP161144   3.033   0.191   7.064 -1.7703  2.1689  0.1911
19215THY    CP261145   2.908   0.357   7.131 -0.5289 -0.4120 -0.7775
19215THY    HP261146   2.891   0.464   7.118  1.2050  4.8843  0.4278
19215THY    HP361147   2.941   0.343   7.235  1.3274 -0.6261  1.4264
19215THY    HP461148   2.810   0.311   7.112 -1.8396  0.7772  1.3476
19215THY    CP361149   3.149   0.356   7.054  0.5667 -0.0727 -0.2314
19215THY    HP561150   3.209   0.311   6.973  0.1636 -1.3656  1.4541
19215THY    HP661151   3.211   0.324   7.139  2.4490 -1.3500 -0.1515
19215THY    HP761152   3.162   0.465   7.053  2.8657 -0.1399 -0.4556
19215THY    CA361153   2.946   0.442   6.840 -0.3922 -0.0497  0.6419
19215THY    HA361154   2.988   0.529   6.890 -0.7602 -0.4983  1.0795
19215THY    CA461155   2.910   0.460   6.707  0.3850 -0.1383  0.0849
19215THY    HA461156   2.916   0.560   6.665 -0.8066  1.7798  1.0114
19215THY    CA561157   2.871   0.352   6.627 -0.1815  0.7914  0.0279
19215THY    CM161158   2.846   0.368   6.479  0.5035  0.0445 -0.0817
19215THY    HM161159   2.777   0.289   6.450 -0.2682  0.2885  0.4885
19215THY    HM261160   2.934   0.347   6.416  2.4347  2.5509  0.0016
19215THY    HM361161   2.812   0.470   6.457 -0.4528  1.5784 -0.0427
19215THY    CA661162   2.861   0.221   6.684  0.3444 -1.2366 -0.2505
19215THY    HA661163   2.818   0.138   6.629  1.2631  0.3961 -1.8703
19216THY      O61164   0.317   4.597   5.035  0.0834 -0.9029  0.0668
19216THY     HO61165   0.357   4.562   4.953  0.3431 -1.0687  0.7376
19216THY    CA161166   0.419   4.661   5.098 -0.2174  0.0074  0.2741
19216THY    CA261167   0.417   4.692   5.235 -0.9399  0.8752  0.2295
19216THY    CP161168   0.300   4.660   5.320  0.9503 -0.7303  0.6043
19216THY    HP161169   0.213   4.641   5.257  0.6380  0.0222 -0.6080
19216THY    CP261170   0.270   4.775   5.426  0.6902  0.5824 -0.2429
19216THY    HP261171   0.161   4.779   5.432  0.5888 -0.4173 -1.2167
19216THY    HP361172   0.318   4.863   5.381  0.0608 -0.2519 -0.3171
19216THY    HP461173   0.312   4.760   5.527  1.7742  0.0584 -0.8229
19216THY    CP361174   0.318   4.526   5.405  0.0304  0.3379 -0.1429
19216THY    HP561175   0.420   4.520   5.445  1.6010 -3.2404  0.4899
19216THY    HP661176   0.311   4.439   5.339 -0.5460  0.4033 -0.1536
19216THY    HP761177   0.239   4.512   5.480 -0.7081 -0.6526 -1.5310
19216THY    CA361178   0.532   4.743   5.288  0.1281  0.0007 -0.2288
19216THY    HA361179   0.525   4.769   5.393 -2.0062 -0.3294  0.7212
19216THY    CA461180   0.650   4.775   5.212 -0.3917 -0.3847 -0.5076
19216THY    HA461181   0.735   4.823   5.261 -0.5809 -1.5643  1.1285
19216THY    CA561182   0.641   4.747   5.080  0.2764  0.6245  0.5835
19216THY    CM161183   0.753   4.780   4.992 -0.1190  0.2906 -0.2445
19216THY    HM161184   0.820   4.695   4.977  0.3512  0.0015  0.1755
19216THY    HM261185   0.814   4.862   5.032 -1.7783 -0.4618  1.4359
19216THY    HM361186   0.717   4.823   4.898 -1.0441  0.3697 -0.8050
19216THY    CA661187   0.528   4.690   5.017 -0.0120 -0.3971 -0.5273
19216THY    HA661188   0.533   4.666   4.911 -1.2996 -0.8555  1.0559
19217THY      O61189   1.273   3.249   2.720  0.0824 -0.1462  0.1285
19217THY     HO61190   1.286   3.242   2.624 -1.4510 -0.5695  2.2222
19217THY    CA161191   1.397   3.230   2.762 -0.2229 -0.3026  0.3053
19217THY    CA261192   1.447   3.196   2.888 -0.1092 -0.0422  0.9131
19217THY    CP161193   1.343   3.188   3.003  0.0456 -0.3235  0.1018
19217THY    HP161194   1.247   3.235   2.976  0.9823  0.0296  2.3796
19217THY    CP261195   1.403   3.235   3.133 -0.1751  0.2642  0.7362
19217THY    HP261196   1.332   3.242   3.216  1.7088  2.0048  0.1188
19217THY    HP361197   1.447   3.336   3.130 -0.5914 -1.9489  0.8957
19217THY    HP461198   1.474   3.162   3.173  0.6351 -0.1758  1.2699
19217THY    CP361199   1.289   3.039   3.014 -0.1726 -0.5395  0.1204
19217THY    HP561200   1.368   2.966   2.989 -0.2589  0.0516 -0.1807
19217THY    HP661201   1.205   3.025   2.945 -1.7408  1.2925  0.1323
19217THY    HP761202   1.262   3.009   3.116 -0.7326 -0.3566  1.2103
19217THY    CA361203   1.579   3.151   2.905  0.1090  0.1852  0.3388
19217THY    HA361204   1.624   3.125   3.001  0.2131 -0.1357 -0.7328
19217THY    CA461205   1.655   3.148   2.792 -0.5895  0.3669  0.0049
19217THY    HA461206   1.750   3.096   2.800 -1.0784 -0.3938 -1.0402
19217THY    CA561207   1.617   3.188   2.664 -0.3961 -0.2547  0.1339
19217THY    CM161208   1.706   3.169   2.546  0.6805 -0.6203  0.4509
19217THY    HM161209   1.812   3.164   2.576 -0.0472  1.9536 -1.6084
19217THY    HM261210   1.696   3.246   2.469  2.1191 -1.3619 -0.0674
19217THY    HM361211   1.675   3.080   2.490 -2.0039  1.9174 -0.3476
19217THY    CA661212   1.490   3.244   2.654  0.1441  0.2804 -0.3274
19217THY    HA661213   1.461   3.266   2.551  1.5952 -0.0283  0.2274
19218THY      O61214   3.612   4.515   4.317  0.1297  0.5967  0.4752
19218THY     HO61215   3.567   4.506   4.231 -2.5618  1.9396  0.2547
19218THY    CA161216   3.622   4.648   4.352 -0.8974 -0.3022 -0.5459
19218THY    CA261217   3.661   4.699   4.473 -0.2687 -0.5385  0.2861
19218THY    CP161218   3.699   4.603   4.583 -0.6396 -0.6712 -0.7056
19218THY    HP161219   3.759   4.518   4.547  1.4944  0.8350  0.0604
19218THY    CP261220   3.578   4.533   4.645 -0.4942 -0.4966  0.5242
19218THY    HP261221   3.497   4.517   4.573 -0.1780 -0.6239 -0.6200
19218THY    HP361222   3.547   4.599   4.727 -0.0956  0.0776  0.0130
19218THY    HP461223   3.612   4.439   4.691  0.5311  1.7100  1.9077
19218THY    CP361224   3.793   4.670   4.695 -0.5105  0.2241  0.2496
19218THY    HP561225   3.877   4.730   4.659  0.0046 -0.7568 -1.0447
19218THY    HP661226   3.829   4.586   4.755  1.5551 -1.5483 -0.2167
19218THY    HP761227   3.717   4.724   4.754 -1.0528 -1.5209  1.5134
19218THY    CA361228   3.667   4.836   4.495 -0.4242  0.0307  0.0765
19218THY    HA361229   3.710   4.886   4.582 -1.8781  0.3263  0.8743
19218THY    CA461230   3.646   4.923   4.392  0.4325  0.4067  0.4621
19218THY    HA461231   3.672   5.028   4.403  0.6008  1.3719  0.3283
19218THY    CA561232   3.592   4.875   4.274 -0.3386 -0.6402 -0.2882
19218THY    CM161233   3.560   4.970   4.155 -0.8808  0.0042 -0.2483
19218THY    HM161234   3.543   4.904   4.070 -1.4280 -1.5773  1.8158
19218THY    HM261235   3.648   5.033   4.136 -2.0141 -0.1291  1.3749
19218THY    HM361236   3.471   5.032   4.173  0.7529  0.0410  2.2117
19218THY    CA661237   3.587   4.740   4.256 -0.1754 -0.0242  0.3506
19218THY    HA661238   3.548   4.701   4.162 -3.1798  1.1709  0.1602
19219THY      O61239   0.808   3.785   7.419  0.0184 -0.4155  0.2116
19219THY     HO61240   0.867   3.721   7.375 -1.9125  0.7576 -2.6007
19219THY    CA161241   0.744   3.836   7.316  0.0093  0.1739  0.9511
19219THY    CA261242   0.663   3.956   7.331  0.4672 -0.4351 -0.1723
19219THY    CP161243   0.648   4.032   7.466  0.0999  0.0967  0.0812
19219THY    HP161244   0.705   3.974   7.539 -1.7200  1.6825  0.1940
19219THY    CP261245   0.515   4.027   7.530 -0.3154  1.2663  0.1273
19219THY    HP261246   0.487   3.921   7.524 -0.5277 -3.9037  0.2312
19219THY    HP361247   0.451   4.102   7.483  1.4609  0.3087  1.1063
19219THY    HP461248   0.525   4.059   7.635 -2.6921  2.1264 -1.5933
19219THY    CP361249   0.704   4.180   7.462 -0.0845 -0.1018 -0.1398
19219THY    HP561250   0.804   4.189   7.420  0.6941  1.9555  1.8945
19219THY    HP661251   0.718   4.229   7.559 -2.3796  0.0880  0.2560
19219THY    HP761252   0.647   4.243   7.393  0.4400 -1.2204 -0.8649
19219THY    CA361253   0.594   4.012   7.216 -0.0761 -0.2064  0.1957
19219THY    HA361254   0.531   4.099   7.233  1.4016 -0.0641  1.2855
19219THY    CA461255   0.596   3.945   7.097  0.3008  0.3335  0.1654
19219THY    HA461256   0.533   3.985   7.018  1.2123  0.2088  1.4286
19219THY    CA561257   0.675   3.833   7.082  0.1813  1.0581  0.4821
19219THY    CM161258   0.683   3.768   6.942 -0.4255  0.0563  0.1931
19219THY    HM161259   0.663   3.832   6.855  0.3275  0.3870  0.8875
19219THY    HM261260   0.603   3.692   6.944  0.5813  1.5825 -0.8678
19219THY    HM361261   0.770   3.704   6.926 -1.2124  0.9970 -1.1792
19219THY    CA661262   0.744   3.779   7.192  0.0663  1.1146  0.2741
19219THY    HA661263   0.800   3.688   7.173 -1.8656 -2.6920 -0.3586
19220THY      O61264   6.364   2.888   5.456 -0.0565  0.0472  0.3913
19220THY     HO61265   6.414   2.929   5.384  3.0025  0.0674 -2.7862
19220THY    CA161266   6.232   2.924   5.449  0.2759  0.1723 -0.1654
19220THY    CA261267   6.138   2.866   5.535  0.1697  0.4691 -0.1609
19220THY    CP161268   6.192   2.767   5.636  0.0354 -0.4293  0.5959
19220THY    HP161269   6.301   2.774   5.646  0.0958 -0.5700 -0.0355
19220THY    CP261270   6.162   2.625   5.574 -0.1651 -0.0651  0.0433
19220THY    HP261271   6.209   2.622   5.475 -1.8748 -0.9912  1.5507
19220THY    HP361272   6.057   2.595   5.562  1.0689 -2.0146 -4.2133
19220THY    HP461273   6.227   2.556   5.629  1.3424 -1.1545  0.5500
19220THY    CP361274   6.129   2.788   5.770  0.2059 -0.3415 -0.5230
19220THY    HP561275   6.181   2.724   5.842  0.4669 -0.5884 -0.5938
19220THY    HP661276   6.024   2.759   5.768  0.0534 -1.0991  0.0386
19220THY    HP761277   6.153   2.892   5.795 -1.8977  0.0249 -0.0950
19220THY    CA361278   6.001   2.885   5.519  0.2433  0.0340 -0.4289
19220THY    HA361279   5.925   2.827   5.571 -1.5991 -0.9658  0.9954
19220THY    CA461280   5.959   2.977   5.409 -0.6980 -0.5875  0.1947
19220THY    HA461281   5.854   3.004   5.402 -1.0829  1.0460 -0.7674
19220THY    CA561282   6.056   3.035   5.327 -0.5420 -0.1715 -0.1857
19220THY    CM161283   6.022   3.120   5.200  0.2140 -0.6731 -0.3395
19220THY    HM161284   6.022   3.227   5.223 -1.9290 -0.9900 -0.2282
19220THY    HM261285   5.921   3.108   5.159  0.4918 -1.3603 -0.3856
19220THY    HM361286   6.102   3.107   5.126  1.1442 -0.0195  1.4467
19220THY    CA661287   6.195   3.017   5.356  1.1668 -0.1710 -0.5547
19220THY    HA661288   6.269   3.044   5.282  1.3472 -1.2145 -3.4949
19221THY      O61289   8.009   5.994   6.205  0.5430  0.4414  0.5949
19221THY     HO61290   8.044   5.969   6.118 -0.3006 -0.5378  2.6305
19221THY    CA161291   8.081   5.924   6.289  0.6420 -0.1235 -0.4832
19221THY    CA261292   8.046   5.897   6.417  0.8216  0.0022 -0.6183
19221THY    CP161293   7.916   5.947   6.482 -0.4335 -0.2667 -0.0721
19221THY    HP161294   7.849   6.005   6.417 -0.7581 -0.0076 -0.1557
19221THY    CP261295   7.945   6.026   6.606  0.7266  0.3327  0.0604
19221THY    HP261296   7.845   6.042   6.648 -0.3137 -1.6638 -0.7709
19221THY    HP361297   7.997   6.118   6.578  1.6437 -0.0181 -0.5492
19221THY    HP461298   8.005   5.965   6.674  0.6067 -0.2750 -0.7602
19221THY    CP361299   7.823   5.829   6.509 -0.0906  0.3525  0.2863
19221THY    HP561300   7.727   5.875   6.532 -0.0395 -0.3153  0.7338
19221THY    HP661301   7.864   5.779   6.598  1.0385  0.4163  1.2811
19221THY    HP761302   7.812   5.760   6.424  0.5664  1.2729 -0.9998
19221THY    CA361303   8.127   5.815   6.496 -0.7204 -0.8658  0.9333
19221THY    HA361304   8.105   5.783   6.598  3.1558 -0.4286 -0.9110
19221THY    CA461305   8.244   5.754   6.443  0.3531  0.3268 -0.9315
19221THY    HA461306   8.299   5.686   6.507 -0.7344  1.6215 -0.6423
19221THY    CA561307   8.281   5.783   6.310  0.2792 -0.6607 -0.0471
19221THY    CM161308   8.399   5.719   6.248 -1.0364 -0.5328  0.0003
19221THY    HM161309   8.384   5.690   6.144 -0.2443 -1.1254  1.5929
19221THY    HM261310   8.438   5.631   6.300 -2.1956  0.1760 -0.1164
19221THY    HM361311   8.475   5.798   6.252  0.4784  2.4491 -1.4324
19221THY    CA661312   8.197   5.870   6.238 -0.1221  0.3064  0.3782
19221THY    HA661313   8.231   5.897   6.138  1.7676  1.0988  1.0666
19222THY      O61314   7.591   8.687   2.746 -0.0234  0.1812 -0.3895
19222THY     HO61315   7.620   8.599   2.774 -2.3492 -1.2333 -1.7267
19222THY    CA161316   7.614   8.773   2.842  0.1551  0.1549 -0.1735
19222THY    CA261317   7.595   8.912   2.816 -0.4308  0.4234 -0.3582
19222THY    CP161318   7.562   8.965   2.679 -0.4449 -0.5850 -0.2575
19222THY    HP161319   7.498   8.889   2.634  2.8461  0.8132 -4.1857
19222THY    CP261320   7.693   9.003   2.594  1.1584  0.9597  0.9013
19222THY    HP261321   7.757   9.081   2.637  0.8278 -0.0295  1.7405
19222THY    HP361322   7.644   9.047   2.507 -1.0124  0.7583 -1.6134
19222THY    HP461323   7.751   8.915   2.564 -0.9612  0.3452 -0.3670
19222THY    CP361324   7.478   9.099   2.698  0.6195 -0.5587 -0.1312
19222THY    HP561325   7.418   9.132   2.612 -4.6895  3.0296  0.8521
19222THY    HP661326   7.543   9.183   2.724  0.5970 -1.2107  0.0950
19222THY    HP761327   7.402   9.087   2.776  2.6812  1.4878 -0.5899
19222THY    CA361328   7.626   8.995   2.925  0.1749  0.5213  0.5144
19222THY    HA361329   7.609   9.102   2.915 -0.5509 -1.9542  0.2209
19222THY    CA461330   7.667   8.938   3.049  0.9206 -0.1448 -0.4204
19222THY    HA461331   7.673   9.000   3.137  1.4543 -1.5033  1.5686
19222THY    CA561332   7.684   8.798   3.065 -0.1808 -0.4707  0.7721
19222THY    CM161333   7.708   8.736   3.201  0.1899 -0.2879  0.1406
19222THY    HM161334   7.760   8.640   3.190 -0.6876 -3.2917 -0.1002
19222THY    HM261335   7.612   8.718   3.250 -0.3805 -1.5163 -0.3244
19222THY    HM361336   7.754   8.807   3.271 -0.7336  2.0993 -1.4786
19222THY    CA661337   7.662   8.717   2.958  0.9218  0.0651 -0.0453
19222THY    HA661338   7.671   8.610   2.973  0.2410 -0.4024 -0.1718
19223THY      O61339   6.335   7.869   3.647  0.0677 -0.1086  0.3442
19223THY     HO61340   6.260   7.915   3.604  0.7260 -0.0363  1.5332
19223THY    CA161341   6.290   7.765   3.711  0.6092  0.2231  0.0823
19223THY    CA261342   6.219   7.777   3.834 -0.4153 -0.1988 -0.0739
19223THY    CP161343   6.201   7.915   3.904  0.0190  0.2530  0.3892
19223THY    HP161344   6.175   7.988   3.827 -2.2367 -0.5600 -1.1537
19223THY    CP261345   6.327   7.961   3.982 -0.8768 -0.0536  0.3422
19223THY    HP261346   6.319   7.946   4.090 -0.2841 -0.1768 -1.0586
19223THY    HP361347   6.341   8.068   3.960 -0.8223 -4.8567 -0.4281
19223THY    HP461348   6.421   7.922   3.941 -1.1780  1.1491 -1.8039
19223THY    CP361349   6.076   7.929   3.993  0.0239 -0.7302 -0.3946
19223THY    HP561350   6.099   7.873   4.085 -1.5861  0.2155  0.4317
19223THY    HP661351   5.987   7.898   3.938  0.8473 -1.9574 -0.6714
19223THY    HP761352   6.053   8.030   4.028 -1.3473 -0.9382 -0.6189
19223THY    CA361353   6.161   7.659   3.887  0.1626 -0.0120 -0.0749
19223THY    HA361354   6.105   7.659   3.980  1.4392  0.7827 -0.2139
19223THY    CA461355   6.165   7.539   3.816  0.2651  0.4648  0.1219
19223THY    HA461356   6.109   7.450   3.844  0.2620 -0.4556 -0.1822
19223THY    CA561357   6.233   7.528   3.696  0.8013 -0.6143  0.1708
19223THY    CM161358   6.253   7.394   3.623 -1.0368 -0.0549  0.0236
19223THY    HM161359   6.294   7.321   3.694 -1.8802 -0.5357 -0.9474
19223THY    HM261360   6.334   7.416   3.553 -2.1872 -1.4080  0.0855
19223THY    HM361361   6.173   7.345   3.567  0.8572 -0.6669 -2.5853
19223THY    CA661362   6.291   7.638   3.641 -0.5741  0.1757 -0.8167
19223THY    HA661363   6.340   7.640   3.544  0.3699  0.6295 -1.2304
19224THY      O61364   3.065   5.434   4.690  0.8661  0.2279  0.1587
19224THY     HO61365   3.086   5.528   4.702  2.2839 -1.4554  0.1216
19224THY    CA161366   2.967   5.405   4.781 -0.2004  1.3474  0.1635
19224THY    CA261367   2.922   5.276   4.788  0.0194 -0.3938  0.1463
19224THY    CP161368   2.979   5.164   4.709  0.3529  0.4617  0.5544
19224THY    HP161369   3.022   5.193   4.612 -0.2509 -0.7849 -2.3024
19224THY    CP261370   2.872   5.067   4.651 -0.7057 -0.2471  0.1359
19224THY    HP261371   2.812   5.018   4.728 -0.7717  0.4551  1.2663
19224THY    HP361372   2.916   4.983   4.597 -0.8118  1.8519 -1.3615
19224THY    HP461373   2.799   5.115   4.586 -0.0346 -1.8265 -0.9210
19224THY    CP361374   3.078   5.085   4.794 -0.3553 -0.8057 -0.9966
19224THY    HP561375   3.141   5.009   4.747 -0.7030 -1.0426 -1.1415
19224THY    HP661376   3.027   5.044   4.882  0.9011 -1.4937 -4.3003
19224THY    HP761377   3.143   5.160   4.841  1.6495  0.6978 -3.4879
19224THY    CA361378   2.818   5.254   4.875 -0.3062  0.2517  0.3195
19224THY    HA361379   2.799   5.151   4.903 -1.2355 -0.7507  0.1971
19224THY    CA461380   2.757   5.358   4.946 -0.1183  0.1463 -0.5685
19224THY    HA461381   2.679   5.320   5.011  0.6740  1.1350 -0.5419
19224THY    CA561382   2.794   5.491   4.914  0.4470  0.1633 -0.0277
19224THY    CM161383   2.715   5.610   4.961  0.6820  0.5836 -0.2248
19224THY    HM161384   2.608   5.586   4.963  0.3202 -4.9972 -0.4656
19224THY    HM261385   2.737   5.695   4.895  1.6217  3.3197  1.7888
19224THY    HM361386   2.746   5.645   5.060  0.4663  0.4056  0.4984
19224THY    CA661387   2.884   5.511   4.814 -0.5851  0.1051  0.4200
19224THY    HA661388   2.896   5.613   4.780  3.6358  0.8369  0.3591
19225THY      O61389   2.020   8.533   5.460  0.0177  0.2660  0.3683
19225THY     HO61390   2.089   8.464   5.471 -0.1332 -1.4087 -0.0794
19225THY    CA161391   1.922   8.455   5.416 -0.0105 -0.0512 -0.4061
19225THY    CA261392   1.793   8.511   5.382  0.5143  0.2923 -0.4091
19225THY    CP161393   1.767   8.663   5.370  0.3516  0.9531  0.1973
19225THY    HP161394   1.858   8.722   5.389 -0.4033  2.0644  1.0538
19225THY    CP261395   1.668   8.715   5.471 -0.5581 -0.3116  0.9485
19225THY    HP261396   1.697   8.668   5.565  0.5195 -0.7258  0.7452
19225THY    HP361397   1.570   8.671   5.452 -0.2410 -0.7062  0.4098
19225THY    HP461398   1.662   8.824   5.483  1.5114  1.7026  0.9319
19225THY    CP361399   1.728   8.715   5.232 -1.1419 -0.1107 -0.0304
19225THY    HP561400   1.694   8.818   5.248  2.1389  1.2451  0.9890
19225THY    HP661401   1.641   8.664   5.191 -0.7372  1.2308 -1.9365
19225THY    HP761402   1.807   8.709   5.156 -1.6739 -0.6759  0.1026
19225THY    CA361403   1.686   8.424   5.365  0.3857 -0.5044 -0.4340
19225THY    HA361404   1.586   8.457   5.340 -0.0104  0.3530 -0.9710
19225THY    CA461405   1.703   8.286   5.379 -0.0045  0.2594 -0.5001
19225THY    HA461406   1.617   8.219   5.377 -1.0875  1.6715  0.7658
19225THY    CA561407   1.828   8.230   5.407  0.1307 -0.4517 -0.6747
19225THY    CM161408   1.835   8.086   5.416 -0.6622  0.1201 -0.8011
19225THY    HM161409   1.932   8.036   5.420 -0.7473 -0.1169 -0.9895
19225THY    HM261410   1.793   8.044   5.323 -0.0146  0.9270 -3.3909
19225THY    HM361411   1.776   8.038   5.494 -0.8536 -0.7790 -2.0711
19225THY    CA661412   1.941   8.312   5.419 -0.4830 -0.3183  0.3882
19225THY    HA661413   2.032   8.261   5.451 -2.1240  0.7336 -2.0449
19226THY      O61414   4.902   0.798   2.280  0.4000 -0.7685  0.1733
19226THY     HO61415   4.834   0.815   2.213 -2.8972  1.1896 -3.7301
19226THY    CA161416   5.003   0.876   2.262 -0.5148 -0.6928 -0.3542
19226THY    CA261417   5.139   0.839   2.305 -0.0527 -0.3803 -0.0952
19226THY    CP161418   5.164   0.697   2.368 -0.3262 -0.2864 -0.2803
19226THY    HP161419   5.064   0.660   2.396 -0.4646 -0.0841  0.2347
19226THY    CP261420   5.263   0.707   2.484  0.2847 -0.1668  0.1362
19226THY    HP261421   5.248   0.798   2.542  2.1871  0.9646 -0.2277
19226THY    HP361422   5.361   0.703   2.435  0.1100 -0.7332  1.8196
19226THY    HP461423   5.242   0.620   2.547 -0.2395 -0.7134 -0.1392
19226THY    CP361424   5.218   0.605   2.267  0.5142  0.8380 -0.1788
19226THY    HP561425   5.319   0.638   2.241  0.6354  0.9518 -0.4606
19226THY    HP661426   5.158   0.601   2.175  0.8526  0.5453  0.9716
19226THY    HP761427   5.221   0.505   2.311  1.8220  1.3970  0.0901
19226THY    CA361428   5.235   0.942   2.316  0.6723  0.1618  0.8778
19226THY    HA361429   5.333   0.925   2.360 -0.6990  2.9592 -0.3599
19226THY    CA461430   5.195   1.076   2.273 -0.4006  0.4197  0.3743
19226THY    HA461431   5.255   1.161   2.303 -2.5649  1.2065  1.7068
19226THY    CA561432   5.072   1.105   2.217  0.4126 -0.0415  0.0636
19226THY    CM161433   5.038   1.255   2.190 -0.4423  0.5912  0.4042
19226THY    HM161434   4.949   1.255   2.127  2.3952 -3.9172 -1.9676
19226THY    HM261435   5.119   1.310   2.139 -2.7556  0.7255  4.3674
19226THY    HM361436   5.014   1.298   2.288  1.2559  1.2619 -0.0804
19226THY    CA661437   4.971   1.009   2.219 -0.2050 -0.6528 -0.4280
19226THY    HA661438   4.866   1.036   2.220  0.1296 -1.7594  1.0527
19227THY      O61439   5.959   8.175   5.166 -0.7800  0.0897 -0.7060
19227THY     HO61440   5.898   8.219   5.228  2.0694  1.8739  1.0627
19227THY    CA161441   6.018   8.076   5.241  0.0838 -0.1643  0.2164
19227THY    CA261442   6.140   8.028   5.201 -0.3404 -0.2419 -0.8250
19227THY    CP161443   6.208   8.081   5.065 -0.2014 -0.3889  0.6054
19227THY    HP161444   6.184   8.187   5.050 -0.3096 -2.3760  0.3355
19227THY    CP261445   6.168   7.986   4.951  0.2069  0.2611  0.1278
19227THY    HP261446   6.216   8.023   4.860  0.1149 -0.3021 -1.1068
19227THY    HP361447   6.059   7.979   4.945  0.1393  0.4850  0.8356
19227THY    HP461448   6.198   7.882   4.967  1.1562 -1.2703  0.1339
19227THY    CP361449   6.358   8.104   5.083  0.2675  0.1786  0.9139
19227THY    HP561450   6.403   8.154   4.996 -1.0256 -1.2663 -0.3373
19227THY    HP661451   6.396   8.001   5.087 -0.9796 -0.7731  0.3931
19227THY    HP761452   6.386   8.158   5.173 -0.5072 -0.2322  2.0289
19227THY    CA361453   6.200   7.929   5.281 -0.6731  0.4826  0.4478
19227THY    HA361454   6.298   7.890   5.256 -0.5714 -0.2974  1.1799
19227THY    CA461455   6.140   7.888   5.398  0.8997  0.0233  0.1608
19227THY    HA461456   6.195   7.813   5.454  1.4358 -1.1099 -0.3209
19227THY    CA561457   6.010   7.936   5.440 -0.6764 -0.0721  0.0789
19227THY    CM161458   5.946   7.883   5.570  0.0994 -0.3265  0.5429
19227THY    HM161459   6.000   7.924   5.656 -0.7717  0.2323  0.5352
19227THY    HM261460   5.948   7.774   5.584 -0.3714  1.4994  0.7455
19227THY    HM361461   5.841   7.914   5.562 -0.8480  0.5212 -2.1970
19227THY    CA661462   5.951   8.031   5.359 -1.3259  0.1304 -0.5343
19227THY    HA661463   5.855   8.075   5.384 -2.0150  0.9170 -2.3807
19228THY      O61464   1.138   6.212   6.539 -0.4904 -0.5127  0.4413
19228THY     HO61465   1.086   6.293   6.549 -1.0879  0.1110  0.0018
19228THY    CA161466   1.055   6.102   6.549  0.5588  0.3986  0.2257
19228THY    CA261467   1.079   5.975   6.494  0.3643 -0.2232  0.7445
19228THY    CP161468   1.208   5.952   6.427 -0.5098 -0.0144  0.0992
19228THY    HP161469   1.260   6.048   6.415 -1.6827 -1.3979  0.5916
19228THY    CP261470   1.190   5.912   6.280 -0.3490 -0.5301  0.2518
19228THY    HP261471   1.125   5.823   6.277 -2.6830  0.0083  1.8375
19228THY    HP361472   1.281   5.869   6.239 -0.9574 -0.3421 -1.3073
19228THY    HP461473   1.139   5.993   6.228 -1.7707  0.3264 -0.0415
19228THY    CP361474   1.296   5.863   6.510 -0.1257  0.6753  0.7442
19228THY    HP561475   1.339   5.913   6.597 -0.4008  0.2790  1.6895
19228THY    HP661476   1.378   5.824   6.449  0.4848  0.5963  2.1159
19228THY    HP761477   1.244   5.774   6.550  0.7564  1.3566  0.5260
19228THY    CA361478   0.986   5.869   6.502 -0.9129 -0.3472 -0.0973
19228THY    HA361479   1.006   5.777   6.448  1.4917 -1.2335  0.8822
19228THY    CA461480   0.865   5.884   6.580  0.0220  0.8335 -0.1308
19228THY    HA461481   0.795   5.801   6.595 -1.6586 -2.8818  0.4282
19228THY    CA561482   0.842   6.010   6.640  0.6856  0.6185  0.1521
19228THY    CM161483   0.725   6.028   6.729  0.6246  0.2600 -0.3741
19228THY    HM161484   0.756   6.013   6.833  2.0567 -0.1470 -0.3795
19228THY    HM261485   0.647   5.954   6.710  1.0993  1.5166 -1.2355
19228THY    HM361486   0.674   6.125   6.723 -0.2870 -0.5171 -0.8913
19228THY    CA661487   0.935   6.117   6.625 -0.2061  0.3550  0.2340
19228THY    HA661488   0.922   6.206   6.685 -0.6640 -1.4925  1.4841
19229THY      O61489   0.710   1.625   4.394  0.0412 -0.6241 -0.3123
19229THY     HO61490   0.701   1.627   4.491 -2.8954 -0.8151 -0.2507
19229THY    CA161491   0.815   1.556   4.351  0.4885  0.4049  0.3849
19229THY    CA261492   0.844   1.430   4.407  0.7652 -0.6477  0.2046
19229THY    CP161493   0.755   1.378   4.524 -0.1453 -0.0966  0.6696
19229THY    HP161494   0.722   1.457   4.593  0.1421  0.1531  0.5776
19229THY    CP261495   0.835   1.270   4.613 -0.0099  0.4934  0.4503
19229THY    HP261496   0.790   1.242   4.709  1.5807  0.3768 -3.1584
19229THY    HP361497   0.922   1.332   4.637  0.7666 -0.2891 -0.2891
19229THY    HP461498   0.865   1.179   4.559 -0.6463  1.6593 -0.4755
19229THY    CP361499   0.617   1.317   4.479 -0.6033  0.4016  0.4697
19229THY    HP561500   0.555   1.287   4.565 -0.2775  1.1643  1.8990
19229THY    HP661501   0.635   1.237   4.407  1.0401 -1.2936  2.2495
19229THY    HP761502   0.564   1.400   4.430 -1.3837  1.6330  0.7388
19229THY    CA361503   0.953   1.348   4.360  0.4858 -0.2184 -0.1774
19229THY    HA361504   0.983   1.252   4.401  1.3427  0.7481  0.4891
19229THY    CA461505   1.039   1.398   4.258  0.0103 -1.0908 -0.8257
19229THY    HA461506   1.121   1.337   4.221  0.4342 -0.6270 -0.5473
19229THY    CA561507   1.013   1.531   4.204  0.3127 -0.0427  0.0393
19229THY    CM161508   1.093   1.587   4.084  0.4385 -1.0583  1.0072
19229THY    HM161509   1.069   1.522   3.999 -0.3851  0.1150 -0.2530
19229THY    HM261510   1.201   1.588   4.102  0.1678  0.8990 -0.7128
19229THY    HM361511   1.063   1.691   4.067  1.3949 -1.3499  1.2522
19229THY    CA661512   0.900   1.599   4.247  0.7004  0.4587  0.0646
19229THY    HA661513   0.868   1.687   4.192 -1.4402  0.2075 -0.8050
19230THY      O61514   4.458   7.077   4.598  0.2706 -0.1141 -0.1369
19230THY     HO61515   4.498   7.013   4.536 -1.9668  0.4143 -2.1564
19230THY    CA161516   4.321   7.076   4.586 -0.0932  0.1089  0.0195
19230THY    CA261517   4.240   7.155   4.670 -0.0176 -0.4200  0.1232
19230THY    CP161518   4.307   7.260   4.760  0.6658 -0.0438 -0.9636
19230THY    HP161519   4.413   7.240   4.778  0.8706 -0.7837 -0.5775
19230THY    CP261520   4.233   7.280   4.897 -0.4411 -1.0156 -0.0129
19230THY    HP261521   4.291   7.352   4.955 -0.7375  1.3481 -1.5717
19230THY    HP361522   4.214   7.191   4.959 -1.3031 -0.3057  0.6513
19230THY    HP461523   4.141   7.338   4.885 -0.6755  1.9298  0.3445
19230THY    CP361524   4.305   7.399   4.688 -0.2513 -0.2206 -0.0481
19230THY    HP561525   4.202   7.434   4.675 -1.9707  1.6336 -3.7448
19230THY    HP661526   4.361   7.394   4.594  1.1650  0.6437 -3.0255
19230THY    HP761527   4.361   7.475   4.742  0.6007 -2.1342  0.7505
19230THY    CA361528   4.104   7.125   4.682 -0.4001 -0.4017  0.5318
19230THY    HA361529   4.046   7.184   4.751 -2.6008 -2.4609  0.8980
19230THY    CA461530   4.046   7.025   4.607  0.5190 -0.5639  0.3774
19230THY    HA461531   3.939   7.007   4.615  0.5900  1.3041  0.5634
19230THY    CA561532   4.121   6.951   4.517 -0.0200 -0.3785  0.0436
19230THY    CM161533   4.061   6.835   4.447 -0.0255 -0.1944 -0.0683
19230THY    HM161534   3.994   6.868   4.366 -1.8537  0.1495 -2.6201
19230THY    HM261535   4.001   6.788   4.525  0.5132  0.3216  0.0996
19230THY    HM361536   4.141   6.774   4.403  1.8909  1.7172  0.9416
19230THY    CA661537   4.259   6.972   4.517 -0.1927 -0.6835 -0.1883
19230THY    HA661538   4.322   6.907   4.458 -0.7531 -2.1946  0.6035
19231THY      O61539   4.608   8.897   3.383  0.4293  0.7446 -0.2072
19231THY     HO61540   4.535   8.833   3.389 -0.3327  2.8953  0.7466
19231THY    CA161541   4.565   9.004   3.315 -0.1735 -0.2124  0.0769
19231THY    CA261542   4.638   9.127   3.318 -0.2452  0.3366  0.1220
19231THY    CP161543   4.761   9.153   3.409  0.7004 -0.5835  0.1531
19231THY    HP161544   4.774   9.066   3.474  0.4147  1.1227  1.3292
19231THY    CP261545   4.764   9.268   3.507 -0.9585  0.1286 -0.0811
19231THY    HP261546   4.664   9.272   3.552 -2.2489 -2.4430 -0.8682
19231THY    HP361547   4.800   9.359   3.457  2.6243  0.3215 -1.2360
19231THY    HP461548   4.832   9.243   3.589 -0.5064 -0.5185 -1.0138
19231THY    CP361549   4.888   9.156   3.321  0.1060 -0.4611 -0.1318
19231THY    HP561550   4.967   9.110   3.380  2.0097 -0.9373  2.3255
19231THY    HP661551   4.903   9.259   3.286 -0.1203 -1.6698 -0.4834
19231THY    HP761552   4.878   9.087   3.236  1.0289 -3.0975  2.7853
19231THY    CA361553   4.587   9.234   3.243 -0.4158  0.3731  0.0336
19231THY    HA361554   4.647   9.324   3.248  0.7809  2.6877 -0.8191
19231THY    CA461555   4.478   9.210   3.159 -0.3604  0.3514 -0.0928
19231THY    HA461556   4.451   9.288   3.088  1.3765  0.1754  0.4103
19231THY    CA561557   4.413   9.096   3.158  0.3213 -0.0006 -0.7533
19231THY    CM161558   4.292   9.084   3.076  0.7863 -0.3703  0.4520
19231THY    HM161559   4.303   9.133   2.979  1.0458 -0.1927  0.7518
19231THY    HM261560   4.195   9.109   3.122 -0.3011 -1.0947 -2.0559
19231THY    HM361561   4.276   8.979   3.050 -0.9013 -1.1322  0.8601
19231THY    CA661562   4.453   8.989   3.240  0.1511  0.6613 -0.5073
19231THY    HA661563   4.393   8.901   3.259 -2.6633  0.3514  1.2399
19232THY      O61564   3.260   7.872   5.259 -0.0144  0.1263  0.4140
19232THY     HO61565   3.263   7.809   5.184 -0.3141  1.3779 -1.1644
19232THY    CA161566   3.179   7.816   5.354  0.3175  0.3524 -0.2755
19232THY    CA261567   3.127   7.904   5.448  0.1714 -0.2119 -0.2267
19232THY    CP161568   3.156   8.057   5.460  0.8140  0.3763 -0.5735
19232THY    HP161569   3.254   8.084   5.417  0.9411  0.0484 -1.5198
19232THY    CP261570   3.171   8.092   5.605 -0.1432  0.6665 -0.3584
19232THY    HP261571   3.084   8.085   5.671 -1.3977 -0.7662  0.9904
19232THY    HP361572   3.208   8.194   5.622  1.1075 -0.5358 -0.5887
19232THY    HP461573   3.247   8.023   5.644  0.1219 -0.3270 -0.6434
19232THY    CP361574   3.037   8.129   5.394 -0.7509  0.4748  0.0162
19232THY    HP561575   2.940   8.092   5.430  0.2648  3.2017 -0.2433
19232THY    HP661576   3.056   8.120   5.287  1.2227  0.7010  1.0628
19232THY    HP761577   3.043   8.235   5.421  3.1321  0.1527 -0.0044
19232THY    CA361578   3.048   7.840   5.549  0.6530 -0.4737 -0.5682
19232THY    HA361579   3.000   7.892   5.631 -0.6267 -0.6525 -1.4346
19232THY    CA461580   3.029   7.700   5.553 -0.1427 -0.1231 -0.0182
19232THY    HA461581   2.961   7.647   5.617 -1.3158 -0.3317  1.1715
19232THY    CA561582   3.082   7.628   5.449 -0.0937 -0.2507  0.7525
19232THY    CM161583   3.071   7.481   5.434  0.4277  0.1175  0.4260
19232THY    HM161584   3.164   7.431   5.406 -0.3188 -0.1896 -0.8444
19232THY    HM261585   2.985   7.448   5.375 -0.9072  2.7272 -1.1588
19232THY    HM361586   3.040   7.435   5.529  1.3604  0.4664  0.4924
19232THY    CA661587   3.164   7.684   5.356  0.0047 -0.2943 -0.3026
19232THY    HA661588   3.205   7.628   5.273  1.0735  0.0957 -0.1416
19233THY      O61589   5.586   6.742   6.028 -0.0677  0.3124  0.4100
19233THY     HO61590   5.616   6.667   6.083  2.4352  0.0988  1.1434
19233THY    CA161591   5.700   6.798   5.975 -0.0985 -0.0010  0.3299
19233THY    CA261592   5.684   6.881   5.859 -0.6257  0.3713  0.2877
19233THY    CP161593   5.550   6.921   5.799  0.2643 -0.0794  0.1592
19233THY    HP161594   5.456   6.885   5.843 -0.5616  0.0099  2.3136
19233THY    CP261595   5.531   6.865   5.659 -0.0129  0.6923  0.3847
19233THY    HP261596   5.601   6.898   5.582  0.2094  0.4853 -0.5590
19233THY    HP361597   5.430   6.872   5.614  0.3732 -0.1398  0.8562
19233THY    HP461598   5.544   6.757   5.666 -1.2585  1.4432  0.2582
19233THY    CP361599   5.530   7.079   5.804  0.4758  0.0703  0.0985
19233THY    HP561600   5.584   7.137   5.728  0.6346 -0.8108 -1.1592
19233THY    HP661601   5.558   7.115   5.904  2.5886  0.1224 -1.4741
19233THY    HP761602   5.423   7.103   5.809  0.4973 -0.6695  0.3704
19233THY    CA361603   5.802   6.943   5.803  0.0968  0.7209  0.3729
19233THY    HA361604   5.788   6.998   5.711 -0.6590 -0.0706 -1.0882
19233THY    CA461605   5.929   6.920   5.862 -0.7904 -0.7797 -0.8743
19233THY    HA461606   6.015   6.970   5.818 -1.2076 -0.3583  0.2457
19233THY    CA561607   5.943   6.833   5.979  0.4484  0.5522 -0.1688
19233THY    CM161608   6.075   6.814   6.055 -0.1376  0.9556  0.5343
19233THY    HM161609   6.077   6.887   6.137 -0.9594  1.1021  0.4017
19233THY    HM261610   6.153   6.827   5.979 -0.3017  0.6783 -0.0720
19233THY    HM361611   6.078   6.712   6.093 -0.1142  0.9942  0.5496
19233THY    CA661612   5.823   6.771   6.032 -0.2271  0.4913 -0.0879
19233THY    HA661613   5.829   6.705   6.119 -0.5266 -0.0166 -0.7975
19234THY      O61614   3.598   0.584   6.720  0.9871 -0.1070 -0.2123
19234THY     HO61615   3.692   0.569   6.740  0.5717  2.3581  0.0513
19234THY    CA161616   3.582   0.601   6.583  0.0351 -0.5066  0.2545
19234THY    CA261617   3.468   0.657   6.529 -0.4583  0.0532 -0.0116
19234THY    CP161618   3.368   0.730   6.620  0.4067  0.0967  0.3356
19234THY    HP161619   3.390   0.705   6.724  0.4663 -0.2909 -1.3444
19234THY    CP261620   3.222   0.695   6.602  0.2824  1.0350 -0.2437
19234THY    HP261621   3.185   0.748   6.513 -3.5724  1.9565 -1.0849
19234THY    HP361622   3.155   0.720   6.685 -3.0004 -1.3955 -0.1817
19234THY    HP461623   3.211   0.591   6.568  1.7371 -0.9945  0.2066
19234THY    CP361624   3.377   0.884   6.602  0.0084  0.0100  0.4786
19234THY    HP561625   3.350   0.913   6.500  0.9461 -0.0572  1.1478
19234THY    HP661626   3.478   0.912   6.633 -0.3547  0.0252  1.8058
19234THY    HP761627   3.310   0.934   6.673 -3.4057 -1.5469 -1.4772
19234THY    CA361628   3.443   0.659   6.390  0.6207  0.1596 -0.7707
19234THY    HA361629   3.348   0.686   6.345  0.4427 -1.3809 -3.5742
19234THY    CA461630   3.539   0.596   6.309  0.0699 -0.3149 -0.8290
19234THY    HA461631   3.518   0.586   6.203  0.6707 -0.5792  0.5195
19234THY    CA561632   3.654   0.537   6.368 -0.0034 -0.2817 -0.1347
19234THY    CM161633   3.754   0.463   6.282  0.4196 -0.5018 -0.1396
19234THY    HM161634   3.850   0.516   6.281  0.1101  1.1441  0.5131
19234THY    HM261635   3.713   0.464   6.181  0.6890 -0.6159  1.2824
19234THY    HM361636   3.754   0.360   6.318 -1.5415 -0.0789 -0.0268
19234THY    CA661637   3.682   0.542   6.509  0.9314  0.2990 -0.5965
19234THY    HA661638   3.769   0.503   6.560  0.0026  1.2781 -1.4314
19235THY      O61639   9.243   0.735   5.390  0.4550 -0.1458  0.2930
19235THY     HO61640   9.337   0.711   5.396  0.5766 -1.6802  0.2379
19235THY    CA161641   9.209   0.692   5.265  0.1740 -0.6651 -0.0382
19235THY    CA261642   9.095   0.615   5.238  0.0247  0.3855  0.7972
19235THY    CP161643   8.993   0.581   5.349  0.8248  0.4381  0.4436
19235THY    HP161644   9.053   0.573   5.440  0.6503  0.5145 -0.0371
19235THY    CP261645   8.908   0.452   5.345 -0.9464  0.3117 -0.9635
19235THY    HP261646   8.836   0.461   5.262  0.6715 -1.0830 -0.3913
19235THY    HP361647   8.858   0.430   5.440 -1.1801 -0.2307 -2.9574
19235THY    HP461648   8.981   0.371   5.333 -0.8962 -1.6536 -0.6841
19235THY    CP361649   8.900   0.699   5.373  0.1247  0.2099 -0.6342
19235THY    HP561650   8.821   0.677   5.446  0.4957  0.9002  0.2754
19235THY    HP661651   8.849   0.724   5.279  1.4737 -1.3013 -3.1745
19235THY    HP761652   8.961   0.784   5.403 -2.3479 -1.5655  1.9461
19235THY    CA361653   9.083   0.557   5.107  0.4073 -0.4027 -0.9306
19235THY    HA361654   8.996   0.495   5.087 -1.5093  0.7711  1.1934
19235THY    CA461655   9.185   0.582   5.013  0.2127 -0.0793  0.3333
19235THY    HA461656   9.186   0.545   4.911  2.5413 -0.5049  1.4377
19235THY    CA561657   9.298   0.660   5.049 -0.3778  0.4050  0.6181
19235THY    CM161658   9.414   0.675   4.960 -0.1755 -0.4586 -0.0168
19235THY    HM161659   9.446   0.780   4.958 -1.5589 -1.5241  0.4156
19235THY    HM261660   9.392   0.645   4.857 -2.0964  0.4734 -2.0266
19235THY    HM361661   9.500   0.614   4.990 -0.5244 -2.8509 -1.8573
19235THY    CA661662   9.308   0.710   5.176  0.1359  0.5370 -0.2475
19235THY    HA661663   9.404   0.755   5.202  0.2256 -0.7276  0.3320
19236THY      O61664   4.112   2.588   7.166  0.2534  0.0691 -0.6170
19236THY     HO61665   4.064   2.575   7.083 -1.2119  0.6715  0.6748
19236THY    CA161666   4.180   2.471   7.196 -0.5985 -0.1147  0.5404
19236THY    CA261667   4.281   2.471   7.295  0.3829  0.6917  0.3845
19236THY    CP161668   4.330   2.601   7.358  0.4407 -0.1489  0.0258
19236THY    HP161669   4.252   2.675   7.333  0.8482 -1.0831  0.1526
19236THY    CP261670   4.463   2.653   7.277 -0.0463  0.5515 -0.5957
19236THY    HP261671   4.540   2.575   7.282  0.6530  0.2345  0.0656
19236THY    HP361672   4.505   2.741   7.327 -2.9795 -0.3010  1.4184
19236THY    HP461673   4.442   2.668   7.171 -1.3500  0.9105  0.2022
19236THY    CP361674   4.355   2.599   7.513 -0.0565  0.6915  0.4049
19236THY    HP561675   4.390   2.698   7.545  1.2989 -0.1314  0.2136
19236THY    HP661676   4.419   2.517   7.548 -0.3840  0.7025  0.1491
19236THY    HP761677   4.257   2.589   7.562  0.2777  1.3778  0.4851
19236THY    CA361678   4.336   2.342   7.322 -0.4113  0.4033 -0.5154
19236THY    HA361679   4.426   2.335   7.383 -0.8907  0.9104 -2.8095
19236THY    CA461680   4.296   2.230   7.252 -0.6057 -0.6528 -0.5917
19236THY    HA461681   4.356   2.142   7.273  0.3359  1.9622  0.5703
19236THY    CA561682   4.210   2.236   7.143 -0.7932 -0.5590  0.0118
19236THY    CM161683   4.179   2.111   7.065  0.5380  0.3990  0.0583
19236THY    HM161684   4.105   2.051   7.118  0.7068  0.0683 -0.4454
19236THY    HM261685   4.264   2.046   7.038  0.7085 -2.1435  1.2302
19236THY    HM361686   4.135   2.132   6.967  1.0896 -0.6591 -3.2027
19236THY    CA661687   4.137   2.357   7.124 -0.4017 -0.4651  0.8649
19236THY    HA661688   4.053   2.367   7.056 -1.8050  1.2471  1.0855
19237THY      O61689   8.818   2.603   1.738 -0.1940  0.6315  0.4394
19237THY     HO61690   8.721   2.605   1.740 -0.2432 -1.2354  1.8948
19237THY    CA161691   8.859   2.492   1.812 -0.4271 -0.5784 -0.7879
19237THY    CA261692   9.000   2.459   1.836 -0.5440 -0.0070  0.2483
19237THY    CP161693   9.113   2.536   1.767  0.2478  0.2040 -0.3738
19237THY    HP161694   9.082   2.641   1.763  2.0049  1.1240  0.2301
19237THY    CP261695   9.132   2.490   1.626  0.6665 -0.8661 -0.0853
19237THY    HP261696   9.060   2.541   1.561 -0.9994  1.2431  0.4022
19237THY    HP361697   9.122   2.381   1.626  1.8548  2.3305 -0.3084
19237THY    HP461698   9.232   2.512   1.588  0.7872 -0.3561  0.2459
19237THY    CP361699   9.240   2.541   1.850 -0.5421 -0.0181 -1.0337
19237THY    HP561700   9.308   2.606   1.793 -0.1573  0.3652 -1.1001
19237THY    HP661701   9.274   2.440   1.872 -0.5315 -0.8934 -1.2314
19237THY    HP761702   9.226   2.592   1.946 -1.3512  0.3284 -1.8763
19237THY    CA361703   9.023   2.348   1.918 -0.4528  0.5317 -0.0950
19237THY    HA361704   9.126   2.318   1.936 -0.0341  0.9317  1.4889
19237THY    CA461705   8.918   2.277   1.972  0.0139  0.7877  0.7132
19237THY    HA461706   8.945   2.196   2.039 -4.5623 -0.2812 -2.0453
19237THY    CA561707   8.791   2.308   1.946  0.0750  0.0509 -0.2148
19237THY    CM161708   8.682   2.229   2.013 -0.5267  0.0662  0.6524
19237THY    HM161709   8.686   2.228   2.123 -1.0771  0.0966  1.1934
19237THY    HM261710   8.698   2.125   1.983 -0.3942 -2.6225  1.3831
19237THY    HM361711   8.583   2.261   1.978 -0.0649 -2.9290 -0.8730
19237THY    CA661712   8.762   2.417   1.872 -0.6916 -0.8820 -0.2926
19237THY    HA661713   8.657   2.439   1.858 -2.0963  2.3561 -3.7448
19238THY      O61714   6.870   1.372   7.868  0.1408  0.1668  0.6578
19238THY     HO61715   6.778   1.346   7.887  0.6320  1.0930 -0.4524
19238THY    CA161716   6.863   1.507   7.828 -0.2529 -0.5093  1.8385
19238THY    CA261717   6.966   1.600   7.866  0.4442 -0.1199  0.2881
19238THY    CP161718   7.094   1.551   7.931  0.3834  0.4569  0.3190
19238THY    HP161719   7.068   1.472   8.003  0.6359  0.4073  0.1902
19238THY    CP261720   7.163   1.646   8.019  0.5615 -1.0295  0.1022
19238THY    HP261721   7.224   1.722   7.969  3.2712  2.6488  0.5990
19238THY    HP361722   7.231   1.597   8.089 -1.1683  1.2714  0.8315
19238THY    HP461723   7.087   1.698   8.078  0.4261 -0.8842 -0.2578
19238THY    CP361724   7.182   1.487   7.824 -0.3818  0.5130  0.3065
19238THY    HP561725   7.265   1.436   7.875 -1.0738 -0.1477 -1.6009
19238THY    HP661726   7.230   1.557   7.755 -0.3643 -1.7928 -1.8385
19238THY    HP761727   7.122   1.417   7.763  1.7222 -1.0605 -0.2339
19238THY    CA361728   6.953   1.728   7.821 -0.1563 -0.2387 -0.5763
19238THY    HA361729   7.034   1.797   7.840  0.9377 -0.9012 -1.6523
19238THY    CA461730   6.840   1.766   7.746  0.9322 -0.0686 -0.8492
19238THY    HA461731   6.846   1.868   7.709 -0.0989  1.7965 -0.0622
19238THY    CA561732   6.736   1.676   7.720 -0.0185  0.1555  0.4565
19238THY    CM161733   6.612   1.711   7.643 -0.2507  0.0240 -0.8750
19238THY    HM161734   6.563   1.800   7.683 -2.0063  0.9141 -2.1673
19238THY    HM261735   6.543   1.626   7.637 -0.5592  1.9051 -0.8070
19238THY    HM361736   6.637   1.728   7.538  0.6385  0.3184 -0.3041
19238THY    CA661737   6.752   1.547   7.761  0.2570  0.8515  0.2924
19238THY    HA661738   6.676   1.474   7.736  1.4160 -0.7812 -0.4041
19239THY      O61739   8.121   3.355   2.689 -0.3042  0.2726 -0.1840
19239THY     HO61740   8.113   3.288   2.618 -3.7562  1.0934 -0.8319
19239THY    CA161741   8.251   3.355   2.739  0.3900 -0.6893 -0.1362
19239THY    CA261742   8.297   3.434   2.848 -0.0737 -0.5139  0.4816
19239THY    CP161743   8.197   3.533   2.910 -0.7595 -0.6191  0.6346
19239THY    HP161744   8.099   3.533   2.860 -1.5930  0.8970 -0.7348
19239THY    CP261745   8.256   3.678   2.910  0.2454 -0.5205  0.4017
19239THY    HP261746   8.345   3.687   2.973  0.2497 -0.7123  1.9199
19239THY    HP361747   8.178   3.748   2.943 -1.4386 -1.7124 -0.8320
19239THY    HP461748   8.286   3.703   2.807  2.5653  0.1159  0.4920
19239THY    CP361749   8.178   3.494   3.056  0.7039  0.3832 -0.2335
19239THY    HP561750   8.142   3.391   3.069 -0.4629  0.0251  0.1119
19239THY    HP661751   8.101   3.553   3.107  0.0104  1.3939 -1.9318
19239THY    HP761752   8.265   3.514   3.120  0.2581  1.0524 -0.3846
19239THY    CA361753   8.420   3.415   2.899 -0.2842  0.1510 -0.0773
19239THY    HA361754   8.454   3.473   2.985  1.1731  0.6578 -1.6292
19239THY    CA461755   8.501   3.315   2.846 -0.5930  0.2842  0.1623
19239THY    HA461756   8.596   3.294   2.894 -0.3343  0.8296  2.3225
19239THY    CA561757   8.460   3.234   2.739  0.6812 -0.2245 -0.1320
19239THY    CM161758   8.550   3.118   2.715  0.1303 -0.0481 -0.4703
19239THY    HM161759   8.500   3.039   2.658  3.7508  0.5390 -3.4589
19239THY    HM261760   8.601   3.083   2.805  0.7571 -0.0419  0.4080
19239THY    HM361761   8.637   3.147   2.655  1.5289  1.5322 -1.2241
19239THY    CA661762   8.333   3.254   2.687  0.8352 -0.5288  0.0419
19239THY    HA661763   8.295   3.192   2.607 -1.2397  0.7027 -0.3700
19240THY      O61764   5.561   8.100   4.630  0.3274 -0.1511  0.2126
19240THY     HO61765   5.516   8.039   4.569  0.2646 -2.4350  2.3805
19240THY    CA161766   5.693   8.097   4.610  0.1704  0.3491  1.4951
19240THY    CA261767   5.782   8.127   4.711 -0.1484 -0.2482  0.2210
19240THY    CP161768   5.727   8.191   4.835 -0.0846  0.4198 -0.0766
19240THY    HP161769   5.621   8.218   4.829  0.1375 -3.4370  0.4680
19240THY    CP261770   5.797   8.323   4.877 -0.9211 -0.6548 -0.0304
19240THY    HP261771   5.750   8.408   4.826 -2.5270  2.2038  0.9601
19240THY    HP361772   5.906   8.327   4.876 -0.8301  2.5910  1.1251
19240THY    HP461773   5.773   8.349   4.981 -1.7612 -1.6021  3.5235
19240THY    CP361774   5.732   8.086   4.945  0.5661 -0.2323  0.2867
19240THY    HP561775   5.688   8.129   5.036 -0.4681 -1.3669  1.7223
19240THY    HP661776   5.836   8.061   4.970  1.0148  0.0627  2.2687
19240THY    HP761777   5.675   7.997   4.915  0.5471  1.8757 -0.4673
19240THY    CA361778   5.925   8.106   4.691  0.2635 -0.1184  0.3298
19240THY    HA361779   5.994   8.140   4.768 -1.6718  1.1565  1.5837
19240THY    CA461780   5.964   8.046   4.568 -0.2176 -1.2910 -0.0442
19240THY    HA461781   6.071   8.040   4.548 -0.1183 -0.9071  0.3673
19240THY    CA561782   5.873   8.029   4.466 -0.8991  0.2305  0.7455
19240THY    CM161783   5.929   7.981   4.333  0.6075 -0.0178  0.9362
19240THY    HM161784   5.854   7.929   4.273 -1.4121  1.5050  1.9455
19240THY    HM261785   6.007   7.910   4.364 -0.0871 -0.4767 -0.0439
19240THY    HM361786   5.978   8.065   4.283 -1.3075 -2.0060  0.9508
19240THY    CA661787   5.736   8.034   4.492  0.2787  0.2388  0.0442
19240THY    HA661788   5.665   8.009   4.414  0.4959  0.6276 -1.9086
19241THY      O61789   3.113   6.399   7.413  0.3247  0.3027 -0.4470
19241THY     HO61790   3.169   6.474   7.440  1.1542 -0.0401 -0.9234
19241THY    CA161791   3.120   6.297   7.498  0.3415  0.1633  0.3457
19241THY    CA261792   3.031   6.187   7.488 -0.1944 -0.3943 -0.3972
19241THY    CP161793   2.922   6.183   7.376 -0.4063  0.2793 -0.5775
19241THY    HP161794   2.953   6.235   7.285 -1.3367 -0.1525 -0.7615
19241THY    CP261795   2.808   6.263   7.428 -0.1886  0.1275 -0.1658
19241THY    HP261796   2.851   6.354   7.471  0.9508 -0.4684 -0.4025
19241THY    HP361797   2.749   6.211   7.503 -0.0744 -1.3708 -2.5951
19241THY    HP461798   2.737   6.283   7.347 -0.7247  0.8007  0.6977
19241THY    CP361799   2.885   6.047   7.314  0.2546 -0.0624 -0.2962
19241THY    HP561800   2.794   6.051   7.253 -0.1609  0.5890  0.4810
19241THY    HP661801   2.863   5.966   7.384 -1.1935  1.3582  1.2362
19241THY    HP761802   2.970   6.011   7.256 -0.2572 -1.0374  0.0300
19241THY    CA361803   3.050   6.084   7.578 -0.0320 -0.2753  0.2190
19241THY    HA361804   2.972   6.008   7.582 -0.1249 -0.8871  0.2729
19241THY    CA461805   3.158   6.082   7.664 -0.5865 -0.8915 -0.2639
19241THY    HA461806   3.178   6.003   7.737  1.5357 -1.9899 -0.8284
19241THY    CA561807   3.248   6.191   7.670  0.7676 -0.4727  0.1867
19241THY    CM161808   3.359   6.199   7.766 -0.1052  0.0740  0.3252
19241THY    HM161809   3.453   6.205   7.710 -0.8410 -1.1405  1.0084
19241THY    HM261810   3.380   6.114   7.831  5.5838 -2.0892 -0.3839
19241THY    HM361811   3.349   6.291   7.825 -3.4702  1.4397 -0.7479
19241THY    CA661812   3.226   6.299   7.584 -0.4247 -0.5806 -0.6961
19241THY    HA661813   3.295   6.383   7.580  0.2150 -0.2141 -1.1912
19242THY      O61814   8.791   7.127   3.199  0.2037 -0.3821  0.5574
19242THY     HO61815   8.870   7.145   3.252  0.2098 -1.0941  2.9663
19242THY    CA161816   8.687   7.148   3.283  0.4910 -0.6879 -0.3250
19242THY    CA261817   8.564   7.192   3.239  0.5836  0.3950 -0.1419
19242THY    CP161818   8.538   7.223   3.086  0.5628 -0.6482 -0.1405
19242THY    HP161819   8.601   7.160   3.023 -0.1196 -0.0168 -1.4841
19242THY    CP261820   8.578   7.371   3.069 -0.1674  0.4743  0.2946
19242THY    HP261821   8.548   7.441   3.147  1.5365  0.0968  1.5177
19242THY    HP361822   8.540   7.406   2.973 -1.0180 -0.9607 -3.9449
19242THY    HP461823   8.687   7.370   3.058 -0.1158  0.7796  1.5906
19242THY    CP361824   8.391   7.200   3.048  1.0337 -0.5436 -0.5830
19242THY    HP561825   8.332   7.277   3.098  2.0097 -0.3669  0.0625
19242THY    HP661826   8.353   7.104   3.085 -1.7028  2.1070  1.3668
19242THY    HP761827   8.380   7.210   2.939 -0.0870 -0.5558 -1.6646
19242THY    CA361828   8.465   7.226   3.335 -0.8103  0.3113  0.1606
19242THY    HA361829   8.362   7.246   3.305 -0.7011 -1.2019 -1.2682
19242THY    CA461830   8.492   7.208   3.472 -0.0913  0.3233  0.1049
19242THY    HA461831   8.405   7.224   3.535 -0.8593 -0.7968  0.4989
19242THY    CA561832   8.613   7.157   3.516  0.4815 -0.4412  0.0125
19242THY    CM161833   8.639   7.129   3.660 -0.5354 -0.5972  0.6974
19242THY    HM161834   8.711   7.201   3.701 -0.7181 -0.8632  1.0388
19242THY    HM261835   8.679   7.028   3.661 -1.8878 -1.2542  0.1293
19242THY    HM361836   8.551   7.133   3.726 -0.7577 -0.6871 -1.6875
19242THY    CA661837   8.709   7.130   3.423 -0.4322  0.6262  0.1663
19242THY    HA661838   8.808   7.098   3.453  0.5573  1.2247  3.3619
19243THY      O61839   7.421   4.440   3.357  0.8331  1.1347 -0.7875
19243THY     HO61840   7.369   4.412   3.280  1.7268  0.4215 -0.5477
19243THY    CA161841   7.343   4.504   3.443  0.4998 -0.2977 -0.6975
19243THY    CA261842   7.379   4.582   3.559  0.5733  0.7683  1.0488
19243THY    CP161843   7.531   4.586   3.584 -0.0738  0.6855  0.4557
19243THY    HP161844   7.585   4.495   3.554 -1.5787 -0.0212 -0.2289
19243THY    CP261845   7.552   4.610   3.735 -0.6260  0.0303 -0.4435
19243THY    HP261846   7.525   4.715   3.749 -1.7966 -1.3295 -0.5386
19243THY    HP361847   7.653   4.591   3.772  0.0748  0.1232  2.8809
19243THY    HP461848   7.490   4.541   3.794 -0.1391  1.1677  0.0688
19243THY    CP361849   7.607   4.696   3.511  0.2844  0.2653  0.3765
19243THY    HP561850   7.579   4.703   3.405 -1.6249  0.7344  0.5006
19243THY    HP661851   7.715   4.676   3.511 -0.0753  0.3589 -1.8037
19243THY    HP761852   7.588   4.792   3.559  0.2984  1.2445 -0.0981
19243THY    CA361853   7.280   4.659   3.623  0.7719 -0.1828  0.8731
19243THY    HA361854   7.304   4.732   3.700 -0.6719 -0.4408  1.6591
19243THY    CA461855   7.147   4.634   3.583  0.7263  0.0214 -0.2146
19243THY    HA461856   7.071   4.697   3.629  0.7834 -1.0638  0.6771
19243THY    CA561857   7.110   4.554   3.476 -0.4430 -0.5587 -0.5975
19243THY    CM161858   6.965   4.537   3.434  0.0532 -0.5456 -0.9773
19243THY    HM161859   6.936   4.620   3.368  0.1480  0.0291 -0.4796
19243THY    HM261860   6.897   4.568   3.514  0.0892 -1.2674  1.1954
19243THY    HM361861   6.941   4.441   3.388  2.1706  1.2200 -2.4625
19243THY    CA661862   7.210   4.494   3.405 -0.3685  1.0160  0.1937
19243THY    HA661863   7.178   4.424   3.328  0.5530 -0.2816  1.1589
19244THY      O61864   4.446   7.525   6.737 -0.0867  0.0319 -0.3742
19244THY     HO61865   4.445   7.467   6.659  0.4325 -2.0439  2.1809
19244THY    CA161866   4.337   7.495   6.807 -0.0786 -0.1301  0.0258
19244THY    CA261867   4.329   7.510   6.952 -0.2075 -0.3925  0.6573
19244THY    CP161868   4.440   7.585   7.013  0.2005 -0.9048  0.8541
19244THY    HP161869   4.537   7.557   6.972  0.5081  1.5669 -2.2875
19244THY    CP261870   4.455   7.538   7.165  0.0034 -0.3521  0.4281
19244THY    HP261871   4.552   7.542   7.215  1.4326 -2.9139 -0.3784
19244THY    HP361872   4.433   7.430   7.164  0.8177  2.4906  0.1364
19244THY    HP461873   4.391   7.592   7.236  1.1355  2.0015 -1.1280
19244THY    CP361874   4.413   7.736   7.004 -0.2155  0.4263 -0.6181
19244THY    HP561875   4.443   7.774   6.906  0.3752  0.6265 -0.5619
19244THY    HP661876   4.484   7.794   7.065  0.0337  0.7557 -1.2527
19244THY    HP761877   4.308   7.761   7.026 -0.6157 -0.6591 -1.3032
19244THY    CA361878   4.207   7.462   7.019 -0.4973 -0.0895 -0.6364
19244THY    HA361879   4.192   7.475   7.125  0.1071  0.2898 -2.6226
19244THY    CA461880   4.112   7.395   6.944  0.3126  0.1736  0.2944
19244THY    HA461881   4.021   7.362   6.994  0.7760  0.2846 -0.8862
19244THY    CA561882   4.121   7.385   6.809  0.3733 -0.7948  0.2114
19244THY    CM161883   4.018   7.306   6.737  0.1398 -0.2014  0.3426
19244THY    HM161884   3.947   7.263   6.809 -0.6538  0.7457  3.0675
19244THY    HM261885   4.065   7.229   6.674 -1.4191 -0.3553 -0.5281
19244THY    HM361886   3.957   7.375   6.678 -0.4716  0.5098  0.4298
19244THY    CA661887   4.229   7.437   6.737 -0.2147 -0.2568 -0.1310
19244THY    HA661888   4.237   7.421   6.630  0.7691 -0.1613 -0.3664
19245THY      O61889   4.582   6.917   4.400 -0.9156  0.5689 -0.1220
19245THY     HO61890   4.644   6.858   4.445 -1.3495  1.6682  0.2290
19245THY    CA161891   4.636   6.942   4.276 -0.5372  0.3672 -0.0739
19245THY    CA261892   4.567   6.993   4.174 -0.2619 -0.3229  0.4090
19245THY    CP161893   4.426   7.045   4.192 -0.3484  0.3685 -0.6485
19245THY    HP161894   4.398   7.051   4.298  0.3431  0.4740  3.0374
19245THY    CP261895   4.324   6.960   4.109 -0.0460 -0.7883  0.4354
19245THY    HP261896   4.345   6.982   4.004 -1.7201 -1.3150 -0.3641
19245THY    HP361897   4.217   6.982   4.114 -0.3821 -3.5392 -0.2597
19245THY    HP461898   4.342   6.853   4.128 -0.1867 -0.9168  0.3887
19245THY    CP361899   4.432   7.195   4.148 -0.2973 -0.3310 -0.5229
19245THY    HP561900   4.327   7.227   4.156  0.1034  3.3108  0.3327
19245THY    HP661901   4.463   7.203   4.043 -1.9454 -0.7384  1.4069
19245THY    HP761902   4.498   7.257   4.209 -0.7967  0.1400 -0.4448
19245THY    CA361903   4.629   6.989   4.045 -0.8889 -0.1506  0.7006
19245THY    HA361904   4.575   7.016   3.955 -1.1873 -0.8979 -2.0348
19245THY    CA461905   4.759   6.928   4.032  0.3905  0.0751  0.3528
19245THY    HA461906   4.805   6.915   3.935  1.1344  0.4945 -0.1815
19245THY    CA561907   4.827   6.879   4.141  0.0856 -0.4087  0.0830
19245THY    CM161908   4.971   6.838   4.134 -0.5927  0.4216 -0.2564
19245THY    HM161909   4.995   6.752   4.197  0.1821 -0.2060 -0.5068
19245THY    HM261910   5.031   6.925   4.164 -0.1125  2.0160 -1.1060
19245THY    HM361911   4.999   6.807   4.033 -1.3546  0.7944 -2.3242
19245THY    CA661912   4.766   6.891   4.269 -0.2106 -0.5469 -0.6531
19245THY    HA661913   4.820   6.869   4.361  1.0259 -0.7365  1.3342
19246THY      O61914   2.166   4.409   7.065  0.1630  0.4436  0.0136
19246THY     HO61915   2.259   4.387   7.084  0.5082  0.7457  1.6334
19246THY    CA161916   2.128   4.342   6.958 -0.5754 -0.2196  0.3958
19246THY    CA261917   1.993   4.308   6.939  0.8890 -0.0113 -0.4290
19246THY    CP161918   1.882   4.358   7.030 -0.0603 -0.1566  0.2973
19246THY    HP161919   1.932   4.417   7.108  0.6346 -0.0538 -0.4188
19246THY    CP261920   1.810   4.239   7.097 -0.6286 -0.1285  0.7263
19246THY    HP261921   1.895   4.173   7.122  1.7316 -2.0310  2.8121
19246THY    HP361922   1.754   4.176   7.027 -0.7455 -0.5784  1.3240
19246THY    HP461923   1.745   4.264   7.181  2.1755  2.6079 -0.5436
19246THY    CP361924   1.770   4.442   6.958 -0.3124  0.7100  1.0111
19246THY    HP561925   1.707   4.458   7.046 -2.1546  0.5121 -3.5857
19246THY    HP661926   1.701   4.389   6.892  2.7808 -1.1144 -1.0573
19246THY    HP761927   1.797   4.535   6.907 -1.7322 -3.9725 -0.8594
19246THY    CA361928   1.957   4.228   6.823 -0.5411 -0.2492  0.1601
19246THY    HA361929   1.854   4.200   6.803 -1.1571  2.9446 -0.1755
19246THY    CA461930   2.062   4.188   6.732  0.2013 -0.0846 -0.2487
19246THY    HA461931   2.039   4.122   6.649  1.4467  0.6856 -1.7330
19246THY    CA561932   2.195   4.223   6.755 -0.3339  0.0933 -0.6155
19246THY    CM161933   2.302   4.189   6.662 -0.3209 -0.1369  0.3481
19246THY    HM161934   2.363   4.110   6.707  0.1692 -0.1824  0.6942
19246THY    HM261935   2.356   4.283   6.645  1.1079  3.9410  0.4392
19246THY    HM361936   2.263   4.139   6.572  3.3205 -0.5604 -2.1061
19246THY    CA661937   2.228   4.291   6.877 -0.3971 -0.2168 -0.4391
19246THY    HA661938   2.330   4.318   6.900 -1.1183  0.0496  2.3819
19247THY      O61939   7.529   6.733   3.840 -0.2181  0.8134 -0.0855
19247THY     HO61940   7.475   6.811   3.863 -0.3746  0.4977 -0.0962
19247THY    CA161941   7.658   6.768   3.862 -0.1981  0.0228 -0.2021
19247THY    CA261942   7.771   6.686   3.825 -0.0547 -0.4936 -0.2220
19247THY    CP161943   7.754   6.555   3.755 -0.0246  0.1492 -0.3714
19247THY    HP161944   7.649   6.538   3.731  0.1152 -1.9481  1.3037
19247THY    CP261945   7.820   6.439   3.826 -0.1723  0.4448 -0.1216
19247THY    HP261946   7.815   6.443   3.936 -0.9100  0.4358 -0.5151
19247THY    HP361947   7.926   6.443   3.802 -0.1801  0.3097 -0.6662
19247THY    HP461948   7.768   6.349   3.792 -0.5121  1.1147 -0.1918
19247THY    CP361949   7.830   6.567   3.618 -0.7894  0.0826  0.4299
19247THY    HP561950   7.787   6.630   3.540 -0.3572 -2.5844 -2.3295
19247THY    HP661951   7.834   6.469   3.568 -0.5130  0.1330  0.4159
19247THY    HP761952   7.936   6.586   3.637 -0.5031  1.3705 -1.9694
19247THY    CA361953   7.894   6.723   3.883 -0.0386 -0.6956  0.5483
19247THY    HA361954   7.976   6.652   3.886 -0.5014  0.1609  0.0375
19247THY    CA461955   7.900   6.839   3.962  0.0237 -0.5340 -0.0173
19247THY    HA461956   7.998   6.859   4.004  0.4328 -1.9222  1.0372
19247THY    CA561957   7.790   6.923   3.991 -0.5824  0.0360  0.0128
19247THY    CM161958   7.801   7.042   4.086  0.2351 -0.2163  0.4043
19247THY    HM161959   7.739   7.126   4.053 -0.4733 -0.1143 -0.0758
19247THY    HM261960   7.905   7.075   4.101 -0.1651 -0.6701  1.9514
19247THY    HM361961   7.765   7.008   4.183  1.3740 -0.4960 -1.7688
19247THY    CA661962   7.667   6.885   3.932 -0.0184 -0.2766 -0.3945
19247THY    HA661963   7.578   6.943   3.956 -0.5825 -0.4909 -1.1414
19248THY      O61964   1.097   2.161   2.330 -0.2619  0.2112  0.5557
19248THY     HO61965   1.193   2.169   2.338  0.0397 -2.9230  1.1487
19248THY    CA161966   1.066   2.027   2.296  0.4748  0.4755 -0.3384
19248THY    CA261967   0.946   1.987   2.225 -0.5169  0.2776  0.0891
19248THY    CP161968   0.847   2.087   2.163 -0.3264 -0.4324 -0.3301
19248THY    HP161969   0.893   2.185   2.181  0.4969 -0.2422 -0.7463
19248THY    CP261970   0.714   2.094   2.240 -0.1439  0.0277 -0.0150
19248THY    HP261971   0.666   1.996   2.232 -1.1400  2.1214  0.2429
19248THY    HP361972   0.641   2.166   2.201  2.2029  0.7257  2.9482
19248THY    HP461973   0.715   2.127   2.344 -2.1426  0.3086 -0.6633
19248THY    CP361974   0.832   2.069   2.007 -0.1698  0.2433 -0.1388
19248THY    HP561975   0.772   1.979   1.987 -0.0403  0.0691 -0.1873
19248THY    HP661976   0.930   2.065   1.957 -0.0126  0.5116  0.2634
19248THY    HP761977   0.792   2.161   1.964  2.1820  2.2261  1.9856
19248THY    CA361978   0.926   1.846   2.207 -0.7211 -0.3954  0.2414
19248THY    HA361979   0.831   1.805   2.173 -0.8062  0.6278 -0.4386
19248THY    CA461980   1.014   1.752   2.267  0.6495 -0.2897 -0.0826
19248THY    HA461981   1.001   1.645   2.268  2.0193  0.3361 -0.2605
19248THY    CA561982   1.118   1.789   2.342  0.0946 -0.3482 -0.0446
19248THY    CM161983   1.204   1.683   2.410 -1.0774  0.0930 -0.0776
19248THY    HM161984   1.140   1.599   2.438  0.8488  0.4566 -1.4954
19248THY    HM261985   1.263   1.715   2.497  0.1947 -0.5331 -0.6521
19248THY    HM361986   1.281   1.651   2.339 -0.7482 -0.1579  1.2109
19248THY    CA661987   1.141   1.929   2.359  0.3667 -0.6934  0.0161
19248THY    HA661988   1.212   1.946   2.439 -1.7277  1.5565 -1.1675
19249THY      O61989   4.547   2.960   3.209 -0.2468  0.0135 -0.5974
19249THY     HO61990   4.549   2.967   3.306 -2.5416  0.0029  2.7464
19249THY    CA161991   4.423   2.918   3.174  0.3250  0.1510  0.0188
19249THY    CA261992   4.378   2.919   3.044 -0.0570 -0.0095  0.0192
19249THY    CP161993   4.460   2.967   2.924  0.1902 -0.0572 -0.1941
19249THY    HP161994   4.558   2.994   2.965  0.5253 -1.3490  0.6682
19249THY    CP261995   4.400   3.099   2.869  0.0818  0.1210  0.6519
19249THY    HP261996   4.452   3.136   2.779 -0.2813 -0.3029  0.1460
19249THY    HP361997   4.402   3.173   2.949 -0.3395  1.0061 -0.2749
19249THY    HP461998   4.298   3.071   2.841  0.4911 -0.5916 -0.1758
19249THY    CP361999   4.477   2.868   2.812  0.1340 -0.5500 -0.2436
19249THY    HP562000   4.560   2.911   2.755 -0.7192 -1.2251  0.5348
19249THY    HP662001   4.387   2.868   2.749 -1.3348  1.3862  2.0490
19249THY    HP762002   4.483   2.762   2.839 -1.4027 -1.5934 -0.6316
19249THY    CA362003   4.248   2.869   3.021  0.7254  1.0207  0.3264
19249THY    HA362004   4.204   2.868   2.922 -0.4470  1.5202 -0.7264
19249THY    CA462005   4.167   2.817   3.126 -0.4638 -0.5917  0.1896
19249THY    HA462006   4.066   2.784   3.105  0.2081 -3.6114 -0.2708
19249THY    CA562007   4.215   2.827   3.252 -0.2339 -0.6736 -0.9210
19249THY    CM162008   4.130   2.809   3.372  0.0783 -0.4673 -0.8435
19249THY    HM162009   4.029   2.780   3.339  0.2149 -2.1032  0.4364
19249THY    HM262010   4.134   2.894   3.441 -0.1000 -1.8876  0.3513
19249THY    HM362011   4.176   2.728   3.430 -0.6101  0.5760 -0.5143
19249THY    CA662012   4.346   2.879   3.276 -0.0403  1.1955  0.1968
19249THY    HA662013   4.381   2.868   3.378  0.5573  0.8534 -1.3572
19250THY      O62014   9.013   2.480   7.505  0.1146  0.0217  0.3218
19250THY     HO62015   9.048   2.526   7.582 -1.5148  1.8913 -1.3476
19250THY    CA162016   8.952   2.367   7.554 -0.4798 -0.1841  0.1496
19250THY    CA262017   8.918   2.259   7.462  0.4735 -0.0152 -0.5275
19250THY    CP162018   8.931   2.278   7.313 -0.5714  0.4004  0.0890
19250THY    HP162019   8.946   2.384   7.291  2.1174  0.8882 -0.1147
19250THY    CP262020   8.815   2.231   7.237  0.0573  0.5959  0.0488
19250THY    HP262021   8.733   2.285   7.286 -0.2906 -0.1064  0.1674
19250THY    HP362022   8.803   2.123   7.223  1.9285  0.9616 -0.2389
19250THY    HP462023   8.817   2.272   7.136  0.7494  0.5111 -0.1777
19250THY    CP362024   9.056   2.202   7.257  0.2611 -0.2828  0.5258
19250THY    HP562025   9.082   2.244   7.159 -0.5102 -0.7489 -0.0491
19250THY    HP662026   9.016   2.103   7.233 -3.3180  0.4971  1.6443
19250THY    HP762027   9.151   2.202   7.312  0.7146 -1.0311 -0.4169
19250THY    CA362028   8.854   2.148   7.516  0.3830  0.5966  0.7549
19250THY    HA362029   8.814   2.069   7.453  0.6912  0.6087  0.5895
19250THY    CA462030   8.827   2.142   7.654  0.0345 -0.0494 -0.0324
19250THY    HA462031   8.763   2.061   7.688 -2.8491 -0.4997  1.9252
19250THY    CA562032   8.860   2.249   7.745  0.3514  0.5706  0.0946
19250THY    CM162033   8.793   2.254   7.876  0.3886 -0.0059  0.4146
19250THY    HM162034   8.696   2.304   7.864 -0.2609 -1.0149 -1.0288
19250THY    HM262035   8.858   2.297   7.953  0.2180  1.2274 -1.4267
19250THY    HM362036   8.779   2.154   7.917 -3.3812  0.8831  1.1609
19250THY    CA662037   8.926   2.365   7.693  0.0433 -0.3648 -0.1645
19250THY    HA662038   8.954   2.454   7.748 -1.0715  0.5223 -0.3342
19251THY      O62039   8.434   3.142   5.189 -0.5028 -0.3840 -0.0135
19251THY     HO62040   8.357   3.115   5.137  1.1347 -1.2686 -3.5433
19251THY    CA162041   8.438   3.050   5.291  0.2433 -0.5044  0.5711
19251THY    CA262042   8.545   3.042   5.375 -0.4074 -0.6421 -0.6234
19251THY    CP162043   8.658   3.145   5.358  0.2052  0.3527 -0.1886
19251THY    HP162044   8.670   3.180   5.255  1.8699  0.0740 -1.4641
19251THY    CP262045   8.785   3.085   5.408 -0.0443 -0.3255 -0.0407
19251THY    HP262046   8.863   3.154   5.375  0.2917  0.4095 -0.0601
19251THY    HP362047   8.807   2.986   5.365 -0.6018  0.2729 -0.4313
19251THY    HP462048   8.799   3.081   5.517  0.8907 -0.3780  1.1107
19251THY    CP362049   8.644   3.272   5.442  0.2318  0.4694  0.4917
19251THY    HP562050   8.711   3.353   5.412  0.0357 -2.1671 -0.2422
19251THY    HP662051   8.659   3.253   5.549  1.9108  0.2191  0.2150
19251THY    HP762052   8.542   3.310   5.435  0.4440  3.0585  1.7440
19251THY    CA362053   8.543   2.952   5.488 -0.7786 -0.1719 -0.2198
19251THY    HA362054   8.630   2.956   5.554  0.1176 -1.3814  2.7272
19251THY    CA462055   8.440   2.859   5.500  0.2319  0.3075  0.1379
19251THY    HA462056   8.446   2.784   5.577  2.2119 -1.1690 -1.3274
19251THY    CA562057   8.333   2.866   5.413  0.0653  0.9095 -0.6229
19251THY    CM162058   8.208   2.784   5.426 -0.3096 -0.4346  0.2330
19251THY    HM162059   8.117   2.836   5.392 -0.2269 -1.4575 -0.2748
19251THY    HM262060   8.196   2.748   5.529 -0.0676 -0.7156 -0.6768
19251THY    HM362061   8.219   2.707   5.349  2.4330 -0.1584  0.2687
19251THY    CA662062   8.334   2.962   5.310  0.2395  0.7141  0.1368
19251THY    HA662063   8.250   2.971   5.242  1.7351 -0.8789  3.3316
19252THY      O62064   1.407   4.907   5.204 -0.1444 -0.2507  0.3903
19252THY     HO62065   1.486   4.943   5.160  1.7004  1.2885 -1.5674
19252THY    CA162066   1.299   4.976   5.174 -0.5508 -0.2009  0.6469
19252THY    CA262067   1.174   4.925   5.216 -0.2278  0.5082 -0.0542
19252THY    CP162068   1.166   4.793   5.289  0.0262  0.4826  0.1344
19252THY    HP162069   1.236   4.716   5.253 -1.0111  0.7629 -0.9704
19252THY    CP262070   1.029   4.717   5.273 -0.1047 -0.2302  0.1846
19252THY    HP262071   0.951   4.746   5.344 -0.9478 -0.9704 -0.2332
19252THY    HP362072   1.046   4.612   5.298  0.7287  0.7637  0.5399
19252THY    HP462073   0.999   4.724   5.168 -2.2475  0.2238 -1.2756
19252THY    CP362074   1.200   4.800   5.439  0.3290  0.9022  0.0826
19252THY    HP562075   1.198   4.698   5.479  2.0099  2.2861  0.5544
19252THY    HP662076   1.131   4.873   5.482  1.2223  0.9794  0.9072
19252THY    HP762077   1.303   4.827   5.464  1.4029 -2.5105 -0.3498
19252THY    CA362078   1.060   4.997   5.187 -0.6698 -0.5486 -0.8994
19252THY    HA362079   0.961   4.964   5.217 -0.9191  1.5510  1.5259
19252THY    CA462080   1.068   5.122   5.127 -0.2819 -0.1972 -0.1677
19252THY    HA462081   0.979   5.184   5.117 -0.4753  1.6540 -0.1045
19252THY    CA562082   1.190   5.165   5.075  0.3442 -0.3478 -0.4797
19252THY    CM162083   1.199   5.296   4.995  0.6610 -0.3401 -0.0779
19252THY    HM162084   1.143   5.379   5.040 -0.5893 -0.8900 -0.6083
19252THY    HM262085   1.161   5.284   4.893 -2.4780  0.3986  2.3550
19252THY    HM362086   1.305   5.324   4.990  0.9995 -0.9906 -1.3861
19252THY    CA662087   1.310   5.089   5.103  0.5703  0.0016  0.1891
19252THY    HA662088   1.410   5.124   5.076 -0.2752 -0.1983  2.6298
19253THY      O62089   6.475   6.072   2.018 -0.2080 -0.3191 -0.3527
19253THY     HO62090   6.472   6.012   2.095  0.2059 -0.8261 -1.0512
19253THY    CA162091   6.382   6.045   1.928  0.7806  0.0676 -0.6859
19253THY    CA262092   6.369   6.114   1.809 -0.5147  0.0471 -0.1156
19253THY    CP162093   6.459   6.231   1.778 -0.3791 -0.7082 -0.2826
19253THY    HP162094   6.528   6.240   1.863  0.4129 -1.3043 -0.7152
19253THY    CP262095   6.387   6.371   1.763 -0.6824 -0.4185 -0.5057
19253THY    HP262096   6.463   6.448   1.746  0.0966  1.6576 -0.7510
19253THY    HP362097   6.327   6.380   1.854  0.8063  0.4158  1.8351
19253THY    HP462098   6.328   6.363   1.670 -1.1173 -0.0242 -2.6048
19253THY    CP362099   6.544   6.216   1.651 -0.7511  0.2543  1.1068
19253THY    HP562100   6.591   6.117   1.644  1.0438  0.3120  1.9095
19253THY    HP662101   6.620   6.296   1.649 -2.5712 -0.8671  2.9106
19253THY    HP762102   6.482   6.226   1.561  0.2460 -0.2670  3.1242
19253THY    CA362103   6.272   6.075   1.712 -0.8323  0.3390  0.1286
19253THY    HA362104   6.269   6.127   1.617 -1.2882 -0.2621 -0.9750
19253THY    CA462105   6.184   5.969   1.748 -0.0589  0.0747  0.1733
19253THY    HA462106   6.100   5.947   1.683 -0.7291  0.8559  0.4198
19253THY    CA562107   6.200   5.895   1.865 -0.5092 -0.0504 -0.0142
19253THY    CM162108   6.104   5.786   1.894  0.0685  0.8200 -0.2235
19253THY    HM162109   6.034   5.831   1.965  1.2843  0.9657  1.5218
19253THY    HM262110   6.157   5.701   1.939  1.5441  3.0375  1.7281
19253THY    HM362111   6.061   5.757   1.798 -0.1724  1.5402 -2.4282
19253THY    CA662112   6.302   5.931   1.948 -0.0883  0.2944 -0.4873
19253THY    HA662113   6.324   5.870   2.035 -1.6656 -1.1923 -3.4467
19254THY      O62114   8.786   4.916   5.748 -0.0223  0.2833  0.0927
19254THY     HO62115   8.880   4.935   5.767 -0.1753 -0.0600  1.2756
19254THY    CA162116   8.762   4.935   5.620 -0.0478  0.5833 -0.7843
19254THY    CA262117   8.629   4.944   5.574  0.5572  0.7049 -0.4985
19254THY    CP162118   8.514   4.949   5.682  0.2627  0.6056  0.8425
19254THY    HP162119   8.531   4.905   5.781 -1.8787  0.5928 -0.1491
19254THY    CP262120   8.385   4.878   5.634 -0.6565  0.3604  0.3270
19254THY    HP262121   8.339   4.933   5.551 -0.1787  0.2590  0.5802
19254THY    HP362122   8.316   4.885   5.719 -1.5318 -0.1397 -1.5518
19254THY    HP462123   8.393   4.769   5.625 -1.7544  0.1762  0.2468
19254THY    CP362124   8.481   5.093   5.723 -0.2922 -0.1051 -0.5413
19254THY    HP562125   8.552   5.146   5.788 -2.2837  0.2966  1.7976
19254THY    HP662126   8.392   5.092   5.785  0.6137  1.2953  0.9282
19254THY    HP762127   8.463   5.158   5.636 -3.8703  0.1327 -1.0260
19254THY    CA362128   8.607   4.951   5.434  0.6630 -0.1395 -0.2752
19254THY    HA362129   8.508   4.968   5.393  0.7845  0.0900  1.1403
19254THY    CA462130   8.711   4.958   5.346  0.2442 -0.1263  0.0126
19254THY    HA462131   8.693   4.969   5.239 -1.8591  0.3373  1.8286
19254THY    CA562132   8.842   4.946   5.395 -0.3435  0.3744  0.3614
19254THY    CM162133   8.957   4.945   5.292 -0.2781  0.1388  0.5406
19254THY    HM162134   8.917   4.915   5.195  1.2499 -0.1352 -0.8126
19254THY    HM262135   9.032   4.867   5.314 -1.0082 -1.2208 -0.5825
19254THY    HM362136   9.010   5.041   5.289  0.7531  2.2209  0.1008
19254THY    CA662137   8.872   4.930   5.532  0.6015 -0.5464 -0.5523
19254THY    HA662138   8.971   4.897   5.562  0.1991 -1.0736 -2.3318
19255THY      O62139   2.093   6.110   7.369 -0.0527  0.5995 -0.0546
19255THY     HO62140   2.001   6.142   7.377  0.0860 -2.3324  1.4715
19255THY    CA162141   2.105   6.079   7.236 -0.2282  0.1128 -0.0143
19255THY    CA262142   2.227   6.067   7.173  0.2853 -0.3359  0.8945
19255THY    CP162143   2.358   6.101   7.252 -0.2104 -0.2913 -0.4782
19255THY    HP162144   2.341   6.133   7.356 -0.1286 -0.8063  1.3483
19255THY    CP262145   2.427   6.224   7.185  0.9280  0.4342  0.2075
19255THY    HP262146   2.524   6.240   7.233  0.4873  0.9442  1.5678
19255THY    HP362147   2.355   6.305   7.201  0.7049  1.4027 -0.1695
19255THY    HP462148   2.441   6.209   7.078  1.0874  0.5358 -0.4121
19255THY    CP362149   2.457   5.978   7.253  0.3517 -0.2844 -0.1924
19255THY    HP562150   2.537   5.985   7.328 -0.3662  0.7341 -2.1385
19255THY    HP662151   2.508   5.948   7.161 -1.2574 -0.5729 -2.2446
19255THY    HP762152   2.389   5.898   7.286 -0.2866 -2.0765 -0.4363
19255THY    CA362153   2.224   6.025   7.036 -0.0474 -0.1546 -0.1141
19255THY    HA362154   2.319   6.023   6.984 -1.7385 -3.6166  0.5089
19255THY    CA462155   2.109   5.982   6.965  0.4003 -0.3895 -0.7021
19255THY    HA462156   2.110   5.941   6.864 -3.1020 -0.9127  0.1640
19255THY    CA562157   1.983   6.001   7.033  0.0005  0.2861 -0.0508
19255THY    CM162158   1.862   5.940   6.971 -0.4412  0.4717 -0.5470
19255THY    HM162159   1.769   5.980   7.012 -0.8419 -2.4330  1.8429
19255THY    HM262160   1.874   5.833   6.991 -2.1716 -0.9119 -1.0445
19255THY    HM362161   1.865   5.956   6.862  0.5424  0.5356 -0.2422
19255THY    CA662162   1.988   6.054   7.165  1.0090 -0.3792 -0.1572
19255THY    HA662163   1.891   6.060   7.213  0.7724 -0.5232 -2.1783
19256THY      O62164   8.876   5.396   5.857  0.5229  0.3942  0.0343
19256THY     HO62165   8.930   5.330   5.903  1.4633  1.0438  1.2055
19256THY    CA162166   8.839   5.481   5.951 -0.2141 -0.2468  0.0836
19256THY    CA262167   8.762   5.596   5.934 -0.6192  0.1294 -0.6596
19256THY    CP162168   8.714   5.628   5.785 -0.2183  0.1494 -0.1138
19256THY    HP162169   8.786   5.584   5.715 -0.0557  0.2431  0.0052
19256THY    CP262170   8.712   5.782   5.773  0.3734  0.6291  0.2138
19256THY    HP262171   8.813   5.808   5.807  1.5770 -1.9748 -0.7320
19256THY    HP362172   8.631   5.828   5.832 -1.5457 -0.8628 -1.0762
19256THY    HP462173   8.709   5.820   5.670  1.9286  0.5966  0.2967
19256THY    CP362174   8.580   5.565   5.745 -0.1684 -0.4765  0.0073
19256THY    HP562175   8.508   5.617   5.809  1.0149 -0.6990  2.0575
19256THY    HP662176   8.578   5.456   5.743  1.9699 -0.8368 -0.0744
19256THY    HP762177   8.561   5.593   5.640  0.7839 -0.9563 -1.0893
19256THY    CA362178   8.738   5.684   6.047  0.3249  0.3239  0.1660
19256THY    HA362179   8.688   5.779   6.033  1.3482  0.6038  0.7662
19256THY    CA462180   8.773   5.639   6.171 -0.8072 -0.5761 -0.2602
19256THY    HA462181   8.748   5.697   6.259 -2.3030  0.3321 -2.1577
19256THY    CA562182   8.855   5.527   6.189 -0.1638  0.4738 -0.6091
19256THY    CM162183   8.907   5.498   6.331 -0.0789 -0.1132 -0.9221
19256THY    HM162184   8.994   5.563   6.344 -1.4466 -2.7807  1.7029
19256THY    HM262185   8.938   5.394   6.347  0.5001  1.5422 -0.5166
19256THY    HM362186   8.829   5.498   6.408  0.5608  0.5986 -2.8269
19256THY    CA662187   8.886   5.450   6.081  0.3386  0.4033 -0.1905
19256THY    HA662188   8.951   5.363   6.082  0.2487  0.6111 -0.2573
19257THY      O62189   4.389   6.190   5.042  0.4380 -0.2139 -0.5887
19257THY     HO62190   4.480   6.223   5.053 -0.0168 -0.2443  0.7234
19257THY    CA162191   4.374   6.066   5.099 -0.5716 -0.1106 -0.1403
19257THY    CA262192   4.263   5.982   5.072  0.0782 -0.3111 -0.2331
19257THY    CP162193   4.153   6.031   4.981 -0.9109 -0.5869 -0.3373
19257THY    HP162194   4.136   6.139   4.986  3.4831 -1.7782  0.6006
19257THY    CP262195   4.012   5.969   5.012 -0.1824  0.3064  0.3504
19257THY    HP262196   3.931   6.018   4.958  1.9187 -3.2947  0.1616
19257THY    HP362197   3.991   5.957   5.119 -1.5158  0.3163  2.3060
19257THY    HP462198   4.013   5.867   4.973  0.5735 -3.0181  1.5088
19257THY    CP362199   4.192   5.994   4.843  0.1561 -0.1313  0.4522
19257THY    HP562200   4.109   6.018   4.775 -0.1902  0.0468 -0.2383
19257THY    HP662201   4.215   5.888   4.825  0.7048 -0.7206  0.6629
19257THY    HP762202   4.284   6.041   4.806 -0.3431 -0.5690  1.1077
19257THY    CA362203   4.251   5.859   5.139  0.4079  0.0964  0.2451
19257THY    HA362204   4.173   5.788   5.115 -0.7410 -0.2525  1.5767
19257THY    CA462205   4.344   5.829   5.238 -0.1943  0.2303  0.0830
19257THY    HA462206   4.322   5.743   5.302  0.0592  1.6249  1.0228
19257THY    CA562207   4.457   5.913   5.260  0.1003  0.1278  1.2723
19257THY    CM162208   4.553   5.874   5.368 -0.7343  0.0303 -0.2342
19257THY    HM162209   4.517   5.785   5.421 -0.0337  2.2218  0.7129
19257THY    HM262210   4.563   5.951   5.445  2.5196 -1.1523  0.7317
19257THY    HM362211   4.654   5.874   5.324 -1.4728 -1.7295 -0.6621
19257THY    CA662212   4.474   6.024   5.185  0.1543 -0.2046  0.1778
19257THY    HA662213   4.561   6.085   5.209  0.2170  1.0317 -0.3792
19258THY      O62214   8.096   4.735   2.867  0.5282 -0.4447 -0.5689
19258THY     HO62215   8.139   4.692   2.792  2.6823  1.2025 -1.4568
19258THY    CA162216   8.098   4.863   2.833 -0.7312 -0.6716 -0.7388
19258THY    CA262217   8.108   4.962   2.930  0.6245  0.2681  0.1973
19258THY    CP162218   8.113   4.927   3.080  0.0373  0.0942  0.8451
19258THY    HP162219   8.076   4.824   3.092  1.1394  1.1842  0.5521
19258THY    CP262220   8.032   5.014   3.175 -0.2376 -0.3104 -0.3150
19258THY    HP262221   8.026   4.973   3.277 -3.4993 -0.6738 -1.0986
19258THY    HP362222   7.925   5.021   3.148 -0.6497  1.4057  0.5336
19258THY    HP462223   8.082   5.111   3.181 -1.7658 -0.5858  0.5279
19258THY    CP362224   8.261   4.928   3.121  0.1668 -0.5072  0.6458
19258THY    HP562225   8.311   4.854   3.058 -0.5151 -0.0817 -0.1936
19258THY    HP662226   8.269   4.908   3.229 -1.8841 -0.4497 -0.0601
19258THY    HP762227   8.303   5.027   3.098  0.5775  0.4225  0.7073
19258THY    CA362228   8.116   5.097   2.880 -0.0711  0.7355  0.0824
19258THY    HA362229   8.134   5.170   2.958 -0.5640 -0.8212  1.9696
19258THY    CA462230   8.105   5.128   2.744  0.5572  0.0714 -0.1106
19258THY    HA462231   8.104   5.229   2.706 -0.5486 -3.0275 -1.1613
19258THY    CA562232   8.091   5.028   2.646  0.0581 -0.4171 -0.6538
19258THY    CM162233   8.086   5.052   2.506 -0.2028  0.6962 -0.2778
19258THY    HM162234   8.052   4.969   2.443  0.1974  1.7686 -1.2787
19258THY    HM262235   8.189   5.077   2.480  0.0048  0.1783 -1.5819
19258THY    HM362236   8.019   5.137   2.485 -0.6984 -1.6262 -1.1707
19258THY    CA662237   8.086   4.894   2.696 -0.1827  0.3630 -0.4646
19258THY    HA662238   8.069   4.810   2.629  0.0354  1.2534 -1.2310
19259THY      O62239   5.070   1.605   5.860 -0.2624 -0.6338 -0.3016
19259THY     HO62240   5.009   1.679   5.875  0.4273  2.1612 -0.1792
19259THY    CA162241   5.027   1.504   5.939 -0.5752  0.8088  0.2920
19259THY    CA262242   5.096   1.377   5.941 -0.1566 -0.4421 -0.1545
19259THY    CP162243   5.206   1.345   5.833  0.3642  0.0129 -0.1817
19259THY    HP162244   5.240   1.440   5.788  0.7683  1.4275  0.3786
19259THY    CP262245   5.140   1.252   5.725 -0.4622  0.0172 -0.8616
19259THY    HP262246   5.212   1.221   5.647  2.9838  3.2427 -1.7311
19259THY    HP362247   5.047   1.295   5.688 -0.7143  2.0101  0.4162
19259THY    HP462248   5.116   1.160   5.780 -0.6213 -0.3812 -1.0596
19259THY    CP362249   5.324   1.276   5.885 -0.2388  0.8714  0.3449
19259THY    HP562250   5.388   1.257   5.798 -1.0940  0.3524 -0.2052
19259THY    HP662251   5.298   1.179   5.928 -1.0954  0.4280  0.3758
19259THY    HP762252   5.392   1.329   5.953  0.7480  0.7245 -0.6806
19259THY    CA362253   5.038   1.275   6.021 -0.0144  0.6445  0.0091
19259THY    HA362254   5.073   1.173   6.008  2.5429  0.6314  0.8002
19259THY    CA462255   4.932   1.306   6.112  0.3742  0.1316 -0.3912
19259THY    HA462256   4.885   1.222   6.162 -1.9465 -3.1563 -1.2696
19259THY    CA562257   4.889   1.438   6.125 -0.1315 -0.0269  0.2509
19259THY    CM162258   4.772   1.473   6.212 -0.3445 -0.2848 -0.8419
19259THY    HM162259   4.725   1.570   6.191  0.1498  0.9617 -0.3055
19259THY    HM262260   4.793   1.474   6.320 -1.2836 -0.0925 -0.9056
19259THY    HM362261   4.677   1.424   6.191 -0.3058 -0.4502 -0.8488
19259THY    CA662262   4.931   1.530   6.031  1.2403 -0.5993  0.3341
19259THY    HA662263   4.885   1.628   6.038 -2.8872  0.1996 -1.4468
19260THY      O62264   8.640   7.835   4.268 -0.1074  0.7846 -0.4646
19260THY     HO62265   8.658   7.808   4.360  0.8544  0.1733 -2.0729
19260THY    CA162266   8.752   7.824   4.191 -0.3159  0.9633  0.1684
19260THY    CA262267   8.787   7.922   4.097  0.0720  0.5309 -0.1534
19260THY    CP162268   8.699   8.038   4.060 -0.2100 -0.2286 -0.0370
19260THY    HP162269   8.604   8.039   4.115  0.7116  1.4912 -1.4044
19260THY    CP262270   8.671   8.038   3.908  0.6342  0.0973  0.0925
19260THY    HP262271   8.610   7.948   3.894  1.5865 -0.0364 -0.5397
19260THY    HP362272   8.750   8.030   3.833  0.5600 -0.3835  2.9282
19260THY    HP462273   8.605   8.117   3.868 -1.4195 -0.8667 -1.9945
19260THY    CP362274   8.762   8.167   4.099  0.5022  0.5837  0.1555
19260THY    HP562275   8.769   8.179   4.208  2.4538  0.6564 -1.1633
19260THY    HP662276   8.696   8.246   4.061  1.8337 -1.3641  0.4067
19260THY    HP762277   8.856   8.188   4.046 -0.3520 -1.5568 -1.1197
19260THY    CA362278   8.903   7.909   4.022 -0.4848  0.3954 -0.2893
19260THY    HA362279   8.929   7.992   3.957  1.0731  1.9400  0.4979
19260THY    CA462280   8.980   7.790   4.047 -0.1799  0.2529  0.3350
19260THY    HA462281   9.075   7.775   3.998 -0.1144  0.5105 -0.1128
19260THY    CA562282   8.942   7.695   4.136  0.1549  0.4421  0.0086
19260THY    CM162283   9.035   7.581   4.162  0.6839  0.1655 -0.2308
19260THY    HM162284   9.139   7.589   4.127  0.3851 -0.4913  1.1338
19260THY    HM262285   8.997   7.495   4.105 -1.0390  1.7581 -0.5846
19260THY    HM362286   9.009   7.542   4.260 -2.5278 -0.4016  0.1940
19260THY    CA662287   8.827   7.708   4.208 -0.0052  0.0768 -0.6256
19260THY    HA662288   8.785   7.631   4.271 -0.4005  0.9198  0.2522
19261THY      O62289   6.928   9.098   2.317 -0.0558 -0.1302 -0.6817
19261THY     HO62290   6.852   9.157   2.332 -0.2605  0.0533 -0.9862
19261THY    CA162291   6.997   9.155   2.217 -0.2567 -0.1657 -0.2918
19261THY    CA262292   7.114   9.087   2.171  0.4339  0.3720  0.1328
19261THY    CP162293   7.173   8.964   2.238  0.0111  0.5517 -0.0301
19261THY    HP162294   7.105   8.914   2.307  0.4410  0.7995 -0.2771
19261THY    CP262295   7.297   8.999   2.319 -0.1104  0.2150  0.4412
19261THY    HP262296   7.322   8.909   2.376 -0.0339  1.0514  0.9791
19261THY    HP362297   7.271   9.082   2.386  0.6690  0.1380  0.7542
19261THY    HP462298   7.378   9.042   2.259  0.4171  0.3301 -0.3626
19261THY    CP362299   7.208   8.849   2.137 -0.0027  0.1683 -0.2559
19261THY    HP562300   7.122   8.841   2.069  0.4194 -0.4720  0.5320
19261THY    HP662301   7.234   8.751   2.181  0.1962 -0.4403 -0.4785
19261THY    HP762302   7.299   8.881   2.086  0.3080  0.8935  0.0556
19261THY    CA362303   7.186   9.138   2.063 -0.1890 -0.4654 -0.6022
19261THY    HA362304   7.289   9.108   2.043  0.3856  0.0791  0.9345
19261THY    CA462305   7.131   9.242   1.991  0.2039  0.3282  0.2232
19261THY    HA462306   7.175   9.271   1.896 -1.1207 -0.4886 -0.3616
19261THY    CA562307   7.013   9.301   2.032  0.3679 -0.3145 -1.3240
19261THY    CM162308   6.944   9.401   1.937  0.8561  0.3562  0.5335
19261THY    HM162309   6.939   9.358   1.836  0.6817  0.7565 -0.4290
19261THY    HM262310   6.998   9.495   1.924  1.1137 -0.8292  0.2451
19261THY    HM362311   6.844   9.434   1.967  1.3858  0.9085  1.6911
19261THY    CA662312   6.947   9.265   2.146 -0.1417 -0.3495  0.4810
19261THY    HA662313   6.849   9.302   2.176 -1.2528  0.4340 -2.7622
19262THY      O62314   6.352   5.108   3.674  0.1525 -0.1436  0.1416
19262THY     HO62315   6.274   5.061   3.707 -0.4494 -0.3421  0.9722
19262THY    CA162316   6.328   5.160   3.553 -0.0695  0.2426 -0.1229
19262THY    CA262317   6.427   5.213   3.478 -0.3051  0.5418 -0.0041
19262THY    CP162318   6.575   5.240   3.540  0.2537  0.0335  0.3056
19262THY    HP162319   6.581   5.211   3.645  0.0276 -0.0089  0.0998
19262THY    CP262320   6.607   5.385   3.555  0.2643  0.2766  0.4842
19262THY    HP262321   6.540   5.429   3.629 -2.8171 -1.8517 -0.3454
19262THY    HP362322   6.580   5.442   3.465  0.9864  0.8577  1.7996
19262THY    HP462323   6.713   5.396   3.581  0.7927 -0.7385 -1.6546
19262THY    CP362324   6.677   5.165   3.455  0.1389 -0.5521 -0.2786
19262THY    HP562325   6.623   5.074   3.424 -2.0675  0.4265  0.6228
19262THY    HP662326   6.764   5.134   3.512 -0.4480 -0.0752 -1.0971
19262THY    HP762327   6.710   5.211   3.361  1.7443 -0.6243 -1.5101
19262THY    CA362328   6.400   5.252   3.346  0.2764  0.3671  0.0875
19262THY    HA362329   6.478   5.288   3.280  0.3091  0.0373 -0.5743
19262THY    CA462330   6.266   5.243   3.297 -0.3738  1.1985  0.0875
19262THY    HA462331   6.236   5.279   3.199 -2.2514  1.5927 -0.3178
19262THY    CA562332   6.165   5.195   3.374  0.3377  0.7623  0.9531
19262THY    CM162333   6.025   5.185   3.312  0.0973  0.0567  0.4318
19262THY    HM162334   5.955   5.155   3.390  0.0603 -1.1488 -3.0323
19262THY    HM262335   6.018   5.107   3.235 -1.3688  1.5048 -0.9237
19262THY    HM362336   5.985   5.278   3.269 -2.5377 -0.8977 -1.0336
19262THY    CA662337   6.197   5.156   3.506  0.2638  0.1101 -0.1112
19262THY    HA662338   6.119   5.115   3.570  2.0841  3.5675  1.3652
19263THY      O62339   2.924   3.139   3.452  0.4969 -0.2958  0.5618
19263THY     HO62340   2.915   3.064   3.514  4.7893  0.9125  0.7820
19263THY    CA162341   2.914   3.250   3.526 -0.6307 -0.4439 -0.6187
19263THY    CA262342   2.938   3.374   3.458  0.0772 -0.0665 -0.6626
19263THY    CP162343   2.975   3.391   3.309  0.0162  0.5533  0.2613
19263THY    HP162344   2.990   3.292   3.264 -2.1325 -0.6878  0.4241
19263THY    CP262345   3.092   3.486   3.291  0.6077  0.2544  0.4446
19263THY    HP262346   3.141   3.461   3.196  1.5201  0.4585  1.4106
19263THY    HP362347   3.160   3.476   3.376  0.5333  0.1583 -1.3325
19263THY    HP462348   3.070   3.593   3.292 -0.8902  0.7954  0.1649
19263THY    CP362349   2.852   3.452   3.231  0.3360 -0.3531  0.0699
19263THY    HP562350   2.865   3.481   3.127  1.9691 -0.3640 -0.6187
19263THY    HP662351   2.817   3.539   3.288  2.0380 -0.3021  0.7573
19263THY    HP762352   2.766   3.383   3.226 -0.2015 -0.7835  0.7553
19263THY    CA362353   2.921   3.484   3.541 -0.7109  0.9405  0.2233
19263THY    HA362354   2.934   3.583   3.497 -0.0573  1.1243  0.2226
19263THY    CA462355   2.884   3.478   3.676  0.5631 -0.4119 -0.4005
19263THY    HA462356   2.879   3.567   3.739 -1.2534 -1.2627  0.1676
19263THY    CA562357   2.858   3.355   3.733  0.9078 -0.6890 -0.4471
19263THY    CM162358   2.822   3.346   3.878 -0.6821  0.4278 -0.0561
19263THY    HM162359   2.893   3.419   3.920 -1.5022 -2.0190  2.3186
19263THY    HM262360   2.832   3.245   3.920  1.0485  1.9850  0.6982
19263THY    HM362361   2.718   3.380   3.884 -1.1654 -1.3716 -1.1000
19263THY    CA662362   2.880   3.243   3.657  0.6719  0.0739  0.2858
19263THY    HA662363   2.865   3.149   3.710 -1.2478  3.3923  2.2399
19264THY      O62364   5.786   0.803   3.987  0.0266  0.8360  0.0146
19264THY     HO62365   5.741   0.889   3.993  1.5033  1.5327  0.7719
19264THY    CA162366   5.720   0.735   3.899 -0.2695  0.3185 -0.5249
19264THY    CA262367   5.783   0.622   3.837  0.0413  0.3218  0.0579
19264THY    CP162368   5.914   0.569   3.890 -0.0893 -1.1327  0.0709
19264THY    HP162369   5.927   0.590   3.997  3.4134 -1.0969 -1.4518
19264THY    CP262370   6.037   0.632   3.828  0.0271 -1.1913 -0.5701
19264THY    HP262371   6.044   0.619   3.720 -0.5276 -1.4374  0.9839
19264THY    HP362372   6.124   0.594   3.883  0.5298 -0.0201  2.0808
19264THY    HP462373   6.035   0.737   3.858 -1.4044  1.5745 -1.2917
19264THY    CP362374   5.924   0.416   3.897  0.5173  1.1782  0.2341
19264THY    HP562375   6.018   0.378   3.940 -0.0397  1.2701 -1.1119
19264THY    HP662376   5.929   0.386   3.791  2.8148  0.5618  2.4651
19264THY    HP762377   5.834   0.366   3.935  1.4963 -0.2236 -2.8719
19264THY    CA362378   5.700   0.546   3.754  0.0071  0.6579 -0.1087
19264THY    HA362379   5.741   0.455   3.712 -0.2777 -1.3849  0.6540
19264THY    CA462380   5.566   0.584   3.727  0.3248 -0.0058  0.7960
19264THY    HA462381   5.496   0.515   3.681  2.2407 -0.2685 -1.0747
19264THY    CA562382   5.514   0.704   3.774 -0.3062 -0.0710 -0.5879
19264THY    CM162383   5.369   0.735   3.757  1.3086 -0.1957  0.1222
19264THY    HM162384   5.319   0.646   3.717 -1.2605  1.8889  0.5132
19264THY    HM262385   5.345   0.818   3.690 -1.3429 -2.3365 -2.1792
19264THY    HM362386   5.324   0.733   3.856  3.3871  0.8141  0.0910
19264THY    CA662387   5.587   0.775   3.864  0.1904 -0.0531 -0.1292
19264THY    HA662388   5.545   0.858   3.920  1.1508 -2.9031  2.4507
19265THY      O62389   8.418   3.737   1.725  0.0830  0.9938  0.2746
19265THY     HO62390   8.337   3.775   1.685  1.5533 -1.1656  1.3540
19265THY    CA162391   8.446   3.792   1.841  0.1446  0.8768  0.5479
19265THY    CA262392   8.537   3.742   1.935  0.0693 -0.7981  0.2205
19265THY    CP162393   8.596   3.607   1.907 -0.0444 -0.5874  0.2035
19265THY    HP162394   8.629   3.596   1.803  1.6745  0.0024 -0.5567
19265THY    CP262395   8.498   3.491   1.923  0.3742 -0.4402 -0.4731
19265THY    HP262396   8.431   3.491   1.836  1.4610 -1.3103  0.9941
19265THY    HP362397   8.440   3.502   2.015  0.3441 -0.2867 -1.7285
19265THY    HP462398   8.556   3.399   1.935  1.8493  2.6326  0.7285
19265THY    CP362399   8.731   3.586   1.987 -0.4572  0.1304  0.7339
19265THY    HP562400   8.768   3.486   1.964  0.1930  0.0496  0.9845
19265THY    HP662401   8.708   3.589   2.094  0.2401  0.3260 -0.5549
19265THY    HP762402   8.806   3.661   1.958  0.0976 -0.2360  0.0481
19265THY    CA362403   8.555   3.816   2.050  0.0041 -0.4137  0.2329
19265THY    HA362404   8.617   3.777   2.130 -2.1987  0.5631 -1.4667
19265THY    CA462405   8.488   3.938   2.068  0.6154  0.8417  0.4773
19265THY    HA462406   8.494   3.988   2.164  0.6420  0.1036  1.9182
19265THY    CA562407   8.402   3.989   1.973  0.0977 -0.3290  0.6968
19265THY    CM162408   8.338   4.119   2.004  0.1893  0.1303  0.5048
19265THY    HM162409   8.231   4.120   1.980  0.2410 -0.1118  1.1677
19265THY    HM262410   8.389   4.196   1.945  1.2253  2.1134  1.4329
19265THY    HM362411   8.359   4.150   2.107  0.4021 -0.2957  1.8339
19265THY    CA662412   8.388   3.916   1.856  0.4065 -0.1825 -1.0402
19265THY    HA662413   8.325   3.965   1.783  0.8078 -1.4434 -2.3031
19266THY      O62414   6.864   1.667   5.472  0.5160  0.3007  0.1436
19266THY     HO62415   6.902   1.755   5.458  0.9098  1.0719  0.1037
19266THY    CA162416   6.792   1.670   5.594  0.5980  0.3254 -0.4666
19266THY    CA262417   6.757   1.554   5.657 -0.1246  0.0523 -0.2206
19266THY    CP162418   6.815   1.422   5.609 -0.0277 -0.3115  0.3137
19266THY    HP162419   6.898   1.449   5.543  0.9655  0.2085 -1.3486
19266THY    CP262420   6.715   1.344   5.532  0.0268  0.4924  0.1523
19266THY    HP262421   6.748   1.240   5.525 -1.7051 -0.7412 -0.3558
19266THY    HP362422   6.706   1.387   5.431 -2.0714  0.1365 -1.0043
19266THY    HP462423   6.618   1.358   5.579 -0.3787  0.0038 -0.9415
19266THY    CP362424   6.874   1.342   5.737  0.0882  0.2944 -0.0918
19266THY    HP562425   6.794   1.311   5.804 -0.3815 -0.3303 -0.2500
19266THY    HP662426   6.947   1.401   5.794  0.1573 -0.5470  0.6723
19266THY    HP762427   6.922   1.252   5.696  0.4147  1.7729 -0.6168
19266THY    CA362428   6.684   1.567   5.774  0.1403 -0.5154  0.4731
19266THY    HA362429   6.653   1.480   5.831 -1.5866 -0.5364  1.0376
19266THY    CA462430   6.641   1.695   5.825 -0.0127  0.1011 -0.1102
19266THY    HA462431   6.578   1.694   5.913 -0.1000  0.0368 -0.8825
19266THY    CA562432   6.684   1.811   5.752  0.3506 -0.0413  0.5422
19266THY    CM162433   6.638   1.948   5.792 -0.0681  0.5682  0.3038
19266THY    HM162434   6.685   2.022   5.727 -0.4799 -0.9652 -0.7283
19266THY    HM262435   6.682   1.966   5.890  0.3741  0.2353  1.0575
19266THY    HM362436   6.531   1.964   5.773 -0.5374  0.0945 -2.6603
19266THY    CA662437   6.760   1.794   5.638 -0.0603 -0.2869  0.3022
19266THY    HA662438   6.787   1.875   5.571  0.7658  0.1232  0.3813
19267THY      O62439   3.314   2.160   6.541  0.3816 -0.4365 -0.7121
19267THY     HO62440   3.254   2.096   6.583  1.9756  1.3861 -1.0913
19267THY    CA162441   3.356   2.231   6.645 -0.4717  0.1200  0.5604
19267THY    CA262442   3.464   2.329   6.626 -0.6537  0.4074  0.1311
19267THY    CP162443   3.518   2.356   6.482  0.6756  0.1370  0.6758
19267THY    HP162444   3.483   2.277   6.413  2.3500  2.0166 -1.8713
19267THY    CP262445   3.670   2.346   6.471 -0.4439 -0.4057 -0.5254
19267THY    HP262446   3.711   2.385   6.377 -1.0987 -1.7275 -2.8617
19267THY    HP362447   3.699   2.240   6.480  2.4055 -1.0627  0.1101
19267THY    HP462448   3.710   2.410   6.551 -0.0545 -0.8186 -0.2541
19267THY    CP362449   3.475   2.493   6.438  0.6887  0.0540  0.3010
19267THY    HP562450   3.471   2.501   6.329  2.1260  0.1152  3.1740
19267THY    HP662451   3.533   2.574   6.484 -1.2074  1.0054  1.1869
19267THY    HP762452   3.371   2.499   6.471  0.3037 -1.1165  0.1612
19267THY    CA362453   3.519   2.406   6.735  0.1900 -0.4152 -0.1304
19267THY    HA362454   3.605   2.473   6.735  1.0281 -0.1675 -1.1808
19267THY    CA462455   3.458   2.378   6.860  0.2993  0.3723 -0.0508
19267THY    HA462456   3.498   2.412   6.956 -1.6408  1.7232 -1.4026
19267THY    CA562457   3.353   2.283   6.875 -0.3162 -0.2235 -0.0540
19267THY    CM162458   3.293   2.268   7.015  0.4991 -0.2086  0.4103
19267THY    HM162459   3.297   2.355   7.083 -2.3541  1.3826 -0.5673
19267THY    HM262460   3.326   2.188   7.082 -0.3227  1.5020  1.4266
19267THY    HM362461   3.185   2.256   7.005  0.2619  0.6342  1.5910
19267THY    CA662462   3.293   2.218   6.770 -0.6986  0.8716 -0.1907
19267THY    HA662463   3.215   2.144   6.784 -0.2721  0.8841 -0.6436
19268THY      O62464   5.097   0.972   6.230  0.2381  0.1559  0.3418
19268THY     HO62465   5.098   1.008   6.320  1.2998 -0.3190  1.5814
19268THY    CA162466   5.001   0.882   6.227 -0.0754 -0.0296  0.5632
19268THY    CA262467   4.985   0.803   6.106  0.3231 -0.3229  0.1326
19268THY    CP162468   5.067   0.831   5.978 -0.0459  0.8115 -0.0466
19268THY    HP162469   5.149   0.904   5.987  0.2057 -1.0738 -0.0293
19268THY    CP262470   4.977   0.896   5.870  0.0397  0.2728  0.1451
19268THY    HP262471   4.940   0.993   5.905 -0.6931 -2.1293  0.8046
19268THY    HP362472   4.892   0.831   5.847  0.0169 -1.1053  0.6398
19268THY    HP462473   5.024   0.912   5.773 -3.2849 -1.5602 -0.3389
19268THY    CP362474   5.132   0.710   5.916  0.1129  0.7527  0.1647
19268THY    HP562475   5.183   0.739   5.824 -1.8124 -2.1541 -4.5442
19268THY    HP662476   5.065   0.632   5.881  1.1255  0.8119 -0.7499
19268THY    HP762477   5.210   0.681   5.988  1.1091  0.1859  1.3284
19268THY    CA362478   4.877   0.704   6.114 -0.4330 -0.0263 -0.0009
19268THY    HA362479   4.840   0.641   6.033 -0.0646 -0.0075 -0.2395
19268THY    CA462480   4.798   0.697   6.232  0.1317  0.8157 -0.6641
19268THY    HA462481   4.712   0.631   6.239 -0.4577  1.1238  0.1061
19268THY    CA562482   4.817   0.792   6.333 -0.0014 -0.0115  0.7157
19268THY    CM162483   4.732   0.785   6.455  0.3777 -0.4436 -0.1202
19268THY    HM162484   4.790   0.829   6.537 -0.9841  1.3342 -1.4668
19268THY    HM262485   4.714   0.679   6.473 -0.1492 -0.4798 -0.0360
19268THY    HM362486   4.639   0.842   6.445 -0.5358  0.3494 -1.4382
19268THY    CA662487   4.918   0.883   6.333  0.6196 -0.1264  0.3406
19268THY    HA662488   4.914   0.976   6.389 -1.1219  0.7507 -0.2297
19269THY      O62489   4.388   1.340   2.146  0.1612  0.0439 -0.2515
19269THY     HO62490   4.393   1.436   2.157 -0.3630 -0.0737 -0.2102
19269THY    CA162491   4.484   1.302   2.072  0.4285 -0.2867 -0.0273
19269THY    CA262492   4.488   1.170   2.022  0.1784  0.2874 -0.3921
19269THY    CP162493   4.371   1.071   2.012 -0.0747 -0.2290  0.1854
19269THY    HP162494   4.285   1.105   2.072 -1.2539 -2.6718  1.8385
19269THY    CP262495   4.417   0.940   2.074 -0.2434  0.1271  0.3703
19269THY    HP262496   4.342   0.861   2.065  2.4294  2.1974 -2.6449
19269THY    HP362497   4.434   0.948   2.182  3.3656  0.0159 -2.7026
19269THY    HP462498   4.502   0.888   2.029  0.1216  0.4073  0.7187
19269THY    CP362499   4.312   1.048   1.870  0.0953  0.2001  0.0451
19269THY    HP562500   4.390   1.031   1.795  0.3280 -0.4694  3.3089
19269THY    HP662501   4.283   1.147   1.832 -0.5110 -0.1750 -0.2710
19269THY    HP762502   4.219   0.991   1.861  0.3127 -0.3633 -0.2232
19269THY    CA362503   4.604   1.135   1.946  0.1873 -0.2421  0.3132
19269THY    HA362504   4.603   1.041   1.893 -0.7895  0.3122 -0.0014
19269THY    CA462505   4.703   1.228   1.919 -0.1704  0.6381 -0.1203
19269THY    HA462506   4.787   1.201   1.855  1.4544  2.1697  1.0552
19269THY    CA562507   4.700   1.355   1.968 -0.3391 -0.0652 -0.3611
19269THY    CM162508   4.800   1.460   1.944  0.0429  0.1457  0.4511
19269THY    HM162509   4.893   1.420   1.900 -0.6479 -0.0760 -0.9690
19269THY    HM262510   4.819   1.520   2.034 -0.1037 -0.0017  0.7252
19269THY    HM362511   4.751   1.531   1.875 -0.9036 -0.1764 -0.4890
19269THY    CA662512   4.590   1.394   2.047  0.7003 -0.2128 -0.2845
19269THY    HA662513   4.583   1.492   2.093  1.9828 -0.6249  0.0087
19270THY      O62514   2.046   2.752   5.035  0.6459  0.2814 -0.1707
19270THY     HO62515   2.051   2.769   4.940  0.6367  0.6511  2.1826
19270THY    CA162516   2.103   2.866   5.092 -0.1250 -0.0457  0.0874
19270THY    CA262517   2.082   2.900   5.230 -0.0643 -0.7373 -0.6014
19270THY    CP162518   2.004   2.800   5.319 -0.6454 -0.3893 -0.0816
19270THY    HP162519   2.006   2.703   5.269 -0.3305 -0.5038 -0.0180
19270THY    CP262520   1.867   2.864   5.350  0.4878  0.1209 -0.1915
19270THY    HP262521   1.886   2.961   5.398  0.9490 -0.3131 -0.0664
19270THY    HP362522   1.808   2.803   5.420 -0.6457  0.0523  0.7828
19270THY    HP462523   1.805   2.878   5.261 -0.6260  0.5019 -2.2022
19270THY    CP362524   2.076   2.776   5.453  0.0299  0.3838  0.3295
19270THY    HP562525   2.174   2.733   5.429 -1.0938 -0.3657 -1.9819
19270THY    HP662526   2.023   2.702   5.515 -1.4916  0.1893  1.2051
19270THY    HP762527   2.099   2.863   5.515  1.0743  0.2182  0.1844
19270THY    CA362528   2.141   3.022   5.271 -0.2099 -0.7011 -0.1633
19270THY    HA362529   2.118   3.060   5.370 -1.0742  0.2013 -2.8195
19270THY    CA462530   2.223   3.098   5.191 -1.5727  0.8515 -0.1151
19270THY    HA462531   2.278   3.185   5.226 -0.5292 -1.8766  0.4137
19270THY    CA562532   2.241   3.055   5.056 -0.3676  0.1230 -0.8583
19270THY    CM162533   2.322   3.148   4.968  0.4563 -0.5539 -0.7071
19270THY    HM162534   2.401   3.184   5.035  0.5800  0.3134 -2.4680
19270THY    HM262535   2.263   3.237   4.945  0.2315 -0.7917 -0.9183
19270THY    HM362536   2.358   3.118   4.869 -2.1331 -2.3131  1.5169
19270THY    CA662537   2.180   2.944   5.007 -0.4853  0.1003  0.6089
19270THY    HA662538   2.205   2.903   4.909  0.2282  0.9945 -1.1945
19271THY      O62539   7.000   4.032   3.524  0.3212 -0.1851  0.1560
19271THY     HO62540   7.041   4.038   3.612 -3.6886  1.8211  2.5463
19271THY    CA162541   6.907   4.130   3.538  0.2068 -0.6339 -0.4677
19271THY    CA262542   6.812   4.162   3.433 -0.6083 -0.1598 -0.0250
19271THY    CP162543   6.822   4.091   3.295  0.3338  0.9521  0.0774
19271THY    HP162544   6.930   4.101   3.278  0.3395  1.7188  1.5167
19271THY    CP262545   6.753   4.169   3.176  0.3574 -0.0873  0.4890
19271THY    HP262546   6.774   4.117   3.081  1.2851 -1.0679  2.5394
19271THY    HP362547   6.794   4.270   3.180 -0.7655  1.3104  0.9219
19271THY    HP462548   6.643   4.160   3.176  0.4801 -0.4341 -1.9292
19271THY    CP362549   6.781   3.947   3.296  0.1405  0.6191 -0.2121
19271THY    HP562550   6.763   3.897   3.199 -0.9107  0.3414  0.6541
19271THY    HP662551   6.691   3.948   3.359  1.0700  2.1067 -2.6483
19271THY    HP762552   6.850   3.882   3.351  0.1041 -1.0235 -1.7568
19271THY    CA362553   6.713   4.261   3.464  0.0334 -0.2007 -0.1157
19271THY    HA362554   6.627   4.276   3.400  0.2392 -0.4919 -0.1654
19271THY    CA462555   6.713   4.318   3.589 -0.6378 -0.4731  0.1598
19271THY    HA462556   6.639   4.395   3.611 -2.0901 -0.9901 -1.0446
19271THY    CA562557   6.807   4.283   3.684  0.4753  0.3443  0.0709
19271THY    CM162558   6.798   4.352   3.815  0.1550 -0.6751 -0.5522
19271THY    HM162559   6.884   4.329   3.880 -1.0213  1.2420  0.2287
19271THY    HM262560   6.702   4.336   3.866 -0.6345 -0.8680  2.8890
19271THY    HM362561   6.807   4.460   3.803  1.2639 -2.5256 -0.8086
19271THY    CA662562   6.907   4.193   3.659  0.2609  0.1159 -0.1885
19271THY    HA662563   6.971   4.171   3.743 -0.7968  0.7647 -0.8738
19272THY      O62564   2.239   3.490   2.017 -0.1721  0.0413  0.1820
19272THY     HO62565   2.298   3.535   1.955  0.8574  1.3621  0.7250
19272THY    CA162566   2.250   3.559   2.135 -0.1113  0.0914  0.2351
19272THY    CA262567   2.153   3.557   2.234 -0.3533  0.6861  0.0243
19272THY    CP162568   2.021   3.477   2.208  0.5663 -0.4814  0.1520
19272THY    HP162569   2.044   3.369   2.208  1.0872  3.1913  0.1706
19272THY    CP262570   1.935   3.524   2.091 -0.3306  0.7195 -0.2109
19272THY    HP262571   1.901   3.628   2.105  0.9499 -0.2901  0.3711
19272THY    HP362572   1.847   3.462   2.074  0.2356 -1.6851 -0.4370
19272THY    HP462573   1.983   3.529   1.993 -3.0666 -0.6709  0.7553
19272THY    CP362574   1.931   3.474   2.337 -0.4773  0.1443 -0.6149
19272THY    HP562575   1.906   3.579   2.353  2.4763 -1.7851  0.5021
19272THY    HP662576   2.005   3.445   2.414  2.1256 -1.1615  2.0516
19272THY    HP762577   1.858   3.393   2.321 -1.6364  0.5274  0.3317
19272THY    CA362578   2.178   3.632   2.347 -1.1035 -0.8778  1.1128
19272THY    HA362579   2.105   3.637   2.427 -0.5234 -0.3406  1.0681
19272THY    CA462580   2.301   3.698   2.360 -0.1304 -1.0264  0.5434
19272THY    HA462581   2.325   3.734   2.460 -0.9483 -0.0897 -1.3689
19272THY    CA562582   2.397   3.694   2.258  0.9897 -1.0490  0.3058
19272THY    CM162583   2.530   3.765   2.272  0.0977 -0.3253 -0.6236
19272THY    HM162584   2.619   3.712   2.236  1.0750  1.0615  0.0066
19272THY    HM262585   2.550   3.804   2.372  0.6966 -0.5184 -0.4268
19272THY    HM362586   2.528   3.848   2.201  0.2391 -1.1177 -1.2839
19272THY    CA662587   2.371   3.625   2.144  0.0648  0.3677 -0.0949
19272THY    HA662588   2.445   3.617   2.065  1.6241  1.4875  2.2005
19273THY      O62589   9.429   6.130   4.554  0.4985  0.3968  0.0738
19273THY     HO62590   9.498   6.130   4.623 -0.8995  1.9185 -1.7765
19273THY    CA162591   9.322   6.180   4.614 -0.4422 -0.2054 -0.4993
19273THY    CA262592   9.200   6.118   4.597 -0.2905 -0.4258  0.1193
19273THY    CP162593   9.189   5.983   4.513  0.5474  0.2650  0.2108
19273THY    HP162594   9.259   5.968   4.430  1.3221  1.2495 -2.0293
19273THY    CP262595   9.053   5.969   4.451 -0.4868 -0.0900  0.1206
19273THY    HP262596   9.030   6.047   4.377 -0.5912 -0.3523 -0.1567
19273THY    HP362597   8.964   5.978   4.514 -0.5008 -0.1532  0.4166
19273THY    HP462598   9.063   5.870   4.404  0.9657 -1.0145  0.6712
19273THY    CP362599   9.223   5.871   4.605  0.7269  0.7780  0.5175
19273THY    HP562600   9.155   5.883   4.691  1.7335  1.7336 -0.2938
19273THY    HP662601   9.324   5.876   4.648  0.5316  1.2638  0.3692
19273THY    HP762602   9.211   5.774   4.554 -1.9997 -2.3250  2.2794
19273THY    CA362603   9.083   6.186   4.655  0.3199  0.0988 -0.1373
19273THY    HA362604   8.980   6.153   4.646 -0.3886  3.5370  0.7483
19273THY    CA462605   9.104   6.295   4.739 -0.2070  0.3610 -0.0048
19273THY    HA462606   9.017   6.330   4.793 -0.6297 -0.1264 -0.2958
19273THY    CA562607   9.235   6.350   4.760  0.2516  0.1662  0.6946
19273THY    CM162608   9.257   6.470   4.845 -0.5448  0.1207 -0.3758
19273THY    HM162609   9.192   6.460   4.933 -0.4491  0.1894 -0.3933
19273THY    HM262610   9.233   6.565   4.796  1.4191  1.4852  0.9179
19273THY    HM362611   9.360   6.475   4.884 -0.7761  1.0032 -1.9515
19273THY    CA662612   9.337   6.295   4.685  0.8622 -0.7041 -0.2461
19273THY    HA662613   9.435   6.342   4.678  0.7219 -3.1789 -0.1822
19274THY      O62614   5.358   8.958   2.159  0.1541  0.1947  0.1206
19274THY     HO62615   5.435   9.007   2.126  0.1589  2.6218  1.9899
19274THY    CA162616   5.392   8.917   2.282  0.1138  0.0114 -0.1090
19274THY    CA262617   5.312   8.830   2.356 -0.6063  0.5909 -0.4029
19274THY    CP162618   5.189   8.775   2.289 -0.3764  0.8512 -0.2438
19274THY    HP162619   5.137   8.852   2.231  0.7017 -0.2061 -0.2869
19274THY    CP262620   5.091   8.720   2.393 -0.2699  0.3663 -0.4998
19274THY    HP262621   5.126   8.623   2.430 -2.6653 -1.6432 -2.2461
19274THY    HP362622   4.992   8.706   2.350 -0.0718 -0.1814 -0.2220
19274THY    HP462623   5.073   8.791   2.475 -1.2882 -0.2647 -0.0090
19274THY    CP362624   5.222   8.662   2.191  0.3699 -0.7164 -0.8808
19274THY    HP562625   5.244   8.569   2.244  1.8707  0.1638 -0.0598
19274THY    HP662626   5.312   8.680   2.130 -1.7000 -3.5809  0.7392
19274THY    HP762627   5.136   8.647   2.124 -0.4217  0.2394 -0.7346
19274THY    CA362628   5.353   8.791   2.485  0.2286 -0.5355  0.2910
19274THY    HA362629   5.307   8.710   2.542  0.3870  0.0957  0.6429
19274THY    CA462630   5.470   8.845   2.543 -0.6943 -0.0769 -0.2973
19274THY    HA462631   5.492   8.816   2.645 -0.7529  0.4344  1.3377
19274THY    CA562632   5.547   8.931   2.461 -0.1852 -0.0630  0.4875
19274THY    CM162633   5.678   8.976   2.520 -0.4305 -1.4056 -0.8603
19274THY    HM162634   5.671   9.066   2.582 -0.5034  0.6617 -2.2167
19274THY    HM262635   5.765   8.980   2.453  1.3075  0.7580  2.7978
19274THY    HM362636   5.712   8.899   2.590 -1.2359 -1.3106 -1.1363
19274THY    CA662637   5.510   8.977   2.337  0.3088  0.0311 -0.6083
19274THY    HA662638   5.552   9.061   2.281 -1.8878 -2.6088 -1.1557
19275THY      O62639   2.770   8.994   6.959  0.2849 -0.1423 -0.0214
19275THY     HO62640   2.707   9.028   7.024  1.5829  0.5260  1.2023
19275THY    CA162641   2.797   9.092   6.881 -0.2124  0.5838  0.1382
19275THY    CA262642   2.904   9.096   6.786 -0.6063  0.2303 -0.3734
19275THY    CP162643   3.003   8.977   6.769 -0.1114  0.2357  0.0339
19275THY    HP162644   2.986   8.901   6.847  1.4754  0.3415 -0.2357
19275THY    CP262645   3.149   9.012   6.785  0.1660  0.3855  0.2643
19275THY    HP262646   3.168   9.048   6.887  2.9367 -0.4966  1.5736
19275THY    HP362647   3.185   9.093   6.720 -3.2930  2.4776  3.7969
19275THY    HP462648   3.217   8.931   6.757  0.9709 -1.6624  1.5448
19275THY    CP362649   2.974   8.904   6.633  0.6079 -0.6083 -0.0553
19275THY    HP562650   2.871   8.913   6.596  0.1745  0.5789 -0.0252
19275THY    HP662651   3.009   8.801   6.639 -0.4978  0.2091 -0.4039
19275THY    HP762652   3.036   8.955   6.558 -1.0133 -1.8474  0.2022
19275THY    CA362653   2.919   9.207   6.706 -0.4110 -0.8791 -0.3661
19275THY    HA362654   3.011   9.221   6.650  0.1231 -0.7860 -3.1187
19275THY    CA462655   2.834   9.313   6.726  0.2071  0.2073 -0.0011
19275THY    HA462656   2.860   9.403   6.671  1.4975  0.9313  0.0962
19275THY    CA562657   2.724   9.312   6.814 -0.0827  0.0173  0.1697
19275THY    CM162658   2.640   9.436   6.822 -0.4087 -0.5002  0.4601
19275THY    HM162659   2.672   9.521   6.760  1.2777 -0.3832 -0.0437
19275THY    HM262660   2.645   9.470   6.926  0.9957 -0.6667  0.8066
19275THY    HM362661   2.532   9.417   6.818 -0.8821  3.1556  1.6516
19275THY    CA662662   2.703   9.197   6.889  0.4077  0.0318  0.1414
19275THY    HA662663   2.628   9.190   6.967  1.0202  0.4807 -2.5769
19276THY      O62664   4.109   4.206   7.034  0.6497  0.1016 -0.2524
19276THY     HO62665   4.030   4.163   6.997  0.7013  0.8145 -0.9775
19276THY    CA162666   4.162   4.270   6.931  0.6873 -0.4589  0.1084
19276THY    CA262667   4.298   4.290   6.907  0.8661  0.4406 -0.3367
19276THY    CP162668   4.397   4.261   7.018 -0.1067  0.1537  0.4725
19276THY    HP162669   4.351   4.230   7.113 -0.1663  1.2041  3.4717
19276THY    CP262670   4.455   4.392   7.065  0.4050 -0.8611  0.1311
19276THY    HP262671   4.519   4.437   6.989 -0.8331 -2.1903 -0.2641
19276THY    HP362672   4.514   4.385   7.158 -2.6816  1.4874  2.3091
19276THY    HP462673   4.379   4.465   7.096  0.4163 -0.4219 -0.0401
19276THY    CP362674   4.504   4.161   6.983  0.1217  0.6096  0.1309
19276THY    HP562675   4.478   4.061   7.020 -0.4669 -1.9983 -0.7745
19276THY    HP662676   4.597   4.199   7.027 -1.0255  1.4694  2.0696
19276THY    HP762677   4.510   4.164   6.873 -2.1652  0.4219 -0.4572
19276THY    CA362678   4.337   4.349   6.789 -0.1287 -0.2635  0.2047
19276THY    HA362679   4.443   4.369   6.777  0.2600  0.9969 -0.9384
19276THY    CA462680   4.239   4.379   6.693 -0.0613  0.5789 -0.1640
19276THY    HA462681   4.263   4.417   6.594 -0.7517  0.2490 -0.5698
19276THY    CA562682   4.112   4.372   6.723  0.3546  0.2392  0.2953
19276THY    CM162683   4.013   4.401   6.612 -0.3625  0.3905 -0.2003
19276THY    HM162684   4.049   4.482   6.548 -2.4284 -0.0984  0.4061
19276THY    HM262685   3.916   4.422   6.659 -0.4812 -0.4668  1.3062
19276THY    HM362686   4.002   4.313   6.548  0.9022 -1.3778  0.8728
19276THY    CA662687   4.069   4.316   6.842  0.5009  0.0450  0.5355
19276THY    HA662688   3.961   4.303   6.849  0.3063 -1.3252  1.2455
19277THY      O62689   2.893   4.830   6.421 -0.3486 -0.0801  0.3831
19277THY     HO62690   2.887   4.887   6.342  2.1131  0.4930  1.5744
19277THY    CA162691   2.809   4.880   6.511 -0.5152  0.2067 -0.4108
19277THY    CA262692   2.828   4.844   6.645  0.2040 -0.1032  0.3674
19277THY    CP162693   2.924   4.729   6.682 -0.2427  0.6308 -1.0861
19277THY    HP162694   3.008   4.720   6.613 -0.6780 -0.0629 -0.0160
19277THY    CP262695   2.857   4.592   6.698 -0.4027 -0.0502 -0.2113
19277THY    HP262696   2.777   4.585   6.623 -0.1703 -0.2557 -0.7616
19277THY    HP362697   2.822   4.569   6.799 -1.5199 -0.2422  0.6001
19277THY    HP462698   2.933   4.519   6.669 -0.5992 -0.0286 -0.4263
19277THY    CP362699   3.001   4.760   6.810  0.1494 -0.2054 -0.7874
19277THY    HP562700   3.086   4.694   6.829  1.4390 -1.9368  0.3173
19277THY    HP662701   2.937   4.767   6.899  0.2690  0.0732 -2.5665
19277THY    HP762702   3.050   4.857   6.797 -0.5490  0.5927 -0.3037
19277THY    CA362703   2.744   4.898   6.747 -0.3453  0.0703 -0.7569
19277THY    HA362704   2.734   4.871   6.852 -1.2844  0.2400  0.1612
19277THY    CA462705   2.652   4.991   6.697 -0.4239  0.0975  0.3502
19277THY    HA462706   2.583   5.045   6.761 -1.6349 -1.4172  0.6370
19277THY    CA562707   2.641   5.028   6.560 -0.8017 -0.4023 -0.6163
19277THY    CM162708   2.531   5.124   6.514  0.2366  0.3253  0.0333
19277THY    HM162709   2.563   5.228   6.522  1.9303 -0.5646 -0.3791
19277THY    HM262710   2.444   5.101   6.577  0.1437 -0.4032 -1.7818
19277THY    HM362711   2.509   5.105   6.408  0.4786  0.1859  0.5269
19277THY    CA662712   2.726   4.979   6.473  0.5947  0.7298  0.3713
19277THY    HA662713   2.718   5.000   6.367 -0.9613  0.6829 -0.3380
19278THY      O62714   2.442   3.372   7.287  0.1802 -0.0985 -0.3929
19278THY     HO62715   2.534   3.376   7.256 -0.4255 -1.9286  1.7762
19278THY    CA162716   2.379   3.336   7.168  0.7278 -0.7992 -0.5013
19278THY    CA262717   2.245   3.370   7.137 -0.1676 -0.4595  0.3531
19278THY    CP162718   2.162   3.454   7.237 -1.3275  0.5286  0.1564
19278THY    HP162719   2.194   3.424   7.337 -0.7536  0.4443  0.4727
19278THY    CP262720   2.016   3.417   7.229 -0.1100  0.1728 -0.6493
19278THY    HP262721   1.961   3.478   7.301  1.8230 -0.1883  1.6642
19278THY    HP362722   1.992   3.315   7.259 -2.2446  0.7597 -0.0236
19278THY    HP462723   1.974   3.411   7.128  0.8318 -0.2112 -0.9714
19278THY    CP362724   2.180   3.610   7.208 -0.4234  0.5630 -0.3055
19278THY    HP562725   2.280   3.643   7.239 -0.4740 -0.6804  1.1160
19278THY    HP662726   2.106   3.677   7.252 -1.7609 -1.7644 -0.1684
19278THY    HP762727   2.185   3.631   7.101 -1.3462  0.7259  0.8192
19278THY    CA362728   2.195   3.340   7.005  0.8914 -0.1025 -0.3899
19278THY    HA362729   2.093   3.361   6.976  0.7313  0.4491 -0.3909
19278THY    CA462730   2.284   3.282   6.911 -0.8791 -0.6816 -0.1730
19278THY    HA462731   2.265   3.273   6.805  2.8247 -1.4929  0.1137
19278THY    CA562732   2.410   3.240   6.951 -0.1225 -0.2065  0.1973
19278THY    CM162733   2.490   3.164   6.846 -0.0972 -0.1160  0.3356
19278THY    HM162734   2.482   3.220   6.752  0.7337 -0.6831 -0.4762
19278THY    HM262735   2.462   3.060   6.827  1.6395 -1.1008 -0.0020
19278THY    HM362736   2.593   3.175   6.883 -1.4353  4.0125  0.7092
19278THY    CA662737   2.455   3.263   7.080  0.2155 -0.1894  0.5667
19278THY    HA662738   2.546   3.219   7.120 -1.7295  0.9151 -2.8439
19279THY      O62739   0.485   1.385   7.055 -0.0422 -0.2650  0.4636
19279THY     HO62740   0.396   1.352   7.033 -1.9354  2.7068  3.0477
19279THY    CA162741   0.499   1.516   7.014  0.4990  0.5383  0.5543
19279THY    CA262742   0.621   1.584   6.996  0.1234  0.0905 -0.3362
19279THY    CP162743   0.749   1.516   7.045  0.8100 -0.0186 -0.8098
19279THY    HP162744   0.721   1.426   7.101  0.4419 -2.2649 -2.1707
19279THY    CP262745   0.818   1.605   7.151 -0.7886  0.3218  0.7563
19279THY    HP262746   0.745   1.628   7.229 -1.1531  1.1796 -2.8445
19279THY    HP362747   0.850   1.697   7.100 -0.9854 -0.4038  0.4294
19279THY    HP462748   0.902   1.559   7.203  0.1900 -2.1892 -0.5035
19279THY    CP362749   0.839   1.484   6.924  0.2737 -0.1403  0.7294
19279THY    HP562750   0.872   1.572   6.868  1.2530 -0.5960  0.0973
19279THY    HP662751   0.784   1.422   6.853 -1.0999  0.6989  0.9550
19279THY    HP762752   0.933   1.435   6.955  1.2409  0.7401  2.9972
19279THY    CA362753   0.620   1.711   6.933 -0.3993  0.3151  0.0045
19279THY    HA362754   0.714   1.765   6.926 -0.1608  1.0975 -0.2901
19279THY    CA462755   0.496   1.750   6.873  0.2344  0.2572 -0.2835
19279THY    HA462756   0.491   1.846   6.824  1.2836 -0.7840 -0.7412
19279THY    CA562757   0.377   1.683   6.897  0.0529  0.1806 -0.5567
19279THY    CM162758   0.248   1.731   6.845 -0.4164  0.4169 -0.4142
19279THY    HM162759   0.232   1.697   6.742 -0.2774  0.2976 -0.1219
19279THY    HM262760   0.248   1.841   6.852 -0.4656  3.0223 -0.5291
19279THY    HM362761   0.161   1.688   6.897 -2.4770 -1.3073  1.3780
19279THY    CA662762   0.376   1.571   6.976  0.6731 -0.2129 -0.3979
19279THY    HA662763   0.286   1.511   6.985 -0.6163  1.8227  1.6705
19280THY      O62764   6.916   0.773   5.334 -0.3888 -0.8157  0.1643
19280THY     HO62765   6.885   0.721   5.410 -0.7704  0.0230  1.5767
19280THY    CA162766   6.958   0.876   5.397  0.3479 -0.1949 -0.6892
19280THY    CA262767   6.953   1.008   5.347  0.2669 -0.1984  0.1116
19280THY    CP162768   6.902   1.027   5.209  0.1826  0.2939  0.0552
19280THY    HP162769   6.914   0.937   5.148 -0.4148 -0.3518  0.4098
19280THY    CP262770   6.971   1.138   5.134  0.6323 -0.1234 -0.0843
19280THY    HP262771   6.952   1.119   5.028 -1.8111  0.2947 -0.2685
19280THY    HP362772   7.079   1.142   5.154  0.6308 -0.2835  1.9830
19280THY    HP462773   6.935   1.240   5.156 -0.7589 -0.6421 -0.4469
19280THY    CP362774   6.749   1.039   5.214  0.3192 -0.4610 -0.5393
19280THY    HP562775   6.704   0.945   5.247 -0.9688 -3.3431 -1.0430
19280THY    HP662776   6.703   1.066   5.118 -1.2907  0.8389  1.6725
19280THY    HP762777   6.721   1.123   5.279  3.0398 -1.1369  1.0148
19280THY    CA362778   7.008   1.116   5.420 -0.2883 -0.5626 -0.2336
19280THY    HA362779   7.006   1.220   5.387 -1.6843 -0.4514 -0.1995
19280THY    CA462780   7.070   1.093   5.546 -0.3101  0.0045  0.7468
19280THY    HA462781   7.110   1.176   5.603  0.2897  0.1889  0.3370
19280THY    CA562782   7.087   0.956   5.594  0.2633  0.5575 -0.4897
19280THY    CM162783   7.174   0.920   5.704 -0.3384 -0.4336 -0.3891
19280THY    HM162784   7.127   0.837   5.757 -2.0877 -2.1945 -0.5865
19280THY    HM262785   7.200   1.000   5.775  0.9725 -0.4830 -0.7435
19280THY    HM362786   7.267   0.879   5.664 -0.5568 -0.8931 -0.4365
19280THY    CA662787   7.027   0.855   5.517  0.5531 -0.1799  0.5094
19280THY    HA662788   7.035   0.754   5.556 -1.1935 -1.6853 -0.2669
19281THY      O62789   1.686   5.140   7.703 -0.8399 -0.3796  0.1164
19281THY     HO62790   1.691   5.061   7.646 -1.1346 -0.4519  0.1496
19281THY    CA162791   1.578   5.106   7.773  0.5705 -0.4717 -0.1256
19281THY    CA262792   1.505   5.192   7.865 -0.2385 -0.4333  0.3583
19281THY    CP162793   1.541   5.344   7.860  0.6936  0.3759  0.0307
19281THY    HP162794   1.619   5.353   7.784  0.7157  0.3337 -0.5075
19281THY    CP262795   1.582   5.394   7.998 -0.2003 -0.1447 -0.3217
19281THY    HP262796   1.651   5.479   7.992 -0.7570 -0.8756  0.0859
19281THY    HP362797   1.636   5.314   8.050 -0.2586  1.1972  0.4803
19281THY    HP462798   1.494   5.421   8.058 -0.5048  0.5930 -2.7284
19281THY    CP362799   1.433   5.427   7.804 -0.3608 -0.6205  0.2094
19281THY    HP562800   1.341   5.406   7.860 -0.3126 -0.0893  1.3329
19281THY    HP662801   1.412   5.406   7.698 -2.0139  0.1336 -2.3905
19281THY    HP762802   1.454   5.534   7.816 -1.1472  0.5835  0.2477
19281THY    CA362803   1.411   5.138   7.957  1.1879  0.1712 -0.7156
19281THY    HA362804   1.369   5.204   8.033  0.2635 -0.7810 -0.1747
19281THY    CA462805   1.372   5.007   7.931  0.0022 -0.6012 -0.3718
19281THY    HA462806   1.293   4.964   7.991  0.5879 -0.6619 -1.5564
19281THY    CA562807   1.440   4.922   7.846  0.1127 -0.4966 -0.9538
19281THY    CM162808   1.389   4.784   7.825  0.6429  0.4812  1.1990
19281THY    HM162809   1.422   4.739   7.731  0.7381  1.0380  0.0799
19281THY    HM262810   1.280   4.771   7.824  0.8332  0.1740 -0.7032
19281THY    HM362811   1.431   4.726   7.908 -1.1235  0.9991  0.5801
19281THY    CA662812   1.550   4.972   7.774  0.7192  0.4964  0.3011
19281THY    HA662813   1.600   4.901   7.708 -0.4183 -0.1636  0.0890
19282THY      O62814   3.262   5.691   6.652  0.3564 -0.0429  0.1199
19282THY     HO62815   3.211   5.619   6.611  0.8772 -1.1987  0.3901
19282THY    CA162816   3.393   5.676   6.617  1.0265  0.4236 -0.0448
19282THY    CA262817   3.484   5.785   6.635  0.7376  0.5781 -0.6353
19282THY    CP162818   3.429   5.928   6.667  0.2953  0.3050  0.2399
19282THY    HP162819   3.327   5.928   6.707 -1.9338 -4.6123  1.3166
19282THY    CP262820   3.422   5.997   6.533 -0.9020 -0.1681  0.5583
19282THY    HP262821   3.414   6.107   6.537  0.1645 -1.5651  0.7207
19282THY    HP362822   3.342   5.946   6.477  0.3338 -0.8157 -0.7257
19282THY    HP462823   3.517   5.979   6.482 -1.0485  0.1422 -1.2941
19282THY    CP362824   3.522   6.012   6.765 -0.2993 -0.1465 -0.0147
19282THY    HP562825   3.489   6.116   6.771 -0.6623 -3.7611  0.2238
19282THY    HP662826   3.627   6.009   6.734 -0.1389  0.0729  1.9415
19282THY    HP762827   3.521   5.961   6.862 -0.5943  0.7600  1.6491
19282THY    CA362828   3.618   5.758   6.608 -0.8347 -0.3790  0.2610
19282THY    HA362829   3.689   5.839   6.620 -1.4336  0.6270  0.6561
19282THY    CA462830   3.657   5.628   6.567 -0.1148  0.5324 -0.7908
19282THY    HA462831   3.760   5.606   6.541 -0.1833 -1.4303  0.8897
19282THY    CA562832   3.570   5.519   6.556 -0.0234 -0.6038 -0.8277
19282THY    CM162833   3.620   5.382   6.524  0.1686 -0.1941 -0.5808
19282THY    HM162834   3.727   5.374   6.502  0.6163  2.0008 -1.2246
19282THY    HM262835   3.576   5.342   6.432  0.9380  0.3345 -2.7719
19282THY    HM362836   3.606   5.318   6.611  1.4177 -0.5051 -1.2967
19282THY    CA662837   3.438   5.545   6.580 -0.7648  0.2055  0.0871
19282THY    HA662838   3.367   5.463   6.576 -0.3000  1.3514 -0.4038
19283THY      O62839   4.147   1.516   2.324 -0.3915  0.5470 -0.1349
19283THY     HO62840   4.108   1.469   2.248  2.1868 -2.6598  2.4276
19283THY    CA162841   4.038   1.589   2.360  0.2044  0.5016  0.4846
19283THY    CA262842   4.008   1.636   2.491  0.2612  0.4161  0.7272
19283THY    CP162843   4.101   1.629   2.609  0.8610  0.2282  0.6221
19283THY    HP162844   4.197   1.599   2.566  0.0162 -0.0526 -1.9733
19283THY    CP262845   4.056   1.522   2.720 -0.2046 -0.2920  0.0205
19283THY    HP262846   3.995   1.440   2.680 -1.1552  0.2580  0.4395
19283THY    HP362847   3.992   1.576   2.792  0.8052  0.3147  0.4404
19283THY    HP462848   4.141   1.472   2.766 -0.5298 -0.5168 -0.7472
19283THY    CP362849   4.130   1.760   2.686 -0.5126  0.2799  0.3226
19283THY    HP562850   4.176   1.831   2.616  1.9570  1.3544 -0.0872
19283THY    HP662851   4.200   1.738   2.768 -0.9978  0.2493 -1.5408
19283THY    HP762852   4.043   1.806   2.733 -1.8898  0.8377 -2.6112
19283THY    CA362853   3.883   1.690   2.505 -0.0058 -0.6298 -0.0117
19283THY    HA362854   3.866   1.730   2.604  1.3247 -0.6455  0.6783
19283THY    CA462855   3.794   1.703   2.400  0.0199  0.6489  0.1411
19283THY    HA462856   3.700   1.754   2.421  0.3503 -0.2311  1.1692
19283THY    CA562857   3.832   1.664   2.269 -0.3489 -0.3198 -0.5039
19283THY    CM162858   3.732   1.692   2.156 -0.6991  0.2478 -0.6070
19283THY    HM162859   3.673   1.601   2.140 -1.1804 -0.6816 -0.1407
19283THY    HM262860   3.783   1.708   2.060 -0.3602  0.2443 -1.6069
19283THY    HM362861   3.670   1.779   2.177  1.9684  1.2654  1.1771
19283THY    CA662862   3.954   1.601   2.253  0.5204  0.2386  0.0633
19283THY    HA662863   3.985   1.573   2.152  2.1955 -0.1102  2.8008
19284THY      O62864   3.688   8.807   7.178 -0.1203 -0.5288 -0.3189
19284THY     HO62865   3.705   8.845   7.266 -1.0351 -0.8018  0.7933
19284THY    CA162866   3.619   8.908   7.124 -0.3305 -0.3346  0.4284
19284THY    CA262867   3.568   8.901   6.993  0.1804 -0.2525  0.0156
19284THY    CP162868   3.604   8.776   6.899  0.3066  0.1410  0.1239
19284THY    HP162869   3.702   8.736   6.929  0.8771 -2.2177 -0.4411
19284THY    CP262870   3.610   8.819   6.744  0.2279  0.1085  0.1831
19284THY    HP262871   3.673   8.907   6.728 -1.0054 -3.0271  0.6221
19284THY    HP362872   3.508   8.833   6.706 -0.4657  1.2734 -1.3295
19284THY    HP462873   3.654   8.738   6.685  0.4848  1.5353 -0.7455
19284THY    CP362874   3.494   8.659   6.909  0.0212 -0.0183 -0.5554
19284THY    HP562875   3.538   8.565   6.873  1.1896 -2.6616  0.8985
19284THY    HP662876   3.399   8.682   6.860 -0.6792  2.3433  2.1688
19284THY    HP762877   3.471   8.643   7.015 -2.0269 -0.1358  1.2370
19284THY    CA362878   3.496   9.012   6.941  0.3780  0.3683  0.5877
19284THY    HA362879   3.445   9.013   6.845  0.8204  0.1363  1.1606
19284THY    CA462880   3.468   9.118   7.025  0.3376  0.8529  0.3231
19284THY    HA462881   3.404   9.201   6.994 -1.4223  1.8065 -0.6059
19284THY    CA562882   3.522   9.130   7.152 -0.6454 -0.3172 -0.1340
19284THY    CM162883   3.491   9.251   7.244  0.1240 -0.0117  0.3217
19284THY    HM162884   3.442   9.324   7.178  0.1235  1.5719  1.8146
19284THY    HM262885   3.582   9.288   7.290  1.1597 -3.0270  1.8696
19284THY    HM362886   3.416   9.210   7.312  0.8272  0.3732 -0.3520
19284THY    CA662887   3.599   9.023   7.201 -0.1453  0.5310 -0.0260
19284THY    HA662888   3.641   9.029   7.301  1.5188 -0.0785 -0.9299
19285THY      O62889   2.354   3.250   1.969  0.2160  0.3594 -0.0081
19285THY     HO62890   2.287   3.320   1.978  1.0989 -1.0959  1.1164
19285THY    CA162891   2.284   3.138   1.945 -0.2947  0.4548  1.1280
19285THY    CA262892   2.343   3.011   1.946 -0.4403  0.0365 -0.3673
19285THY    CP162893   2.503   2.997   1.960 -0.0460  0.3647  0.0157
19285THY    HP162894   2.547   3.097   1.969  1.5400  0.3382 -0.6416
19285THY    CP262895   2.562   2.924   1.835 -0.3337 -0.0752  0.6039
19285THY    HP262896   2.671   2.933   1.835 -0.2872 -0.0145  0.0612
19285THY    HP362897   2.519   2.965   1.743 -0.0202 -0.0163  1.0857
19285THY    HP462898   2.535   2.819   1.845  0.5716  2.2145  0.5127
19285THY    CP362899   2.538   2.931   2.086  0.5644  0.0298 -0.3668
19285THY    HP562900   2.506   2.983   2.178  2.1309  0.4650 -0.1294
19285THY    HP662901   2.647   2.924   2.092  0.7745 -1.9919  0.5848
19285THY    HP762902   2.493   2.831   2.085  0.6558 -1.9557 -0.4224
19285THY    CA362903   2.256   2.903   1.922 -0.5825  0.0336  0.1290
19285THY    HA362904   2.288   2.799   1.929 -1.8834  1.8293 -0.2111
19285THY    CA462905   2.118   2.923   1.910  0.0317 -0.2929  0.0171
19285THY    HA462906   2.052   2.837   1.912  0.5049  0.5310 -0.3420
19285THY    CA562907   2.066   3.051   1.907  0.3497 -0.2729 -0.6208
19285THY    CM162908   1.919   3.069   1.915  0.4750  0.4001 -0.6879
19285THY    HM162909   1.882   3.165   1.954 -0.9515 -1.4356 -0.4388
19285THY    HM262910   1.863   2.991   1.969 -2.8830 -0.6626  0.7908
19285THY    HM362911   1.876   3.058   1.815  0.7494  0.3160 -1.0165
19285THY    CA662912   2.148   3.162   1.926 -0.1027  0.2791  0.1923
19285THY    HA662913   2.110   3.263   1.935 -1.8621  0.4428 -0.4444
19286THY      O62914   7.768   5.213   3.967  0.2722  0.3332 -0.1233
19286THY     HO62915   7.716   5.131   3.968 -2.7542 -3.0036  1.4849
19286THY    CA162916   7.773   5.242   3.838 -0.0983 -0.0025  0.3800
19286THY    CA262917   7.795   5.376   3.791  0.3795 -0.1483 -0.7291
19286THY    CP162918   7.819   5.493   3.889  0.2705  0.1839  0.2417
19286THY    HP162919   7.835   5.459   3.992 -1.6260  0.0337 -1.2368
19286THY    CP262920   7.702   5.599   3.891  0.2324  0.4352  0.4458
19286THY    HP262921   7.732   5.682   3.956  0.8908  0.5124  0.1543
19286THY    HP362922   7.604   5.562   3.923  0.0708  0.3049  0.7623
19286THY    HP462923   7.687   5.641   3.791 -1.6025  1.1156  1.5354
19286THY    CP362924   7.953   5.564   3.862  0.4849 -0.0218  0.0624
19286THY    HP562925   8.025   5.481   3.867 -1.5701  0.7859 -1.7574
19286THY    HP662926   7.982   5.648   3.926  1.6451 -0.9409  0.3883
19286THY    HP762927   7.950   5.601   3.759 -3.4947  0.5108  1.6554
19286THY    CA362928   7.795   5.399   3.655 -0.6253 -0.6196  0.2736
19286THY    HA362929   7.805   5.503   3.625  0.4195 -3.6982 -0.6118
19286THY    CA462930   7.783   5.287   3.564 -0.2089  0.1436 -0.0413
19286THY    HA462931   7.773   5.312   3.458 -2.2257  0.3793  0.3196
19286THY    CA562932   7.769   5.159   3.613  0.2896 -0.1795  0.1026
19286THY    CM162933   7.772   5.054   3.505 -0.0039  0.7570 -0.4094
19286THY    HM162934   7.877   5.053   3.471 -0.5798 -1.0957 -0.3014
19286THY    HM262935   7.708   5.076   3.420  0.2279 -0.2944 -3.3139
19286THY    HM362936   7.755   4.951   3.538  0.8442  1.7855 -0.2493
19286THY    CA662937   7.769   5.134   3.750 -0.1416 -0.4452 -0.3052
19286THY    HA662938   7.772   5.031   3.784  0.5480 -0.4848 -0.3029
19287THY      O62939   8.500   1.022   1.558  0.1063 -0.1579 -0.2245
19287THY     HO62940   8.457   0.936   1.571 -2.1477 -3.4787  0.1741
19287THY    CA162941   8.423   1.122   1.622  0.7429  0.9396  0.3722
19287THY    CA262942   8.480   1.244   1.653  0.4882 -0.9551  0.0144
19287THY    CP162943   8.618   1.285   1.598  0.0482 -0.2209 -0.6381
19287THY    HP162944   8.630   1.237   1.500  3.1851  0.0763 -0.6811
19287THY    CP262945   8.725   1.237   1.694  0.1939 -0.0118 -0.4597
19287THY    HP262946   8.824   1.279   1.673 -0.0622 -0.1206  0.1012
19287THY    HP362947   8.742   1.129   1.682  0.0630 -2.1516 -0.2909
19287THY    HP462948   8.701   1.262   1.798  1.1757  1.0523 -3.4728
19287THY    CP362949   8.629   1.434   1.573 -0.4161  0.0390 -0.1012
19287THY    HP562950   8.636   1.497   1.663  0.0659 -1.5849  2.3221
19287THY    HP662951   8.541   1.468   1.518 -0.5362 -0.3582 -1.0307
19287THY    HP762952   8.722   1.454   1.517  0.2133  1.3321  0.7442
19287THY    CA362953   8.415   1.330   1.748  0.2109 -0.0634 -0.1693
19287THY    HA362954   8.464   1.420   1.784  1.2493 -0.7348 -0.4454
19287THY    CA462955   8.287   1.304   1.793  0.5114 -0.0929  1.5689
19287THY    HA462956   8.240   1.378   1.856 -0.7064  0.4348  0.4007
19287THY    CA562957   8.229   1.181   1.759  0.0362 -0.0873 -0.1881
19287THY    CM162958   8.093   1.148   1.808  0.1816 -0.2515 -0.9331
19287THY    HM162959   8.088   1.143   1.917 -1.0988 -0.2247  0.3160
19287THY    HM262960   8.064   1.048   1.775 -0.9889 -1.3069 -0.2731
19287THY    HM362961   8.012   1.212   1.770  0.3696  0.6180 -0.1522
19287THY    CA662962   8.296   1.082   1.676  0.2002  1.2185 -0.0951
19287THY    HA662963   8.249   0.985   1.659  1.2009  1.7389 -0.6841
19288THY      O62964   3.126   5.475   6.491 -0.4141  0.0386 -0.5319
19288THY     HO62965   3.124   5.468   6.394 -3.2877 -0.1475  1.1229
19288THY    CA162966   3.118   5.346   6.531  0.0706 -0.1948 -0.2006
19288THY    CA262967   3.027   5.293   6.627 -0.7801 -0.2186  0.8868
19288THY    CP162968   2.929   5.383   6.703  0.4951 -0.3096  0.7050
19288THY    HP162969   2.912   5.469   6.637  0.2396  0.4262  1.2266
19288THY    CP262970   2.986   5.438   6.830 -1.2957 -0.0939  0.0788
19288THY    HP262971   3.071   5.505   6.811 -1.7192 -1.6286  0.2273
19288THY    HP362972   3.029   5.352   6.883 -1.5080 -1.2584 -0.7617
19288THY    HP462973   2.914   5.491   6.893  1.0125  1.5551  1.4416
19288THY    CP362974   2.797   5.315   6.728 -0.7955  0.3042 -0.2546
19288THY    HP562975   2.729   5.400   6.745  0.6290 -3.2772  1.8611
19288THY    HP662976   2.793   5.242   6.809 -0.4216  1.7785  1.2914
19288THY    HP762977   2.765   5.266   6.636 -2.7966  0.1960  1.1096
19288THY    CA362978   3.028   5.153   6.647  0.3119  0.6099  0.5630
19288THY    HA362979   2.953   5.104   6.709  0.1335 -1.8809 -2.6601
19288THY    CA462980   3.123   5.075   6.581 -0.3456 -0.1514  0.8062
19288THY    HA462981   3.136   4.969   6.602 -0.0122  0.6137  0.9839
19288THY    CA562982   3.209   5.122   6.490 -0.5647 -0.1114 -0.1249
19288THY    CM162983   3.310   5.039   6.420 -0.0251 -0.1910 -0.4246
19288THY    HM162984   3.358   4.975   6.494  1.2456 -0.4737  0.1678
19288THY    HM262985   3.377   5.096   6.355  1.8199  2.2159  0.2982
19288THY    HM362986   3.262   4.980   6.340 -0.5451 -0.0783 -0.1591
19288THY    CA662987   3.194   5.262   6.456  0.2268 -0.4006  0.5419
19288THY    HA662988   3.261   5.308   6.383  1.6934  1.2440  1.1451
19289THY      O62989   3.954   4.835   6.127  0.2997 -0.7350 -0.8785
19289THY     HO62990   4.045   4.862   6.108  0.8520  2.2811 -0.3074
19289THY    CA162991   3.864   4.922   6.055 -0.0935 -0.5173  1.0903
19289THY    CA262992   3.725   4.905   6.053 -0.3026 -0.8412  0.0564
19289THY    CP162993   3.653   4.795   6.137 -0.4759 -0.2424 -0.1913
19289THY    HP162994   3.724   4.711   6.132  0.4982 -0.1693  0.6184
19289THY    CP262995   3.524   4.743   6.076  0.3801  0.4690  0.4181
19289THY    HP262996   3.476   4.661   6.132 -0.6739 -0.5253  0.3394
19289THY    HP362997   3.535   4.708   5.973 -1.3963 -0.0003  1.1568
19289THY    HP462998   3.445   4.819   6.075  0.3352  0.5391  0.3724
19289THY    CP362999   3.629   4.849   6.282 -0.3349  0.7277  0.1325
19289THY    HP563000   3.725   4.867   6.333 -0.3403  0.4785  0.8744
19289THY    HP663001   3.571   4.770   6.331  3.7245  1.7406 -2.5635
19289THY    HP763002   3.568   4.940   6.278 -0.2289  0.9008  0.2118
19289THY    CA363003   3.642   4.981   5.970  0.3877 -0.9114 -0.6092
19289THY    HA363004   3.534   4.973   5.963  0.2632  0.1531  0.0059
19289THY    CA463005   3.715   5.075   5.897 -0.3129 -0.0898  0.3472
19289THY    HA463006   3.657   5.136   5.828  0.4031 -1.9717 -1.0100
19289THY    CA563007   3.854   5.090   5.900  0.2020  0.3480 -0.1783
19289THY    CM163008   3.920   5.209   5.830 -0.1815 -0.5262  0.5784
19289THY    HM163009   3.845   5.285   5.805  0.0001 -4.3121 -0.3041
19289THY    HM263010   3.973   5.174   5.740 -1.1022 -1.1543  0.7729
19289THY    HM363011   4.000   5.253   5.892 -1.3268  2.2978 -1.0904
19289THY    CA663012   3.933   5.015   5.979 -0.2466 -0.1763  0.9727
19289THY    HA663013   4.041   5.022   5.979 -0.1888 -0.7223  0.1942
19290THY      O63014   6.637   4.740   6.053  0.1668  0.3327 -0.4786
19290THY     HO63015   6.551   4.757   6.094  0.6317  1.6898 -1.2239
19290THY    CA163016   6.640   4.751   5.912  0.5141 -1.0163 -0.2252
19290THY    CA263017   6.762   4.752   5.838  0.2786 -0.1521 -0.4633
19290THY    CP163018   6.902   4.751   5.906 -0.3339 -0.0739 -0.6055
19290THY    HP163019   6.866   4.746   6.010 -0.0979 -0.0202 -1.3150
19290THY    CP263020   6.964   4.885   5.860  0.5598  0.1198 -0.1750
19290THY    HP263021   6.987   4.884   5.753  0.0848  0.0190 -1.3666
19290THY    HP363022   7.050   4.898   5.927 -0.0019  1.1530 -1.4865
19290THY    HP463023   6.897   4.968   5.885  1.4669  0.6983  0.4105
19290THY    CP363024   6.982   4.633   5.853  0.1419  0.3143  0.5862
19290THY    HP563025   7.072   4.617   5.915 -1.1227  2.1475  0.2210
19290THY    HP663026   7.013   4.648   5.749 -2.9461 -1.0835 -1.7046
19290THY    HP763027   6.928   4.538   5.841 -0.6283 -1.6540  1.2352
19290THY    CA363028   6.753   4.759   5.694 -0.0792 -0.2174 -0.2475
19290THY    HA363029   6.839   4.754   5.629 -0.4336 -0.7912  0.7401
19290THY    CA463030   6.621   4.768   5.634 -0.1126  0.7364  0.6699
19290THY    HA463031   6.608   4.776   5.527 -0.7503  0.5845 -1.5762
19290THY    CA563032   6.504   4.783   5.713  0.3609  0.3573  0.2489
19290THY    CM163033   6.370   4.794   5.650  0.0324 -0.6932  0.1229
19290THY    HM163034   6.371   4.866   5.567  0.6585  0.1499  1.1128
19290THY    HM263035   6.291   4.811   5.725  1.1659  1.3979 -2.9890
19290THY    HM363036   6.362   4.692   5.610  0.3395 -0.7420  0.1184
19290THY    CA663037   6.519   4.771   5.849  0.2458 -0.3742  0.0758
19290THY    HA663038   6.428   4.765   5.909 -1.0974 -2.3391 -0.2355
19291THY      O63039   5.665   6.217   5.958 -0.1723  0.7939  0.0229
19291THY     HO63040   5.616   6.148   6.005  0.7978  1.5222 -0.1971
19291THY    CA163041   5.644   6.211   5.820 -0.3038 -0.1649 -0.3281
19291THY    CA263042   5.703   6.303   5.733 -0.0843 -0.3753 -0.0148
19291THY    CP163043   5.782   6.420   5.794  0.5124 -0.0610  0.5378
19291THY    HP163044   5.751   6.449   5.896  1.9627  0.3219  0.7936
19291THY    CP263045   5.767   6.558   5.719 -0.0354 -0.1768  0.3040
19291THY    HP263046   5.660   6.576   5.703 -0.3471  0.4875 -0.8611
19291THY    HP363047   5.816   6.538   5.623  0.6184  0.4810 -1.4720
19291THY    HP463048   5.807   6.644   5.773  1.8494 -0.4956 -0.3351
19291THY    CP363049   5.930   6.380   5.813  0.5300 -0.1308 -0.6509
19291THY    HP563050   5.947   6.288   5.871 -0.6168 -1.6022 -1.8335
19291THY    HP663051   5.979   6.466   5.860  2.2027 -1.2041 -0.9820
19291THY    HP763052   5.981   6.355   5.720  1.0260 -0.2326  0.6570
19291THY    CA363053   5.670   6.291   5.594 -0.1113 -0.7398 -0.1839
19291THY    HA363054   5.703   6.366   5.523 -0.6444 -1.0497 -0.2378
19291THY    CA463055   5.596   6.191   5.543  0.0275 -0.5186  0.1055
19291THY    HA463056   5.583   6.181   5.436  0.4956 -0.6133  0.5000
19291THY    CA563057   5.532   6.107   5.635 -0.1225 -0.8648  0.3890
19291THY    CM163058   5.428   6.007   5.586 -0.0056  0.1498  0.7124
19291THY    HM163059   5.369   5.969   5.670 -1.4199 -1.6486 -1.3959
19291THY    HM263060   5.479   5.920   5.543 -0.1043 -0.1100  0.7786
19291THY    HM363061   5.349   6.042   5.518 -1.2105  0.5785 -1.0074
19291THY    CA663062   5.542   6.129   5.774  0.0414 -0.2255  0.2090
19291THY    HA663063   5.474   6.083   5.844 -0.1151  1.1394  2.3651
19292THY      O63064   3.383   7.537   5.532 -0.5333 -0.2677  0.7749
19292THY     HO63065   3.361   7.626   5.501 -0.6200  0.7986  1.1389
19292THY    CA163066   3.449   7.476   5.430 -0.1736 -0.2344 -0.2031
19292THY    CA263067   3.480   7.339   5.432 -0.1525  0.2999 -0.4461
19292THY    CP163068   3.430   7.246   5.544 -0.4088  0.2253 -0.0929
19292THY    HP163069   3.372   7.311   5.611 -1.5402  0.9171 -1.7395
19292THY    CP263070   3.538   7.177   5.613 -1.2957  0.5535 -0.6325
19292THY    HP263071   3.616   7.251   5.635  0.5038 -0.9666 -1.9695
19292THY    HP363072   3.580   7.109   5.537  0.8575 -0.4294  1.6617
19292THY    HP463073   3.504   7.117   5.699 -1.3791  1.0953  0.1780
19292THY    CP363074   3.328   7.144   5.491 -0.3513  0.3970 -0.4331
19292THY    HP563075   3.297   7.075   5.570 -0.3299  0.3139 -0.5382
19292THY    HP663076   3.372   7.085   5.410 -0.3351  1.1020 -1.4176
19292THY    HP763077   3.245   7.202   5.449  1.3831 -3.2089 -0.2909
19292THY    CA363078   3.549   7.285   5.319 -0.6294 -0.2952  0.2028
19292THY    HA363079   3.582   7.181   5.316  1.8251  1.5420  0.8274
19292THY    CA463080   3.591   7.373   5.216 -0.6290  0.1335 -0.4117
19292THY    HA463081   3.655   7.338   5.135  0.7913 -0.0990  2.4451
19292THY    CA563082   3.565   7.509   5.219  0.1302  0.6999 -0.0655
19292THY    CM163083   3.610   7.600   5.114 -0.7731  0.3247  0.1815
19292THY    HM163084   3.529   7.669   5.089 -1.6551  2.7589  0.1460
19292THY    HM263085   3.667   7.557   5.031 -0.0234  0.9151  0.0090
19292THY    HM363086   3.689   7.661   5.160  0.1055 -0.0804 -0.6266
19292THY    CA663087   3.491   7.556   5.330 -0.2148 -0.4681  0.6848
19292THY    HA663088   3.457   7.659   5.336 -2.5189  1.3797 -0.0955
19293THY      O63089   4.483   8.174   2.289  0.1856 -0.6290 -0.2274
19293THY     HO63090   4.508   8.135   2.374 -0.1533  1.4574  3.5673
19293THY    CA163091   4.550   8.290   2.285  0.0456 -0.1638 -0.2947
19293THY    CA263092   4.515   8.396   2.199  0.1154  0.4936  0.3511
19293THY    CP163093   4.391   8.371   2.115  0.0041  0.1778 -0.5278
19293THY    HP163094   4.309   8.332   2.177  0.0958  0.7032  0.1028
19293THY    CP263095   4.411   8.265   2.005 -0.0273  0.3613  0.5085
19293THY    HP263096   4.483   8.300   1.931  0.2283 -0.0586 -0.8568
19293THY    HP363097   4.321   8.248   1.945  0.3477 -0.8849  2.5792
19293THY    HP463098   4.445   8.169   2.046 -0.8532 -1.1678 -0.4665
19293THY    CP363099   4.324   8.504   2.068  0.3319  0.0500  0.0824
19293THY    HP563100   4.380   8.573   2.004 -1.2365 -0.3312  1.0589
19293THY    HP663101   4.286   8.572   2.145  0.6443  1.6874 -1.5217
19293THY    HP763102   4.235   8.469   2.015  0.7834 -0.5955 -0.1181
19293THY    CA363103   4.601   8.508   2.184  0.4616  0.1356 -0.6714
19293THY    HA363104   4.591   8.582   2.106  1.2147  0.7246  0.0782
19293THY    CA463105   4.721   8.511   2.268  0.6508 -0.3970 -0.5245
19293THY    HA463106   4.785   8.599   2.267 -0.4166  0.6615  0.2807
19293THY    CA563107   4.755   8.405   2.349 -0.7245 -0.3046  0.5747
19293THY    CM163108   4.893   8.406   2.412  1.1931  0.2902 -0.4690
19293THY    HM163109   4.912   8.326   2.485 -0.7264  1.6335  0.2277
19293THY    HM263110   4.917   8.501   2.460 -0.4620 -1.6853  1.0270
19293THY    HM363111   4.969   8.402   2.333  0.8313 -0.0250 -1.5748
19293THY    CA663112   4.679   8.288   2.345 -0.8916  0.2143  0.0262
19293THY    HA663113   4.693   8.201   2.408 -3.0628 -0.8815 -1.2085
19294THY      O63114   0.479   2.897   6.612  0.3745  0.1318 -0.0369
19294THY     HO63115   0.537   2.920   6.687  0.8846 -0.6945  1.5328
19294THY    CA163116   0.508   2.769   6.589  0.6068  0.8106  0.1945
19294THY    CA263117   0.524   2.702   6.469 -0.0141  1.3532  0.0125
19294THY    CP163118   0.499   2.775   6.339 -0.6549  0.3282 -0.8338
19294THY    HP163119   0.408   2.833   6.356 -1.0446  1.7284 -1.7962
19294THY    CP263120   0.460   2.687   6.217  0.5222 -0.6017  0.4144
19294THY    HP263121   0.366   2.632   6.236  1.0091  1.1711  0.1339
19294THY    HP363122   0.537   2.612   6.199 -0.3387  1.3090 -1.0145
19294THY    HP463123   0.444   2.751   6.129  1.6268  0.1992  1.8354
19294THY    CP363124   0.611   2.874   6.306  0.0207 -0.0728 -0.1790
19294THY    HP563125   0.593   2.940   6.221 -2.4583  0.7533  0.3203
19294THY    HP663126   0.707   2.822   6.291  1.4033 -0.9040  2.4333
19294THY    HP763127   0.623   2.939   6.393  0.8995  1.2938 -2.0603
19294THY    CA363128   0.564   2.569   6.475 -0.5393 -0.2133  0.2560
19294THY    HA363129   0.588   2.509   6.387  0.3559  0.4605 -0.4096
19294THY    CA463130   0.594   2.513   6.601 -0.4307 -0.0462 -0.3012
19294THY    HA463131   0.628   2.409   6.605 -0.0781  1.1784 -0.1569
19294THY    CA563132   0.565   2.577   6.719 -0.1697 -0.2103 -0.3398
19294THY    CM163133   0.568   2.493   6.843 -0.3015 -0.4748 -0.0055
19294THY    HM163134   0.490   2.526   6.913 -0.0025 -1.0930  2.1430
19294THY    HM263135   0.669   2.486   6.887 -0.3077 -0.2536  1.1300
19294THY    HM363136   0.538   2.389   6.826 -0.9339  0.3447  0.0287
19294THY    CA663137   0.513   2.706   6.709 -0.5412  0.2588  0.1691
19294THY    HA663138   0.482   2.756   6.800  2.3173  1.3164  0.2260
19295THY      O63139   4.308   5.505   3.338  0.5276 -0.2549  0.7294
19295THY     HO63140   4.395   5.461   3.339  1.3414 -0.6017  2.2573
19295THY    CA163141   4.221   5.399   3.333  0.2795  0.6328  0.1518
19295THY    CA263142   4.078   5.425   3.336 -0.1969 -0.2153  0.1851
19295THY    CP163143   4.024   5.566   3.343 -0.3256 -0.1918 -0.6296
19295THY    HP163144   4.093   5.639   3.387 -0.8055 -0.2201 -0.1518
19295THY    CP263145   3.905   5.590   3.421  0.3158  0.5698 -0.2505
19295THY    HP263146   3.935   5.611   3.525  0.7154  0.5917 -0.9031
19295THY    HP363147   3.827   5.513   3.432 -1.9826 -0.0425  1.8499
19295THY    HP463148   3.852   5.681   3.390 -1.7295  1.4701 -1.0835
19295THY    CP363149   3.997   5.608   3.198  0.3438  0.2835  0.3464
19295THY    HP563150   3.925   5.545   3.144 -1.2839 -0.0671  2.3959
19295THY    HP663151   4.087   5.606   3.137 -0.6833 -1.3183 -2.2814
19295THY    HP763152   3.971   5.714   3.190 -0.4408 -1.8054  0.0472
19295THY    CA363153   3.990   5.317   3.333  0.6003  0.1851 -0.0006
19295THY    HA363154   3.883   5.332   3.342  0.6762  0.0113  0.6670
19295THY    CA463155   4.048   5.187   3.320 -0.5471 -1.0974 -0.0779
19295THY    HA463156   3.988   5.097   3.327 -0.7736  1.4327  0.1910
19295THY    CA563157   4.184   5.162   3.321  1.0439  0.4834  0.2225
19295THY    CM163158   4.231   5.027   3.306 -0.1646 -0.4720  0.4799
19295THY    HM163159   4.340   5.023   3.314 -0.2605  1.0793  0.2191
19295THY    HM263160   4.197   4.980   3.213 -1.9254 -0.0914  0.9104
19295THY    HM363161   4.195   4.954   3.380  0.1354 -2.0651 -1.3615
19295THY    CA663162   4.276   5.268   3.328 -0.6235 -0.1126  0.4543
19295THY    HA663163   4.384   5.255   3.334 -0.4625  0.8268  1.9582
19296THY      O63164   5.955   4.019   1.959 -0.1753 -0.4155 -0.4347
19296THY     HO63165   5.884   4.029   1.894  1.0881 -1.8173 -0.3034
19296THY    CA163166   6.034   4.129   1.955 -0.5508  0.2232 -0.3310
19296THY    CA263167   6.149   4.135   2.033  1.0890 -0.5717 -0.4375
19296THY    CP163168   6.174   4.020   2.132 -0.3052  0.4928  0.3205
19296THY    HP163169   6.118   3.932   2.099  0.2346  0.8726 -0.1794
19296THY    CP263170   6.133   4.071   2.272 -0.0100 -0.3834 -0.3690
19296THY    HP263171   6.213   4.135   2.307 -0.6400 -0.3757  0.4254
19296THY    HP363172   6.110   3.989   2.341 -0.2824  1.4353  1.1817
19296THY    HP463173   6.043   4.131   2.251 -2.2447 -1.6139 -3.7868
19296THY    CP363174   6.322   3.986   2.154 -0.0394 -0.5190  0.0030
19296THY    HP563175   6.380   4.074   2.185 -2.3477  1.5098  0.8900
19296THY    HP663176   6.357   3.957   2.054  3.0506  0.0584  1.2216
19296THY    HP763177   6.328   3.907   2.229 -1.4711  0.3070  0.6511
19296THY    CA363178   6.225   4.250   2.021 -0.0741  0.3574 -0.1345
19296THY    HA363179   6.317   4.264   2.077  0.9445 -1.5042  0.9945
19296THY    CA463180   6.196   4.349   1.929 -0.6465  0.8995 -0.2270
19296THY    HA463181   6.270   4.426   1.912  0.1325  1.0154 -0.9379
19296THY    CA563182   6.084   4.335   1.847 -0.1526 -0.0591  0.3680
19296THY    CM163183   6.063   4.434   1.741 -0.1394 -0.3519 -0.2010
19296THY    HM163184   6.129   4.521   1.749  0.2133 -2.0776 -0.2775
19296THY    HM263185   5.959   4.468   1.734 -0.7762 -1.6407 -2.2802
19296THY    HM363186   6.107   4.391   1.650  1.3466 -0.5634  1.5944
19296THY    CA663187   5.999   4.222   1.863 -0.2023 -0.0203 -0.0385
19296THY    HA663188   5.912   4.203   1.800 -0.9943  1.7666 -3.0310
19297THY      O63189   0.860   6.033   4.491 -1.1033  0.0069  0.2093
19297THY     HO63190   0.764   6.016   4.485 -0.9465  0.5623 -0.9735
19297THY    CA163191   0.895   6.115   4.387 -0.3586 -0.0469 -0.7898
19297THY    CA263192   1.030   6.148   4.356  0.7380 -0.2364  0.6689
19297THY    CP163193   1.139   6.083   4.451 -0.0032 -0.2595 -0.6372
19297THY    HP163194   1.108   5.984   4.484  0.2188 -0.1655 -0.6750
19297THY    CP263195   1.171   6.177   4.565 -0.2857 -1.4410 -0.5469
19297THY    HP263196   1.269   6.165   4.610 -0.0018 -1.9030 -0.0436
19297THY    HP363197   1.110   6.163   4.654  0.9992 -0.3472  0.5098
19297THY    HP463198   1.175   6.283   4.535  1.2723 -1.3944 -0.5698
19297THY    CP363199   1.267   6.069   4.373 -0.0658  0.5622  0.3903
19297THY    HP563200   1.306   6.169   4.347  1.2724 -1.3399 -0.5637
19297THY    HP663201   1.250   6.016   4.278 -1.9085  0.6390  0.7722
19297THY    HP763202   1.349   6.014   4.419  1.3338 -1.5247  0.6022
19297THY    CA363203   1.063   6.231   4.251 -0.0914 -0.0839  0.6553
19297THY    HA363204   1.165   6.246   4.219 -0.8684 -1.7702  2.7824
19297THY    CA463205   0.957   6.280   4.166  0.2152 -0.1564  0.1059
19297THY    HA463206   0.978   6.340   4.078  3.2603 -0.0562 -0.6490
19297THY    CA563207   0.818   6.260   4.203  0.0537  0.1058  1.3659
19297THY    CM163208   0.703   6.310   4.121  0.6435  0.0476  0.0406
19297THY    HM163209   0.619   6.240   4.112 -0.2715  0.0473  1.0988
19297THY    HM263210   0.738   6.333   4.020  1.2036 -0.0481 -1.1787
19297THY    HM363211   0.664   6.400   4.170  5.3758 -0.8955  2.9269
19297THY    CA663212   0.791   6.182   4.314 -0.4608 -0.3499  0.2172
19297THY    HA663213   0.686   6.165   4.336 -1.3688 -2.2962  2.7207
19298THY      O63214   0.588   4.013   2.289 -0.7865 -0.2961 -0.2367
19298THY     HO63215   0.566   3.944   2.225 -0.3574 -1.5319  0.7509
19298THY    CA163216   0.698   4.071   2.230  0.0717 -0.2442 -0.6658
19298THY    CA263217   0.744   4.200   2.274 -0.4058  0.1184  0.3862
19298THY    CP163218   0.667   4.279   2.382 -0.0201 -0.4572 -0.5058
19298THY    HP163219   0.561   4.259   2.361 -0.5159  1.9939 -0.6546
19298THY    CP263220   0.690   4.433   2.385 -0.4194  0.2876 -0.3709
19298THY    HP263221   0.672   4.484   2.290 -0.9366  0.1432 -0.8084
19298THY    HP363222   0.795   4.460   2.400 -0.2160  0.6480 -1.3201
19298THY    HP463223   0.632   4.485   2.463 -4.0004 -1.9883 -0.5325
19298THY    CP363224   0.689   4.220   2.521 -0.4484 -0.4846  0.8868
19298THY    HP563225   0.639   4.283   2.595 -1.7141 -1.1234  0.6685
19298THY    HP663226   0.798   4.218   2.530 -0.0416 -3.9462 -1.7432
19298THY    HP763227   0.649   4.118   2.534  3.0810 -0.8737 -0.6785
19298THY    CA363228   0.858   4.249   2.212 -0.3033 -0.2237 -0.7402
19298THY    HA363229   0.898   4.348   2.232  1.6391  2.8702 -1.9927
19298THY    CA463230   0.921   4.180   2.108 -0.1922  0.4755 -0.3159
19298THY    HA463231   1.011   4.222   2.062 -0.9044 -0.3030  0.4024
19298THY    CA563232   0.870   4.051   2.063 -1.0444  0.3067  0.1426
19298THY    CM163233   0.941   3.984   1.954  0.3630  0.1234  1.3569
19298THY    HM163234   0.975   4.060   1.883 -1.7639 -0.9541  1.3963
19298THY    HM263235   0.872   3.922   1.895 -0.4760  3.8701 -1.6354
19298THY    HM363236   1.029   3.927   1.982 -1.2714  2.5153 -0.1808
19298THY    CA663237   0.760   3.998   2.127  1.0205 -0.7501 -0.2840
19298THY    HA663238   0.734   3.897   2.095 -1.2864  0.7437 -0.2195
19299THY      O63239   3.906   4.356   1.808  0.1857  0.3679 -0.3810
19299THY     HO63240   3.879   4.448   1.824 -0.1123  2.8790 -0.8494
19299THY    CA163241   3.965   4.340   1.928  1.1120  0.2371  0.5124
19299THY    CA263242   4.066   4.249   1.950 -0.1381 -0.1232 -1.1336
19299THY    CP163243   4.130   4.178   1.829 -0.5580 -0.3448 -0.5373
19299THY    HP163244   4.123   4.233   1.735  1.6376 -0.1050  0.2640
19299THY    CP263245   4.066   4.040   1.817 -0.2655 -0.1733 -0.7132
19299THY    HP263246   4.074   4.004   1.714  1.6142 -1.2918  2.4533
19299THY    HP363247   3.958   4.048   1.833 -0.4254 -0.5715 -1.8088
19299THY    HP463248   4.107   3.962   1.883  2.1826 -0.1422  0.4876
19299THY    CP363249   4.287   4.153   1.836  0.7805  0.0795 -0.3891
19299THY    HP563250   4.338   4.241   1.876  1.8351 -0.9963 -0.4871
19299THY    HP663251   4.327   4.135   1.735  2.4171  1.0489 -2.6918
19299THY    HP763252   4.304   4.071   1.907 -1.9051 -0.4581 -1.5221
19299THY    CA363253   4.116   4.234   2.076 -0.2600  0.0653 -0.1765
19299THY    HA363254   4.193   4.161   2.101  0.2580  0.1663  0.3906
19299THY    CA463255   4.071   4.314   2.181  0.2786 -0.3067  0.1022
19299THY    HA463256   4.113   4.307   2.280 -1.0098  0.2531  0.0142
19299THY    CA563257   3.975   4.416   2.161 -0.2717  0.3190  0.6934
19299THY    CM163258   3.922   4.508   2.258  0.4963 -0.7234 -0.4123
19299THY    HM163259   3.815   4.528   2.256  0.3706  0.4745 -0.8689
19299THY    HM263260   3.976   4.603   2.257 -1.0617  0.2066  0.5285
19299THY    HM363261   3.936   4.463   2.357 -0.2874 -0.5981 -0.3903
19299THY    CA663262   3.919   4.423   2.029  1.2185  0.0833 -0.1064
19299THY    HA663263   3.846   4.498   1.999  1.3640 -2.1508 -0.8016
19300THY      O63264   6.983   2.794   3.655  0.2848 -0.6268  0.4523
19300THY     HO63265   6.894   2.772   3.622 -0.2626  1.6725 -1.1421
19300THY    CA163266   7.070   2.710   3.586  0.6508 -0.0922  0.2477
19300THY    CA263267   7.188   2.763   3.525  0.2326  0.1341 -0.2892
19300THY    CP163268   7.233   2.911   3.541  0.3804  0.4008  0.4377
19300THY    HP163269   7.148   2.973   3.572 -0.1177  0.6013 -0.3378
19300THY    CP263270   7.299   2.968   3.420  1.0188 -0.2180  0.2858
19300THY    HP263271   7.241   2.966   3.327 -0.4164  0.6131 -2.1071
19300THY    HP363272   7.393   2.920   3.392  1.5100  0.1921  1.0025
19300THY    HP463273   7.328   3.070   3.448  2.1312 -0.0780 -0.0631
19300THY    CP363274   7.327   2.924   3.663 -0.6630  0.4663  0.0213
19300THY    HP563275   7.423   2.882   3.630 -1.3107 -1.1442 -0.2847
19300THY    HP663276   7.287   2.872   3.750 -4.2450 -0.8196  0.3512
19300THY    HP763277   7.360   3.027   3.681  0.2776  1.5827 -0.4559
19300THY    CA363278   7.265   2.672   3.450  0.0239  0.3148  0.4233
19300THY    HA363279   7.358   2.712   3.412 -0.4088 -0.8547  0.3574
19300THY    CA463280   7.229   2.538   3.427 -0.0956  0.0783 -0.3736
19300THY    HA463281   7.291   2.473   3.366 -1.8560  0.1902 -2.2779
19300THY    CA563282   7.108   2.491   3.488 -0.3583  0.3169  0.3669
19300THY    CM163283   7.080   2.345   3.461 -0.3822 -0.0136  0.0636
19300THY    HM163284   7.045   2.321   3.360 -1.4139 -0.3154  2.4994
19300THY    HM263285   7.003   2.313   3.533  2.9237  2.6941 -2.6779
19300THY    HM363286   7.164   2.281   3.490 -0.6714 -1.0170 -0.8013
19300THY    CA663287   7.028   2.572   3.565  0.2074  0.1014  0.4832
19300THY    HA663288   6.942   2.528   3.615  0.6715 -0.5867 -1.2961
19301THY      O63289   7.945   0.179   2.517  0.1313  0.2309  0.9647
19301THY     HO63290   7.863   0.206   2.473  1.4079 -0.8337  3.4909
19301THY    CA163291   8.023   0.287   2.528  0.5107 -0.0684 -0.0330
19301THY    CA263292   8.161   0.282   2.555  0.3838 -0.4178  0.1315
19301THY    CP163293   8.234   0.151   2.571 -0.6617 -0.4626  0.4417
19301THY    HP163294   8.177   0.061   2.545 -1.9488  1.9472  0.4931
19301THY    CP263295   8.272   0.125   2.725 -0.3252 -0.3566  0.0291
19301THY    HP263296   8.343   0.198   2.764  0.1706 -1.6284  0.2524
19301THY    HP363297   8.312   0.024   2.739 -0.8960 -0.2073 -0.1856
19301THY    HP463298   8.179   0.140   2.781 -0.6487 -0.3379 -1.8036
19301THY    CP363299   8.358   0.138   2.481 -0.1299 -0.1603  0.0223
19301THY    HP563300   8.335   0.162   2.376  0.0467 -0.2354 -0.1323
19301THY    HP663301   8.402   0.038   2.489 -0.5004  2.5020  0.0139
19301THY    HP763302   8.435   0.203   2.526  0.8780  0.2474 -1.4048
19301THY    CA363303   8.235   0.401   2.560 -0.5003  0.4282  0.7445
19301THY    HA363304   8.342   0.397   2.580 -0.7679  1.7738 -1.4828
19301THY    CA463305   8.172   0.526   2.532 -0.1804 -0.9512  0.0496
19301THY    HA463306   8.227   0.619   2.520 -2.6856 -1.9699  1.4797
19301THY    CA563307   8.033   0.534   2.514  0.0886  0.5416 -0.1443
19301THY    CM163308   7.964   0.654   2.478  0.2810  0.2521 -0.2052
19301THY    HM163309   7.938   0.661   2.372  0.2106  0.1601 -1.5828
19301THY    HM263310   8.007   0.747   2.516  1.1970 -1.3900  0.0871
19301THY    HM363311   7.861   0.647   2.515 -0.1376 -1.0821 -1.9062
19301THY    CA663312   7.961   0.416   2.504 -1.1878  0.8587  0.0405
19301THY    HA663313   7.856   0.419   2.476 -1.5680  1.7856 -2.1850
19302THY      O63314   5.231   4.544   6.019  0.0844  0.0771  0.6393
19302THY     HO63315   5.269   4.547   6.108  1.9252 -0.6537  0.2231
19302THY    CA163316   5.173   4.663   5.986 -0.2406 -0.4646  0.0030
19302THY    CA263317   5.072   4.673   5.890 -0.0601 -0.9661  1.2504
19302THY    CP163318   5.026   4.550   5.805 -0.8097 -0.1620 -1.0164
19302THY    HP163319   5.075   4.456   5.831  1.0588  0.3622  0.0437
19302THY    CP263320   5.067   4.575   5.657  0.2933  0.4355  0.8079
19302THY    HP263321   4.996   4.647   5.614 -1.3049  0.7446 -0.5152
19302THY    HP363322   5.054   4.484   5.598  0.9439 -1.3833  1.8457
19302THY    HP463323   5.171   4.610   5.657  1.1739 -2.2517 -1.4145
19302THY    CP363324   4.876   4.540   5.831  0.0826  0.1555  0.6515
19302THY    HP563325   4.845   4.471   5.751  2.7301 -0.4262  0.0260
19302THY    HP663326   4.809   4.625   5.813 -3.9957  0.0917 -2.2605
19302THY    HP763327   4.850   4.495   5.927 -1.1081 -0.1669  0.6132
19302THY    CA363328   5.020   4.802   5.865 -0.4603 -0.2576 -0.1027
19302THY    HA363329   4.956   4.816   5.778  0.2470 -0.5405  1.6687
19302THY    CA463330   5.073   4.915   5.929  0.4827  0.0975  0.3169
19302THY    HA463331   5.034   5.015   5.910 -1.2010 -1.5479 -0.5756
19302THY    CA563332   5.177   4.903   6.025  0.4770 -0.3064  0.8427
19302THY    CM163333   5.228   5.027   6.097 -0.0893  0.4812 -0.3622
19302THY    HM163334   5.140   5.084   6.128 -0.0108 -0.1144  0.0997
19302THY    HM263335   5.281   5.089   6.024 -2.0592 -0.0827  0.7422
19302THY    HM363336   5.293   5.001   6.181  0.8574 -0.0875  0.1227
19302THY    CA663337   5.229   4.771   6.052 -0.5702 -0.2605  0.1066
19302THY    HA663338   5.312   4.756   6.121 -1.2881  0.5802 -0.0751
19303THY      O63339   6.084   3.144   2.026 -0.9353 -0.1018 -0.6288
19303THY     HO63340   6.157   3.130   1.963  0.0539  1.2635 -2.0104
19303THY    CA163341   6.135   3.220   2.124 -0.2667 -0.0956 -0.2263
19303THY    CA263342   6.096   3.208   2.262 -1.2610 -0.0531 -0.4034
19303THY    CP163343   5.991   3.111   2.309  1.2359  0.1191  0.1387
19303THY    HP163344   5.934   3.078   2.222  0.9699  0.6982 -0.9572
19303THY    CP263345   5.884   3.181   2.407 -0.2025 -0.2949  0.0843
19303THY    HP263346   5.932   3.205   2.503 -2.0952  0.2503  1.8652
19303THY    HP363347   5.798   3.117   2.430  0.1437 -0.3449 -0.4126
19303THY    HP463348   5.841   3.268   2.358 -2.2757 -0.0482 -0.7538
19303THY    CP363349   6.039   2.981   2.381 -0.0941  0.3994  0.1118
19303THY    HP563350   6.100   2.916   2.317  0.2643  0.7642  0.0890
19303THY    HP663351   5.948   2.929   2.413 -1.4438 -0.2936  1.8969
19303THY    HP763352   6.090   3.008   2.474 -0.2691  0.5381 -0.0359
19303THY    CA363353   6.164   3.289   2.350 -0.4852 -0.2918  0.7493
19303THY    HA363354   6.140   3.292   2.455 -0.5807 -0.3202  1.0537
19303THY    CA463355   6.266   3.372   2.316  0.4440 -0.5270  0.4286
19303THY    HA463356   6.311   3.450   2.378 -2.2732  0.5379  1.2762
19303THY    CA563357   6.298   3.390   2.181 -0.8099  0.4906 -0.3017
19303THY    CM163358   6.395   3.495   2.145 -0.7423  0.6397  0.0037
19303THY    HM163359   6.396   3.511   2.037 -0.5950  0.7259  0.6098
19303THY    HM263360   6.496   3.458   2.163 -0.7728  1.6236  0.3643
19303THY    HM363361   6.362   3.589   2.192 -2.5427 -2.2871  0.9688
19303THY    CA663362   6.239   3.312   2.081  0.1306  0.0700  0.8114
19303THY    HA663363   6.258   3.333   1.976 -2.3915 -0.6729 -0.2221
19304THY      O63364   2.750   1.602   7.060  0.5612  0.0747 -0.1053
19304THY     HO63365   2.664   1.573   7.026  0.8553  0.4816 -1.4969
19304THY    CA163366   2.780   1.527   7.171  0.5450  0.2213  0.4156
19304THY    CA263367   2.893   1.559   7.246 -0.1826  0.4176 -0.0009
19304THY    CP163368   2.985   1.665   7.198  0.7270  0.0179 -0.5042
19304THY    HP163369   2.971   1.692   7.092  2.7059 -0.0568  0.4259
19304THY    CP263370   3.137   1.626   7.211  0.5355 -0.6931  0.3167
19304THY    HP263371   3.161   1.549   7.137  0.5253  0.3456 -0.7264
19304THY    HP363372   3.181   1.594   7.306  2.2313 -1.6353 -0.2832
19304THY    HP463373   3.201   1.713   7.190  0.6307 -0.1311  0.3858
19304THY    CP363374   2.955   1.784   7.297 -0.5714 -0.6133 -0.0974
19304THY    HP563375   2.859   1.832   7.272  0.8440 -1.4852  2.4318
19304THY    HP663376   3.019   1.866   7.264  0.3951  1.5539  0.0727
19304THY    HP763377   2.962   1.771   7.406 -1.9276 -0.5588 -0.5439
19304THY    CA363378   2.915   1.497   7.368  0.5844 -0.9349 -0.0712
19304THY    HA363379   3.010   1.512   7.418  0.9227 -1.0069 -1.7681
19304THY    CA463380   2.823   1.396   7.409 -0.2328  0.0012 -0.1215
19304THY    HA463381   2.845   1.341   7.500 -0.7805 -0.8035 -1.7228
19304THY    CA563382   2.718   1.350   7.324  1.1968 -0.4151 -0.0168
19304THY    CM163383   2.635   1.223   7.356 -0.0415 -0.3175  0.9639
19304THY    HM163384   2.579   1.235   7.450 -0.1387 -0.1929 -0.2689
19304THY    HM263385   2.693   1.130   7.362 -4.0610 -1.9505 -1.9751
19304THY    HM363386   2.553   1.213   7.283 -0.7157  0.1620  2.6473
19304THY    CA663387   2.697   1.421   7.203  0.0092 -0.9056  0.1572
19304THY    HA663388   2.614   1.392   7.139 -1.3921  0.4049  1.1164
19305THY      O63389   6.289   2.403   4.873  0.3934  0.2891  0.5697
19305THY     HO63390   6.213   2.353   4.909  0.0934 -2.3405 -1.0529
19305THY    CA163391   6.257   2.466   4.751  0.2884 -0.1192  0.1865
19305THY    CA263392   6.346   2.516   4.651 -0.6300 -0.3839 -0.7397
19305THY    CP163393   6.494   2.514   4.688  1.1088 -0.3729 -0.1136
19305THY    HP163394   6.507   2.479   4.791 -0.0173  1.1273  3.4336
19305THY    CP263395   6.568   2.648   4.657  0.1666 -0.4123 -0.0420
19305THY    HP263396   6.669   2.637   4.697 -0.1736  1.0999  1.8031
19305THY    HP363397   6.532   2.741   4.703 -0.0086 -2.2250  0.8460
19305THY    HP463398   6.597   2.672   4.554  0.2579 -0.5942 -0.9038
19305THY    CP363399   6.571   2.410   4.605 -0.2164  0.2954  0.6736
19305THY    HP563400   6.679   2.410   4.619 -0.0118 -0.3061 -2.7894
19305THY    HP663401   6.549   2.437   4.501  0.9522  0.4606  2.3757
19305THY    HP763402   6.535   2.309   4.629  0.4638  0.7988  0.5491
19305THY    CA363403   6.300   2.577   4.535 -0.1433  0.1517 -0.6061
19305THY    HA363404   6.363   2.612   4.453 -0.4071 -0.9821 -2.6557
19305THY    CA463405   6.164   2.575   4.513  0.3032 -0.4526 -0.9891
19305THY    HA463406   6.121   2.615   4.422 -2.6989  1.1042 -0.3264
19305THY    CA563407   6.071   2.528   4.612  0.6233  0.2035  0.3281
19305THY    CM163408   5.927   2.569   4.590  0.2570  0.5129  0.0814
19305THY    HM163409   5.924   2.679   4.582  1.0517  2.5298  0.2913
19305THY    HM263410   5.861   2.545   4.674 -3.3334 -2.5138 -1.6473
19305THY    HM363411   5.878   2.512   4.511 -2.3829  1.4241  0.9224
19305THY    CA663412   6.119   2.481   4.737 -0.0575 -0.0651  1.4444
19305THY    HA663413   6.048   2.446   4.812 -0.2214 -0.8824 -0.0524
19306THY      O63414   1.271   3.100   5.121  0.8016 -0.1237  0.3991
19306THY     HO63415   1.224   3.112   5.205 -1.6212 -1.0534 -1.5858
19306THY    CA163416   1.162   3.096   5.039  0.0975 -0.1232 -0.5961
19306THY    CA263417   1.166   3.162   4.907  0.4979  0.3718  0.6541
19306THY    CP163418   1.304   3.207   4.854 -0.1621 -0.5583  0.1740
19306THY    HP163419   1.353   3.273   4.926  0.8308 -2.7755  2.0406
19306THY    CP263420   1.309   3.299   4.732  0.3194 -0.1869 -0.8227
19306THY    HP263421   1.417   3.314   4.714  0.1439 -1.6180 -1.0643
19306THY    HP363422   1.262   3.394   4.757 -0.2061 -2.5332 -0.3940
19306THY    HP463423   1.259   3.246   4.650 -1.2792  0.7063 -0.7376
19306THY    CP363424   1.393   3.088   4.823  0.1753  0.1192 -0.5036
19306THY    HP563425   1.472   3.120   4.754 -1.0911 -0.2409  2.1457
19306THY    HP663426   1.338   3.011   4.768  2.3973  0.1287 -2.2205
19306THY    HP763427   1.440   3.039   4.909  0.7984  0.7574  1.1582
19306THY    CA363428   1.046   3.178   4.840  0.4704  0.1397 -0.7923
19306THY    HA363429   1.042   3.236   4.748 -0.8255  0.7914  0.1705
19306THY    CA463430   0.924   3.131   4.893 -0.8153  0.2293 -0.1661
19306THY    HA463431   0.829   3.143   4.842 -0.3369 -0.8040 -0.6224
19306THY    CA563432   0.922   3.069   5.017 -0.4258  0.0442  0.3841
19306THY    CM163433   0.787   3.028   5.071 -0.2704  0.3053  0.2566
19306THY    HM163434   0.699   3.049   5.009 -1.3935  1.2181 -1.4381
19306THY    HM263435   0.782   3.065   5.175 -0.5498 -0.6259  3.1314
19306THY    HM363436   0.785   2.919   5.076  1.8360 -2.1604  0.0238
19306THY    CA663437   1.039   3.044   5.090  0.0487  0.9301  0.1433
19306THY    HA663438   1.020   2.999   5.187 -1.7733 -0.1914 -1.6228
19307THY      O63439   4.284   5.441   2.260 -0.1561 -0.0537  0.0295
19307THY     HO63440   4.359   5.476   2.209  0.1865 -0.5338 -1.3601
19307THY    CA163441   4.330   5.339   2.336  0.2486 -0.3277 -0.3165
19307THY    CA263442   4.263   5.287   2.451  1.2400 -0.6593  0.1178
19307THY    CP163443   4.124   5.347   2.496 -0.5120 -0.6664 -0.2663
19307THY    HP163444   4.101   5.414   2.412 -1.7066 -2.3929 -2.7000
19307THY    CP263445   4.122   5.426   2.619  0.0796 -0.5848 -0.6528
19307THY    HP263446   4.035   5.492   2.615  0.9432  0.2243  0.5721
19307THY    HP363447   4.216   5.481   2.627 -0.4038  1.1130 -0.0461
19307THY    HP463448   4.130   5.355   2.702  1.0667  0.6681  0.8578
19307THY    CP363449   4.013   5.237   2.496 -0.4768  0.0599 -0.5405
19307THY    HP563450   3.915   5.285   2.489  0.4489 -0.0915  1.4536
19307THY    HP663451   4.018   5.162   2.576 -0.0539  0.3633 -0.1996
19307THY    HP763452   4.027   5.191   2.398 -1.2073  0.4859 -1.6984
19307THY    CA363453   4.315   5.189   2.534 -0.7535  0.4664  0.4242
19307THY    HA363454   4.268   5.146   2.622 -0.0234  1.2475  1.1610
19307THY    CA463455   4.443   5.147   2.497  0.4790  1.1017 -0.4065
19307THY    HA463456   4.491   5.064   2.548  0.0016 -0.2831 -1.5739
19307THY    CA563457   4.521   5.203   2.392  0.8589  0.0499  0.2195
19307THY    CM163458   4.659   5.153   2.362  0.1417  0.0798 -0.1683
19307THY    HM163459   4.700   5.226   2.291 -1.5119  1.0618  1.8406
19307THY    HM263460   4.664   5.048   2.333 -2.5850 -0.7652 -0.1634
19307THY    HM363461   4.718   5.169   2.453  1.1514 -0.5110 -0.4370
19307THY    CA663462   4.454   5.286   2.301 -0.0576 -0.1280  1.1818
19307THY    HA663463   4.507   5.334   2.219  3.3317  1.9218  1.2653
19308THY      O63464   1.356   0.922   7.631 -0.2552  0.5184 -0.1722
19308THY     HO63465   1.432   0.955   7.579 -0.0793  0.7420 -0.2247
19308THY    CA163466   1.246   0.973   7.576 -0.3543  0.6069 -0.2084
19308THY    CA263467   1.141   1.009   7.660  0.0888 -0.4289 -0.2794
19308THY    CP163468   1.155   0.996   7.812  0.0563 -0.0618  0.3762
19308THY    HP163469   1.227   0.917   7.837 -0.8078 -0.5271 -0.5906
19308THY    CP263470   1.014   0.957   7.870  0.4871 -0.1864  0.3308
19308THY    HP263471   0.969   1.050   7.905 -0.1096 -1.1838  0.4376
19308THY    HP363472   1.043   0.895   7.956 -2.2286  0.4649 -0.1868
19308THY    HP463473   0.952   0.895   7.804 -0.9339  1.1765  0.2577
19308THY    CP363474   1.208   1.124   7.876  0.0504 -0.8003 -0.2281
19308THY    HP563475   1.124   1.190   7.902 -0.2299 -0.0391 -0.8627
19308THY    HP663476   1.294   1.169   7.825  0.2635 -0.4951 -0.2797
19308THY    HP763477   1.249   1.102   7.976 -0.7107 -0.3965  0.1324
19308THY    CA363478   1.028   1.062   7.603 -0.1871 -0.3389 -0.0210
19308THY    HA363479   0.938   1.084   7.660 -1.8129 -2.5431 -0.5774
19308THY    CA463480   1.020   1.083   7.462 -0.0896  0.1635 -0.5614
19308THY    HA463481   0.931   1.121   7.412  0.3777  1.5595  2.7076
19308THY    CA563482   1.129   1.060   7.381  0.3234  0.0952  0.3237
19308THY    CM163483   1.134   1.081   7.233  0.1327 -0.4894 -0.9366
19308THY    HM163484   1.219   1.032   7.183 -0.5498 -2.1733 -0.4913
19308THY    HM263485   1.129   1.188   7.213 -1.1026 -0.1489 -0.9100
19308THY    HM363486   1.047   1.042   7.177  0.3884 -0.2966 -1.8214
19308THY    CA663487   1.244   0.993   7.439  0.2180 -0.9533  0.2887
19308THY    HA663488   1.328   0.962   7.377 -0.2347 -1.4761  0.0840
19309THY      O63489   2.834   5.182   3.740 -0.2334  0.7568  0.6684
19309THY     HO63490   2.839   5.208   3.834  1.0447  0.6611  0.8429
19309THY    CA163491   2.749   5.260   3.663 -0.5215 -0.1826 -0.4310
19309THY    CA263492   2.741   5.247   3.519 -0.0074 -0.5193 -0.4084
19309THY    CP163493   2.844   5.149   3.449  0.1846 -0.3866 -0.3665
19309THY    HP163494   2.934   5.145   3.511  0.1418 -0.1708  1.3385
19309THY    CP263495   2.895   5.194   3.310  0.3454  0.1771  0.2144
19309THY    HP263496   2.991   5.147   3.286  0.6421  1.6215  0.0456
19309THY    HP363497   2.912   5.302   3.308 -0.2069 -0.6095  0.2959
19309THY    HP463498   2.822   5.161   3.235  0.3289  0.4453 -0.3712
19309THY    CP363499   2.793   5.002   3.442 -0.3383 -0.3175 -0.0769
19309THY    HP563500   2.873   4.929   3.426  1.1686  2.0350  0.9037
19309THY    HP663501   2.709   4.986   3.375  0.1483 -0.4545 -2.2680
19309THY    HP763502   2.755   4.971   3.540  0.3240 -0.4106 -1.2634
19309THY    CA363503   2.654   5.326   3.453  0.0577  0.2401 -0.4306
19309THY    HA363504   2.648   5.326   3.344  3.2615 -0.0679  1.5141
19309THY    CA463505   2.569   5.414   3.524  0.1892  0.2745 -0.4239
19309THY    HA463506   2.498   5.482   3.478 -0.0831  2.8539  1.1624
19309THY    CA563507   2.575   5.430   3.660  0.4242  0.3678  0.3995
19309THY    CM163508   2.490   5.535   3.729  0.2984 -0.1337  0.4797
19309THY    HM163509   2.460   5.505   3.830 -0.1849  0.2815  2.2543
19309THY    HM263510   2.399   5.550   3.670 -1.0708  1.5790 -0.7618
19309THY    HM363511   2.547   5.628   3.743 -0.3190  0.4421  0.7707
19309THY    CA663512   2.666   5.349   3.726  0.5647 -0.9370  0.0432
19309THY    HA663513   2.657   5.349   3.834  1.9957 -0.7355 -2.6160
19310THY      O63514   2.944   5.856   6.687 -0.0332 -0.5887  0.8224
19310THY     HO63515   3.002   5.796   6.638 -0.3296  1.0943 -0.9374
19310THY    CA163516   2.816   5.813   6.662 -0.5798 -0.9354 -0.2194
19310THY    CA263517   2.712   5.826   6.757  0.0443 -0.5011 -0.3043
19310THY    CP163518   2.720   5.926   6.873 -0.0001  0.3455 -0.3854
19310THY    HP163519   2.814   5.982   6.860  0.2528  0.9820 -0.6517
19310THY    CP263520   2.709   5.859   7.008  0.4425 -0.2204 -0.3787
19310THY    HP263521   2.615   5.803   7.006 -1.1227 -2.3263  2.0846
19310THY    HP363522   2.725   5.941   7.078 -1.0740  0.7469 -0.8629
19310THY    HP463523   2.788   5.784   7.014 -0.8962  1.6604 -1.7198
19310THY    CP363524   2.609   6.037   6.861  0.2961 -0.0760  0.6667
19310THY    HP563525   2.516   5.982   6.879  1.2798 -1.6104 -1.6431
19310THY    HP663526   2.608   6.073   6.758  1.5306  0.6417  2.9470
19310THY    HP763527   2.632   6.110   6.939  0.6253  0.1362  0.3450
19310THY    CA363528   2.591   5.753   6.742  0.0878  1.7461 -0.5757
19310THY    HA363529   2.503   5.767   6.805 -1.5953 -0.7466  0.9156
19310THY    CA463530   2.582   5.667   6.629  0.1701 -0.0119  0.2226
19310THY    HA463531   2.491   5.611   6.608 -2.6733  3.1111  3.1792
19310THY    CA563532   2.677   5.663   6.531 -0.2215  0.0631  0.1128
19310THY    CM163533   2.659   5.576   6.414 -0.7125  0.0354  0.7036
19310THY    HM163534   2.583   5.613   6.343 -0.2126 -1.6401 -1.3162
19310THY    HM263535   2.635   5.477   6.455 -1.1694  2.9596  1.9276
19310THY    HM363536   2.753   5.561   6.359 -0.8308  0.6330 -3.0185
19310THY    CA663537   2.796   5.736   6.548 -0.4663  0.1426 -0.4943
19310THY    HA663538   2.884   5.721   6.486  1.4567  2.6671 -0.2697
19311THY      O63539   8.573   3.955   7.534  0.5527  0.1143 -0.6833
19311THY     HO63540   8.543   4.030   7.588 -1.0928 -0.9951 -0.5034
19311THY    CA163541   8.489   3.860   7.566 -0.2231  0.2734  0.4267
19311THY    CA263542   8.493   3.739   7.490 -0.4001  0.3156  0.1364
19311THY    CP163543   8.596   3.714   7.384 -0.5944 -0.5313 -0.0921
19311THY    HP163544   8.662   3.799   7.364 -0.0402  0.9861 -0.1357
19311THY    CP263545   8.532   3.696   7.243  0.1699  0.9983 -0.6713
19311THY    HP263546   8.456   3.770   7.216 -0.3391  0.8344 -1.2433
19311THY    HP363547   8.469   3.607   7.230  0.3752 -0.7067 -0.5985
19311THY    HP463548   8.607   3.700   7.163  1.7167  2.0634 -4.1657
19311THY    CP363549   8.689   3.593   7.412 -0.3953  0.5744  0.9262
19311THY    HP563550   8.640   3.501   7.379  0.2670 -1.1974  1.1809
19311THY    HP663551   8.715   3.585   7.518 -0.9770  0.9233  3.0225
19311THY    HP763552   8.786   3.608   7.363  0.1953  0.7070 -1.9541
19311THY    CA363553   8.406   3.633   7.520  0.8076 -0.2970  0.5997
19311THY    HA363554   8.402   3.542   7.461 -1.1851  0.7043 -0.0275
19311THY    CA463555   8.316   3.651   7.623  0.6078  0.1200  0.3457
19311THY    HA463556   8.246   3.570   7.642 -0.0874 -1.5931  0.4962
19311THY    CA563557   8.314   3.767   7.698 -0.4206 -0.5747 -0.5296
19311THY    CM163558   8.222   3.786   7.817  0.1525 -0.3051  0.7439
19311THY    HM163559   8.195   3.696   7.873 -0.6178  0.4466  1.4232
19311THY    HM263560   8.133   3.837   7.778  0.1227 -1.8192 -0.3852
19311THY    HM363561   8.270   3.852   7.890  0.4628  0.5857 -0.4264
19311THY    CA663562   8.399   3.877   7.667 -0.4805 -0.5275 -0.0764
19311THY    HA663563   8.403   3.966   7.728  0.8756  0.2395 -0.6392
19312THY      O63564   0.180   9.079   4.810  0.6299 -0.2037 -0.5966
19312THY     HO63565   0.104   9.137   4.823  1.0181  0.0124 -0.1264
19312THY    CA163566   0.280   9.159   4.765 -0.5335 -0.5795 -0.0662
19312THY    CA263567   0.391   9.093   4.709  0.2033  0.4738 -0.5656
19312THY    CP163568   0.412   8.941   4.705  0.4273  0.4438  0.4580
19312THY    HP163569   0.313   8.895   4.695  0.7825 -1.1254 -0.0097
19312THY    CP263570   0.481   8.896   4.836  0.3705  0.2102  0.5408
19312THY    HP263571   0.423   8.925   4.924 -1.5178 -1.2019  1.2270
19312THY    HP363572   0.580   8.941   4.848 -0.6316  2.7957  2.2943
19312THY    HP463573   0.503   8.788   4.841  1.7164 -0.4182  0.7697
19312THY    CP363574   0.486   8.889   4.575  1.1022  0.3242  0.6298
19312THY    HP563575   0.466   8.783   4.555 -0.7683 -1.6957  1.2750
19312THY    HP663576   0.595   8.900   4.573  1.8150 -2.8929 -3.9236
19312THY    HP763577   0.432   8.949   4.500  1.3408  0.8865  1.5697
19312THY    CA363578   0.497   9.178   4.663 -0.2266 -0.1081 -0.5523
19312THY    HA363579   0.585   9.144   4.609 -1.1452 -0.7728 -1.9672
19312THY    CA463580   0.465   9.320   4.658 -1.0560 -0.3698 -0.3836
19312THY    HA463581   0.531   9.383   4.599  0.4757 -0.7235 -2.2370
19312THY    CA563582   0.350   9.377   4.709  0.8385 -0.5070 -0.7829
19312THY    CM163583   0.323   9.527   4.671 -1.0424 -0.5281  0.4965
19312THY    HM163584   0.418   9.578   4.690 -0.9398 -2.1872  0.9643
19312THY    HM263585   0.234   9.560   4.727 -2.8830 -0.4665 -3.8635
19312THY    HM363586   0.292   9.533   4.566  0.9171 -1.0603  2.8303
19312THY    CA663587   0.250   9.296   4.765 -0.6860  0.1775  0.2394
19312THY    HA663588   0.152   9.336   4.788 -0.7434  0.3709 -0.0150
19313THY      O63589   2.811   2.456   4.865 -0.1121  0.2324 -0.6656
19313THY     HO63590   2.743   2.483   4.929 -1.0873 -1.5145  1.4243
19313THY    CA163591   2.866   2.571   4.824  0.3818 -1.0139 -0.5511
19313THY    CA263592   2.876   2.595   4.685 -0.9845 -0.1280 -0.0919
19313THY    CP163593   2.820   2.493   4.586 -0.2743 -0.7510  0.4388
19313THY    HP163594   2.844   2.394   4.627 -0.9498 -1.1524  0.0987
19313THY    CP263595   2.898   2.492   4.449  0.1647 -0.5107  0.6257
19313THY    HP263596   2.833   2.428   4.388 -1.7623  2.4798 -0.4944
19313THY    HP363597   2.996   2.452   4.476 -0.6210  2.0957  0.2637
19313THY    HP463598   2.902   2.594   4.409 -1.7229 -2.0425  0.1730
19313THY    CP363599   2.666   2.517   4.569  0.3180  0.1627 -0.3199
19313THY    HP563600   2.618   2.435   4.513  1.6188 -1.2387 -0.1713
19313THY    HP663601   2.651   2.610   4.513 -0.9445  0.6179 -0.2239
19313THY    HP763602   2.616   2.527   4.666 -1.2004 -0.6119 -0.0051
19313THY    CA363603   2.943   2.718   4.650 -0.2717  0.0109 -0.4063
19313THY    HA363604   2.955   2.749   4.546 -0.3060  0.4623  1.1873
19313THY    CA463605   2.978   2.813   4.753  0.0184  0.7621 -0.0753
19313THY    HA463606   3.024   2.908   4.727  1.1180  3.5355  0.2534
19313THY    CA563607   2.961   2.783   4.886 -0.1831 -0.3777 -0.6303
19313THY    CM163608   2.995   2.889   4.993  0.2083  0.0680 -0.5521
19313THY    HM163609   3.051   2.832   5.068  1.0637 -1.3087 -1.5692
19313THY    HM263610   2.902   2.936   5.027 -0.4743 -1.1604 -0.9724
19313THY    HM363611   3.059   2.969   4.953  0.5688 -0.9645 -1.3381
19313THY    CA663612   2.901   2.670   4.927 -0.0532 -0.1960  0.5195
19313THY    HA663613   2.892   2.646   5.032  1.1160 -0.3850 -0.9055
19314THY      O63614   7.836   2.671   3.093 -0.0996 -0.7224 -0.0753
19314THY     HO63615   7.807   2.609   3.024  1.8617 -1.8265  0.1516
19314THY    CA163616   7.935   2.606   3.170  0.2014 -0.4998 -0.2441
19314THY    CA263617   8.040   2.684   3.231  0.1790  0.0557  0.0837
19314THY    CP163618   8.033   2.842   3.223  0.7270  0.1229 -0.4926
19314THY    HP163619   7.943   2.868   3.166  0.0705  0.5764 -1.6993
19314THY    CP263620   8.157   2.890   3.148  0.2521  0.0187  0.3883
19314THY    HP263621   8.150   2.991   3.106 -1.1934 -0.3877  0.1424
19314THY    HP363622   8.173   2.822   3.063 -0.5330  0.4567 -0.3720
19314THY    HP463623   8.250   2.891   3.206 -0.0563  0.5908 -1.1654
19314THY    CP363624   8.034   2.896   3.365 -0.1302  0.7800 -0.3501
19314THY    HP563625   8.043   3.005   3.355 -1.3266  0.0226 -0.3057
19314THY    HP663626   8.124   2.865   3.421  1.9257 -1.5634  1.0374
19314THY    HP763627   7.938   2.870   3.410 -1.0030 -0.2732  0.9577
19314THY    CA363628   8.144   2.617   3.300  0.1066 -0.1875 -0.1668
19314THY    HA363629   8.224   2.676   3.343 -2.3875  1.3167  2.3537
19314THY    CA463630   8.145   2.479   3.302  0.0774 -0.2141 -0.0279
19314THY    HA463631   8.223   2.428   3.359 -1.7048  0.0620 -2.6505
19314THY    CA563632   8.043   2.406   3.239  0.3532 -0.0466 -0.2106
19314THY    CM163633   8.039   2.250   3.247 -0.0522 -0.1486 -0.3254
19314THY    HM163634   8.036   2.218   3.352 -2.7832  0.8459  2.6092
19314THY    HM263635   8.103   2.188   3.184  0.3827 -0.6787  0.6410
19314THY    HM363636   7.947   2.209   3.204 -0.2964  0.8856 -0.9049
19314THY    CA663637   7.944   2.467   3.170 -0.1056  0.4359  0.0653
19314THY    HA663638   7.871   2.411   3.112 -0.9134 -0.3205  1.7942
19315THY      O63639   2.793   3.147   6.175  0.2453 -0.3422 -0.0439
19315THY     HO63640   2.745   3.151   6.090  0.9273 -0.7979 -1.2699
19315THY    CA163641   2.744   3.031   6.230  0.0078  1.0255 -0.2319
19315THY    CA263642   2.802   2.985   6.353  0.6196  0.3888 -0.5422
19315THY    CP163643   2.921   3.056   6.413  0.3082 -0.4639  0.1106
19315THY    HP163644   2.919   3.163   6.388  0.9311  2.3852  0.8822
19315THY    CP263645   3.053   3.000   6.358  0.2439 -0.1649  0.7601
19315THY    HP263646   3.049   2.948   6.262  1.2185  1.0770 -1.7918
19315THY    HP363647   3.090   2.919   6.422 -0.1824  1.9004  2.0901
19315THY    HP463648   3.133   3.074   6.346  0.6690  1.6563  0.6511
19315THY    CP363649   2.943   3.058   6.568  0.2696 -0.7012  0.3931
19315THY    HP563650   2.970   2.962   6.612  0.2783 -0.1621  0.6409
19315THY    HP663651   2.856   3.085   6.630  1.2630  0.7032  0.4120
19315THY    HP763652   3.022   3.132   6.585  0.4636 -2.5056  0.6578
19315THY    CA363653   2.745   2.875   6.423 -0.4686 -0.2929 -1.2843
19315THY    HA363654   2.790   2.849   6.518 -3.3853  2.0337  1.3042
19315THY    CA463655   2.623   2.822   6.381 -0.7951  1.3462  0.1108
19315THY    HA463656   2.580   2.741   6.440  1.8945 -0.9792 -3.2372
19315THY    CA563657   2.572   2.865   6.254 -0.2943 -1.0764 -0.0668
19315THY    CM163658   2.443   2.790   6.207 -0.4460  0.6368 -0.3263
19315THY    HM163659   2.359   2.854   6.236  0.3405 -0.3810  1.2391
19315THY    HM263660   2.421   2.710   6.278 -0.6243  0.6861 -0.2347
19315THY    HM363661   2.434   2.753   6.104  2.5367  0.3412 -0.4488
19315THY    CA663662   2.629   2.972   6.180 -0.1661  0.0341 -0.5979
19315THY    HA663663   2.575   3.014   6.096 -0.0150 -0.5419 -1.5125
19316THY      O63664   4.364   2.957   5.103  0.1050  0.2680 -0.1201
19316THY     HO63665   4.372   2.867   5.139  0.4924 -0.8495 -0.5507
19316THY    CA163666   4.490   2.991   5.071  0.5692 -0.2441 -0.6201
19316THY    CA263667   4.529   3.054   4.951  0.5917  0.6061 -0.2844
19316THY    CP163668   4.422   3.081   4.840  0.3993 -0.2495 -0.1164
19316THY    HP163669   4.336   3.013   4.848 -1.2745  0.1331  1.9317
19316THY    CP263670   4.482   3.070   4.699  0.3299  0.6068 -0.3703
19316THY    HP263671   4.547   3.157   4.683  1.6277 -0.5946 -1.5149
19316THY    HP363672   4.409   3.076   4.617  1.9326 -0.8641 -0.2953
19316THY    HP463673   4.533   2.974   4.688 -0.2683  0.1140 -0.6357
19316THY    CP363674   4.351   3.216   4.863  0.2231 -0.0917 -0.2714
19316THY    HP563675   4.260   3.214   4.803  0.2755 -0.1760 -0.1285
19316THY    HP663676   4.424   3.294   4.839  0.1075 -1.5057 -0.5839
19316THY    HP763677   4.320   3.205   4.968  1.1567  0.0415 -1.9202
19316THY    CA363678   4.653   3.114   4.943 -0.7722 -0.2401 -0.5943
19316THY    HA363679   4.680   3.177   4.859 -1.5259 -0.8523 -1.0731
19316THY    CA463680   4.742   3.101   5.050  0.1020  0.0381 -0.7887
19316THY    HA463681   4.835   3.157   5.058  0.3946 -2.1373 -0.8859
19316THY    CA563682   4.706   3.023   5.162  0.4546  0.2313 -0.3980
19316THY    CM163683   4.807   2.998   5.273 -0.4257 -0.4483 -0.3878
19316THY    HM163684   4.779   2.928   5.353  0.3104 -0.4331 -0.6765
19316THY    HM263685   4.817   3.086   5.337  0.1511  1.3271 -1.6796
19316THY    HM363686   4.910   2.981   5.239 -0.7136 -1.0926 -0.8810
19316THY    CA663687   4.580   2.980   5.182 -0.1948  0.1829  0.0503
19316THY    HA663688   4.557   2.930   5.276 -0.2167 -0.7022 -1.6606
19317THY      O63689   7.576   3.482   2.459  0.4685  0.0926  0.1097
19317THY     HO63690   7.635   3.442   2.525  0.0057  0.6302  0.2968
19317THY    CA163691   7.473   3.533   2.531 -0.6750  0.5381  0.1230
19317THY    CA263692   7.419   3.660   2.501 -0.2550  0.6187  0.0266
19317THY    CP163693   7.466   3.746   2.386  0.1419 -0.5915 -0.1393
19317THY    HP163694   7.517   3.678   2.316 -1.5709 -0.3298 -1.7737
19317THY    CP263695   7.565   3.851   2.433 -0.9037 -0.6116 -0.1934
19317THY    HP263696   7.601   3.919   2.355 -1.3485 -1.0309 -0.4385
19317THY    HP363697   7.659   3.807   2.468 -0.9308  3.3670  2.3786
19317THY    HP463698   7.525   3.901   2.522  0.1776 -0.7548  0.9869
19317THY    CP363699   7.358   3.820   2.303  0.1353  0.3700 -0.3750
19317THY    HP563700   7.398   3.900   2.240  1.9293  0.3642 -1.2338
19317THY    HP663701   7.285   3.861   2.374 -1.0043 -0.9944  0.0315
19317THY    HP763702   7.299   3.757   2.236 -2.7611  3.0661 -0.7907
19317THY    CA363703   7.316   3.704   2.589  0.4425 -0.0283  0.7487
19317THY    HA363704   7.260   3.797   2.580 -1.2766 -1.7978 -0.3745
19317THY    CA463705   7.283   3.632   2.707  0.5923  0.5794  0.5339
19317THY    HA463706   7.201   3.670   2.768  0.4621  0.9394 -0.3027
19317THY    CA563707   7.343   3.507   2.731 -0.3922  0.3030  0.1815
19317THY    CM163708   7.303   3.427   2.850 -0.1056  0.4568 -0.3814
19317THY    HM163709   7.212   3.465   2.897 -1.1374 -0.3911 -1.6828
19317THY    HM263710   7.379   3.427   2.930 -1.9091  2.2663  0.5691
19317THY    HM363711   7.285   3.321   2.826  1.5419  0.9334 -0.8119
19317THY    CA663712   7.435   3.456   2.642 -0.3582  0.2587  0.0031
19317THY    HA663713   7.482   3.360   2.662  0.9817 -2.6974 -0.0640
19318THY      O63714   4.430   4.071   5.821  0.0455  0.5596 -0.3181
19318THY     HO63715   4.446   4.107   5.732  2.0189  1.0876  0.2348
19318THY    CA163716   4.431   3.934   5.804  0.1091  0.1954  0.2109
19318THY    CA263717   4.413   3.849   5.914  0.2329  0.1768  0.3049
19318THY    CP163718   4.373   3.906   6.050 -0.1309  0.0551  0.2670
19318THY    HP163719   4.381   4.015   6.054  1.7192  0.3193  0.1632
19318THY    CP263720   4.471   3.853   6.149 -0.6042 -0.0438  0.2135
19318THY    HP263721   4.437   3.879   6.250  0.8356  0.5009  0.0629
19318THY    HP363722   4.572   3.893   6.136  0.1874 -0.1866 -1.7180
19318THY    HP463723   4.478   3.744   6.142 -1.9110  0.6759  0.0607
19318THY    CP363724   4.229   3.876   6.093  0.3742  0.4538  0.3083
19318THY    HP563725   4.160   3.924   6.023  0.9604 -0.8393 -0.6615
19318THY    HP663726   4.200   3.895   6.197  3.3745  1.4430  0.0255
19318THY    HP763727   4.217   3.768   6.078  2.8247  4.0750 -0.6599
19318THY    CA363728   4.422   3.706   5.892  0.9050  1.1924 -0.4486
19318THY    HA363729   4.409   3.635   5.973 -1.1431  1.4014  0.0870
19318THY    CA463730   4.428   3.651   5.762 -0.3654  0.2303 -0.7756
19318THY    HA463731   4.436   3.544   5.743  2.5762 -1.5149 -0.3384
19318THY    CA563732   4.453   3.739   5.652 -1.0484 -0.4599  0.7549
19318THY    CM163733   4.484   3.684   5.519  0.3093  0.6647 -0.0009
19318THY    HM163734   4.391   3.662   5.465  0.6158 -0.9058  2.2614
19318THY    HM263735   4.540   3.590   5.516 -0.3727 -1.6817 -0.3784
19318THY    HM363736   4.539   3.763   5.468 -1.1057 -0.6597  0.1560
19318THY    CA663737   4.448   3.881   5.670 -0.1079 -0.4851  0.1440
19318THY    HA663738   4.464   3.947   5.585  1.3439  0.5028  1.1117
19319THY      O63739   0.364   7.923   3.674 -0.3866 -0.1336 -1.1197
19319THY     HO63740   0.272   7.945   3.698 -0.0174 -0.8960  1.6626
19319THY    CA163741   0.447   7.964   3.779 -0.3468  0.4156 -0.3003
19319THY    CA263742   0.577   7.924   3.784 -0.7078 -0.1473 -0.4721
19319THY    CP163743   0.640   7.835   3.676 -1.0607 -0.5124  0.5380
19319THY    HP163744   0.568   7.826   3.594 -0.0147 -1.8252  3.1573
19319THY    CP263745   0.688   7.697   3.725 -0.2925  0.3192 -0.6425
19319THY    HP263746   0.742   7.706   3.820 -3.1022  1.8577  1.7572
19319THY    HP363747   0.758   7.649   3.656  0.4060  1.2278 -0.9620
19319THY    HP463748   0.606   7.626   3.739  0.1341  1.3104 -0.9567
19319THY    CP363749   0.761   7.913   3.618 -0.0283 -0.4870  0.1282
19319THY    HP563750   0.734   7.994   3.550  0.0589 -1.6057 -0.7536
19319THY    HP663751   0.832   7.847   3.566 -0.3419 -0.4863 -0.2152
19319THY    HP763752   0.835   7.937   3.696  0.5213 -0.6091 -1.0982
19319THY    CA363753   0.659   7.953   3.900  0.2991 -0.1491  0.1426
19319THY    HA363754   0.760   7.916   3.911 -0.7112 -2.7880 -3.9993
19319THY    CA463755   0.607   8.041   3.998 -0.4913 -0.0297  0.8320
19319THY    HA463756   0.679   8.061   4.077  3.4505 -2.8052 -1.2448
19319THY    CA563757   0.462   8.067   3.997  0.4366  0.6789  0.2819
19319THY    CM163758   0.397   8.149   4.106  0.5481  0.4262 -0.1565
19319THY    HM163759   0.321   8.221   4.074  1.9566 -1.9207  0.3860
19319THY    HM263760   0.469   8.199   4.172 -0.5028 -0.1612  2.3054
19319THY    HM363761   0.338   8.082   4.170 -0.1366 -0.1223 -0.0861
19319THY    CA663762   0.383   8.035   3.884 -0.6116  0.1411  0.3552
19319THY    HA663763   0.280   8.070   3.882  0.3076  1.4051  3.4424
19320THY      O63764   4.689   3.053   6.204  0.4258  0.2771  0.1431
19320THY     HO63765   4.599   3.032   6.235  0.2268 -0.5036 -0.1969
19320THY    CA163766   4.774   3.069   6.310 -0.6465 -0.1533  0.1241
19320THY    CA263767   4.914   3.092   6.297 -0.1943 -0.1168  0.1088
19320THY    CP163768   4.991   3.082   6.165  0.4789  0.0123 -0.7332
19320THY    HP163769   4.924   3.071   6.079  1.6979 -0.7410 -2.8762
19320THY    CP263770   5.075   2.961   6.169  0.7076  0.8033 -0.6590
19320THY    HP263771   5.014   2.874   6.191  0.0915 -0.0977 -0.4736
19320THY    HP363772   5.154   2.966   6.244  0.8068  0.6818 -0.3367
19320THY    HP463773   5.119   2.955   6.068 -0.8234 -0.3406  3.5912
19320THY    CP363774   5.066   3.215   6.135 -0.0901  0.7900  0.6703
19320THY    HP563775   5.010   3.306   6.159  2.2068 -1.0931  2.7268
19320THY    HP663776   5.101   3.220   6.031 -0.4878  0.6918  1.7216
19320THY    HP763777   5.147   3.219   6.209  1.0272 -0.4328  1.9100
19320THY    CA363778   4.985   3.119   6.418  0.1546  0.0747  0.1259
19320THY    HA363779   5.092   3.129   6.424  0.1482  2.4790 -0.6778
19320THY    CA463780   4.914   3.147   6.538 -0.6724 -0.1999  0.2641
19320THY    HA463781   4.982   3.188   6.612  0.1486  0.1043 -1.5454
19320THY    CA563782   4.780   3.132   6.548 -0.3092 -0.2477 -0.3628
19320THY    CM163783   4.693   3.183   6.665  0.1273 -0.1412  0.0478
19320THY    HM163784   4.645   3.093   6.704  0.6846  3.6585  1.2275
19320THY    HM263785   4.608   3.245   6.634 -1.0550  1.6887 -0.5921
19320THY    HM363786   4.764   3.215   6.742 -0.2798  0.9792 -1.6651
19320THY    CA663787   4.714   3.087   6.430  0.2773 -0.0428 -0.2286
19320THY    HA663788   4.606   3.070   6.431  0.3620  2.5760 -1.1214
19321THY      O63789   2.410   1.519   5.032 -0.2816 -0.5898  0.0655
19321THY     HO63790   2.447   1.479   5.112  3.2238 -2.4629 -0.8517
19321THY    CA163791   2.474   1.639   5.010 -0.4221  0.1587 -0.0968
19321THY    CA263792   2.427   1.729   4.915  0.1064 -0.1288  0.3606
19321THY    CP163793   2.303   1.683   4.830 -0.2672 -0.3439 -0.4049
19321THY    HP163794   2.249   1.597   4.872  0.0664 -0.7890 -0.8410
19321THY    CP263795   2.339   1.634   4.683  0.4889  0.0223  0.6113
19321THY    HP263796   2.419   1.558   4.682  0.3670 -0.5440  0.4869
19321THY    HP363797   2.384   1.719   4.631  0.0200  0.0464  0.8745
19321THY    HP463798   2.253   1.588   4.633  0.6642  1.0907 -0.9753
19321THY    CP363799   2.197   1.790   4.809 -0.5103 -0.3694  0.6513
19321THY    HP563800   2.249   1.875   4.763 -1.1599 -2.2048  0.1007
19321THY    HP663801   2.158   1.827   4.905  0.7425  0.3918  0.0911
19321THY    HP763802   2.122   1.747   4.742 -0.8662  0.7765 -0.5776
19321THY    CA363803   2.489   1.858   4.908  0.3928  0.2502 -0.1820
19321THY    HA363804   2.455   1.939   4.845 -0.3273  1.0151  0.1259
19321THY    CA463805   2.613   1.885   4.972  0.2041  0.3911 -0.2814
19321THY    HA463806   2.677   1.972   4.960  0.9709  0.1557 -0.8690
19321THY    CA563807   2.657   1.788   5.064  0.2357  0.1728 -0.2475
19321THY    CM163808   2.786   1.813   5.137 -0.7993  0.0660 -0.5502
19321THY    HM163809   2.857   1.729   5.131 -0.6358 -1.9892 -0.2953
19321THY    HM263810   2.766   1.837   5.242  0.1933 -0.0919  1.1598
19321THY    HM363811   2.848   1.892   5.095  1.5730  1.8036 -1.3610
19321THY    CA663812   2.587   1.668   5.089  0.2309 -0.8711 -0.7233
19321THY    HA663813   2.628   1.598   5.162  1.5163 -2.0226 -1.2290
19322THY      O63814   2.420   7.178   6.835  0.1213  0.3015 -0.3159
19322THY     HO63815   2.475   7.134   6.902 -0.6766  0.1751 -1.5643
19322THY    CA163816   2.499   7.270   6.778 -0.0521 -0.3155  0.1075
19322THY    CA263817   2.471   7.335   6.656  0.9135  0.0265  0.1641
19322THY    CP163818   2.353   7.291   6.563  0.8021  0.1729 -0.6043
19322THY    HP163819   2.310   7.193   6.587  1.1503 -1.4329 -1.1731
19322THY    CP263820   2.411   7.279   6.422  0.5549  0.4507 -0.1550
19322THY    HP263821   2.328   7.259   6.353  0.5881  0.1930  0.5611
19322THY    HP363822   2.478   7.192   6.420 -0.4359  1.1126 -0.9565
19322THY    HP463823   2.464   7.365   6.379  0.6299 -1.4814 -1.1057
19322THY    CP363824   2.236   7.401   6.574  0.6476  0.3977 -0.4109
19322THY    HP563825   2.174   7.378   6.661 -0.7958 -0.4058  0.3482
19322THY    HP663826   2.178   7.404   6.481  1.3218 -0.0198 -0.0218
19322THY    HP763827   2.283   7.500   6.574 -2.6818  1.9893  1.3345
19322THY    CA363828   2.551   7.452   6.622 -0.1792  0.4301  0.9026
19322THY    HA363829   2.542   7.508   6.530  2.7540 -1.0325 -0.7757
19322THY    CA463830   2.657   7.489   6.697 -0.2227 -0.5936 -0.4985
19322THY    HA463831   2.709   7.583   6.685 -0.2076  2.8722  0.0442
19322THY    CA563832   2.680   7.420   6.820  0.1491  0.9573  0.3409
19322THY    CM163833   2.794   7.448   6.911  0.8310  0.5619 -0.2324
19322THY    HM163834   2.751   7.489   7.003  0.2123 -0.2136  0.9221
19322THY    HM263835   2.871   7.512   6.868  0.7411 -1.2977 -1.2774
19322THY    HM363836   2.842   7.353   6.938  0.6808  0.9530 -0.1992
19322THY    CA663837   2.603   7.311   6.856  0.7950  0.1004  0.5266
19322THY    HA663838   2.624   7.272   6.955 -0.0089  0.2674  0.4994
19323THY      O63839   6.942   7.634   3.193 -1.0004  0.1018 -0.1307
19323THY     HO63840   6.909   7.722   3.217 -2.1220 -0.2129 -0.4406
19323THY    CA163841   6.989   7.573   3.307  0.2716 -0.1940  0.4105
19323THY    CA263842   6.998   7.439   3.311 -0.3759 -0.4442  0.4036
19323THY    CP163843   6.976   7.356   3.184  0.3225 -0.3579  0.0618
19323THY    HP163844   6.994   7.422   3.098  1.4351 -0.8498 -0.8273
19323THY    CP263845   6.844   7.287   3.176 -0.0057  0.1342 -0.4755
19323THY    HP263846   6.834   7.235   3.272  1.5662  0.2326 -0.6475
19323THY    HP363847   6.844   7.226   3.084  0.0551 -0.8333  0.9532
19323THY    HP463848   6.761   7.357   3.166  0.2728  2.4667  0.2830
19323THY    CP363849   7.091   7.251   3.176  0.4847  0.3517 -0.0688
19323THY    HP563850   7.082   7.182   3.261 -2.0727  1.0910  1.0535
19323THY    HP663851   7.188   7.302   3.176  0.3181  1.0854  0.2728
19323THY    HP763852   7.093   7.199   3.080 -1.4489  0.8849 -1.2472
19323THY    CA363853   7.008   7.377   3.442  1.2489 -0.6308  0.3572
19323THY    HA363854   6.997   7.269   3.450 -0.9871  3.3755  0.7138
19323THY    CA463855   7.024   7.454   3.556 -0.5576 -0.0584  1.0506
19323THY    HA463856   7.035   7.393   3.645 -3.0429  0.2622  0.9913
19323THY    CA563857   7.028   7.589   3.553  0.0002  0.0537 -0.2439
19323THY    CM163858   7.046   7.665   3.684  0.8349  0.1556  0.1841
19323THY    HM163859   7.147   7.636   3.715  0.8177 -1.7736 -2.2514
19323THY    HM263860   6.987   7.637   3.772  1.5423  0.2414 -1.1423
19323THY    HM363861   7.052   7.774   3.671 -1.5207 -0.3672  0.3068
19323THY    CA663862   7.000   7.652   3.430 -0.0009  0.4163  0.4266
19323THY    HA663863   6.987   7.760   3.430  0.0648 -1.6684  0.4756
19324THY      O63864   0.853   6.692   3.776  0.5839  0.1282  0.1596
19324THY     HO63865   0.765   6.711   3.812  0.1858  0.1105 -1.5676
19324THY    CA163866   0.852   6.565   3.736 -0.7219  0.6384  0.2512
19324THY    CA263867   0.972   6.487   3.725 -0.1270  0.6364  0.1952
19324THY    CP163868   1.107   6.551   3.765  0.3133 -0.5608 -0.5048
19324THY    HP163869   1.111   6.657   3.736 -1.4607  1.0643  0.0757
19324THY    CP263870   1.228   6.487   3.706  0.1428 -0.3961  0.0243
19324THY    HP263871   1.225   6.475   3.597  1.3733 -0.3516 -0.9346
19324THY    HP363872   1.255   6.393   3.755 -1.4768  0.2775 -0.1264
19324THY    HP463873   1.317   6.549   3.724 -0.3222 -2.0093  1.2435
19324THY    CP363874   1.120   6.553   3.916  0.2474 -0.1594 -0.4372
19324THY    HP563875   1.026   6.593   3.955 -0.3721 -2.0421  0.0839
19324THY    HP663876   1.194   6.621   3.959 -0.7895 -0.6465  1.0642
19324THY    HP763877   1.136   6.451   3.952 -0.1825  0.1868 -0.3853
19324THY    CA363878   0.963   6.353   3.676 -0.3196  0.1249  0.6945
19324THY    HA363879   1.039   6.275   3.679 -1.7962 -1.1466 -0.8933
19324THY    CA463880   0.836   6.301   3.647 -0.2317 -0.7766  0.0403
19324THY    HA463881   0.814   6.195   3.632 -1.7459 -1.5467  0.4370
19324THY    CA563882   0.723   6.383   3.652  0.2300 -0.4493 -0.2792
19324THY    CM163883   0.583   6.330   3.616 -0.4161 -0.2131 -0.5573
19324THY    HM163884   0.594   6.309   3.508  1.5047 -0.8256  2.8965
19324THY    HM263885   0.510   6.410   3.630  1.5358  0.3389  1.2146
19324THY    HM363886   0.549   6.235   3.657  1.7866  1.3138 -0.7496
19324THY    CA663887   0.727   6.513   3.700 -0.1147 -0.5631  0.2044
19324THY    HA663888   0.636   6.568   3.721  0.8126 -0.7134  1.8677
19325THY      O63889   4.618   6.724   7.604 -0.1436  0.2271  0.0226
19325THY     HO63890   4.610   6.803   7.548  1.4200  0.0998  0.1067
19325THY    CA163891   4.584   6.618   7.521 -0.2765 -0.0828 -0.9779
19325THY    CA263892   4.573   6.485   7.565 -0.2799  0.2220 -0.2879
19325THY    CP163893   4.580   6.450   7.710  0.7434  0.3698 -0.5412
19325THY    HP163894   4.638   6.522   7.769 -0.9379  0.1939  1.0173
19325THY    CP263895   4.647   6.314   7.730 -0.0875 -0.1830  0.4144
19325THY    HP263896   4.747   6.308   7.686 -0.4017 -0.9793  0.8380
19325THY    HP363897   4.592   6.227   7.689 -0.8417  1.7213 -0.0517
19325THY    HP463898   4.656   6.297   7.838  1.2526 -0.3764 -0.2445
19325THY    CP363899   4.437   6.434   7.763 -0.3763 -0.0659  0.5263
19325THY    HP563900   4.372   6.371   7.701 -0.6647  2.0973 -1.4588
19325THY    HP663901   4.397   6.534   7.778  0.0313  1.1184  0.5313
19325THY    HP763902   4.438   6.392   7.864  0.9417 -1.0132 -1.9360
19325THY    CA363903   4.531   6.390   7.468 -1.2710  0.1988 -0.3315
19325THY    HA363904   4.511   6.286   7.494  0.6611 -1.9906 -1.3464
19325THY    CA463905   4.521   6.429   7.330  0.1022 -0.3855 -0.2123
19325THY    HA463906   4.490   6.353   7.259  2.3652 -0.6349 -0.9483
19325THY    CA563907   4.557   6.557   7.290 -0.0833 -0.0309 -0.0425
19325THY    CM163908   4.531   6.599   7.156 -0.3283  0.3532 -0.7924
19325THY    HM163909   4.608   6.673   7.128 -1.8790 -0.4026  0.6032
19325THY    HM263910   4.437   6.654   7.142  0.3661 -0.5750  0.1896
19325THY    HM363911   4.537   6.516   7.085 -0.4898 -0.0536 -0.4642
19325THY    CA663912   4.580   6.655   7.388  0.6685 -0.8786  0.4655
19325THY    HA663913   4.581   6.759   7.355 -0.7346 -0.2452  0.6943
19326THY      O63914   3.744   6.779   3.015  0.9032  0.0038  0.8030
19326THY     HO63915   3.837   6.753   3.018  0.2901  0.7052 -1.5638
19326THY    CA163916   3.729   6.823   2.894  0.2963  0.7034 -0.1117
19326THY    CA263917   3.612   6.841   2.821  0.4362 -1.0631 -0.3194
19326THY    CP163918   3.482   6.795   2.897  0.1207 -0.3292  0.1632
19326THY    HP163919   3.493   6.801   3.006 -0.3673 -0.0012 -2.9981
19326THY    CP263920   3.450   6.649   2.887  0.5342 -0.0255 -0.0820
19326THY    HP263921   3.471   6.620   2.783  2.2351  0.2115  0.1520
19326THY    HP363922   3.344   6.644   2.911  0.0314 -1.2472  2.8709
19326THY    HP463923   3.517   6.605   2.962 -0.9572  2.6028  1.8505
19326THY    CP363924   3.358   6.875   2.851  0.2795 -0.3812  0.2945
19326THY    HP563925   3.331   6.850   2.748  1.3350 -0.4524 -0.6556
19326THY    HP663926   3.382   6.982   2.858 -0.6548 -0.3273  0.5031
19326THY    HP763927   3.269   6.865   2.914 -0.7846 -1.7802  0.7628
19326THY    CA363928   3.617   6.892   2.687  1.0435  0.5594  0.4017
19326THY    HA363929   3.528   6.906   2.628  3.0813 -2.5697  1.0605
19326THY    CA463930   3.738   6.930   2.633  0.1690 -0.1588  1.0854
19326THY    HA463931   3.753   6.966   2.532 -0.5161 -0.6486  0.0344
19326THY    CA563932   3.857   6.901   2.703 -0.4531 -0.7574 -0.4610
19326THY    CM163933   3.990   6.940   2.637 -0.1558  0.2996  0.0362
19326THY    HM163934   4.036   6.868   2.569 -0.2128 -0.0225  0.2994
19326THY    HM263935   4.071   6.950   2.711  0.5965 -0.1371 -2.2972
19326THY    HM363936   3.986   7.034   2.580  1.1675  0.9992  0.5468
19326THY    CA663937   3.850   6.850   2.833  0.1345  0.5690 -0.0449
19326THY    HA663938   3.945   6.816   2.873  0.5345 -0.7798 -0.5510
19327THY      O63939   1.503   5.797   3.812 -0.4933  0.3780  1.1591
19327THY     HO63940   1.589   5.817   3.852  0.3642  0.6223 -2.3808
19327THY    CA163941   1.479   5.913   3.751 -0.1288  0.3380  0.3129
19327THY    CA263942   1.344   5.967   3.734 -0.0869 -0.1575 -0.9097
19327THY    CP163943   1.215   5.899   3.783  0.2471 -0.3140  0.2462
19327THY    HP163944   1.246   5.794   3.796  1.8548 -0.6628  0.6530
19327THY    CP263945   1.096   5.900   3.689 -0.3169  1.1917  0.2372
19327THY    HP263946   1.023   5.979   3.709 -0.1405 -1.2028  1.0809
19327THY    HP363947   1.046   5.802   3.687  1.7535 -1.9102 -0.8944
19327THY    HP463948   1.128   5.905   3.585 -0.0849  1.1954 -0.9071
19327THY    CP363949   1.179   5.952   3.924  0.0005 -0.0002  0.0399
19327THY    HP563950   1.265   5.938   3.990  0.0224 -0.0355  0.0096
19327THY    HP663951   1.086   5.904   3.957 -0.1235  2.6579  1.8731
19327THY    HP763952   1.157   6.060   3.917  0.7115 -1.9387  0.0959
19327THY    CA363953   1.326   6.094   3.676  0.1132  0.9439 -0.3122
19327THY    HA363954   1.224   6.123   3.653 -0.6031  2.1991 -1.7480
19327THY    CA463955   1.439   6.171   3.639  0.4996  0.7220  0.0620
19327THY    HA463956   1.423   6.262   3.582 -0.6081  0.1868 -0.4429
19327THY    CA563957   1.569   6.125   3.668  0.0195 -0.2081  0.6096
19327THY    CM163958   1.680   6.201   3.617 -0.2888 -0.4243  0.0972
19327THY    HM163959   1.763   6.179   3.684 -1.5502  1.9407  2.0450
19327THY    HM263960   1.668   6.309   3.632  0.5247  1.7983 -0.0879
19327THY    HM363961   1.698   6.185   3.510 -2.9785 -0.6584 -2.2073
19327THY    CA663962   1.590   5.998   3.719  1.0523 -0.4824  0.8858
19327THY    HA663963   1.691   5.960   3.732  1.5129 -2.5014  1.2712
19328THY      O63964   2.334   8.813   4.378 -0.0626  0.3174 -0.5548
19328THY     HO63965   2.259   8.808   4.440 -0.4172 -0.0019  0.4987
19328THY    CA163966   2.431   8.870   4.452 -0.4249 -0.6912 -0.5183
19328THY    CA263967   2.567   8.882   4.410 -1.0618 -0.5038 -0.1879
19328THY    CP163968   2.614   8.830   4.272 -0.2084  0.6685  0.3617
19328THY    HP163969   2.528   8.831   4.204 -0.9934  1.5905 -0.9782
19328THY    CP263970   2.659   8.683   4.287  0.1639  0.9236  0.6498
19328THY    HP263971   2.719   8.674   4.379  0.4633  0.8827  1.9937
19328THY    HP363972   2.702   8.637   4.197  1.1372  1.6651  0.0586
19328THY    HP463973   2.567   8.630   4.313 -1.8414 -0.7533  3.0904
19328THY    CP363974   2.722   8.918   4.217 -0.1053  0.0629  0.4149
19328THY    HP563975   2.731   8.912   4.108  0.1079  0.0488  0.9749
19328THY    HP663976   2.816   8.899   4.270 -0.1648 -0.3219 -1.0682
19328THY    HP763977   2.709   9.025   4.234 -0.9698 -1.2836  0.5443
19328THY    CA363978   2.653   8.956   4.491  0.0225 -0.4803 -0.3585
19328THY    HA363979   2.750   8.997   4.466 -0.7517  0.0661  1.9376
19328THY    CA463980   2.606   8.998   4.619  0.7191 -0.5185  1.1548
19328THY    HA463981   2.670   9.050   4.689 -1.1885  1.6297  0.7334
19328THY    CA563982   2.472   8.989   4.660  0.1829  0.1871  0.4470
19328THY    CM163983   2.430   9.055   4.789 -0.4494 -0.3129  0.1182
19328THY    HM163984   2.434   8.993   4.879  1.0386  0.7581  1.6578
19328THY    HM263985   2.336   9.110   4.777  0.7123 -0.8971  2.0961
19328THY    HM363986   2.508   9.128   4.812  2.0624  0.0543 -2.5047
19328THY    CA663987   2.385   8.915   4.580  0.1875 -0.2609  0.8079
19328THY    HA663988   2.285   8.900   4.618  0.2387 -0.9156 -1.5919
19329THY      O63989   1.686   7.813   7.223  0.2027  0.5766 -0.5948
19329THY     HO63990   1.702   7.906   7.246  4.5528 -0.4070 -0.8624
19329THY    CA163991   1.558   7.790   7.187 -0.0464  0.6055  0.5366
19329THY    CA263992   1.513   7.661   7.142  0.4279  0.1149 -0.2008
19329THY    CP163993   1.604   7.539   7.150 -0.0733  0.3003  0.0163
19329THY    HP163994   1.690   7.551   7.216  0.7025 -0.3000 -1.9051
19329THY    CP263995   1.654   7.498   7.008 -0.5303  0.0420  0.1927
19329THY    HP263996   1.577   7.449   6.948  0.2397 -0.6131 -0.2374
19329THY    HP363997   1.735   7.425   7.006 -1.9979  1.3597 -1.5685
19329THY    HP463998   1.695   7.580   6.948 -0.1628  0.2042  0.1271
19329THY    CP363999   1.553   7.414   7.218 -0.3548  0.2520  0.5036
19329THY    HP564000   1.627   7.334   7.218  0.3109  2.0469  1.0803
19329THY    HP664001   1.466   7.382   7.160  0.2510 -0.9818  1.0104
19329THY    HP764002   1.516   7.444   7.317  0.6014  0.4605  1.0254
19329THY    CA364003   1.378   7.648   7.090 -0.6871 -0.3158  0.1073
19329THY    HA364004   1.349   7.547   7.062  2.2029  0.6463 -1.0739
19329THY    CA464005   1.286   7.758   7.102  0.9218  0.0263 -0.0675
19329THY    HA464006   1.183   7.731   7.080  0.7031 -1.4180  1.7790
19329THY    CA564007   1.333   7.876   7.152  0.3404 -0.1079 -0.0859
19329THY    CM164008   1.231   7.991   7.151 -0.1299  0.1963  0.3333
19329THY    HM164009   1.166   7.987   7.239 -0.5551 -0.1819 -1.9930
19329THY    HM264010   1.170   7.990   7.059 -1.7111  1.2210 -0.0654
19329THY    HM364011   1.287   8.085   7.152  0.7060  0.1261 -0.1593
19329THY    CA664012   1.469   7.900   7.183 -0.5648 -0.4034  1.2109
19329THY    HA664013   1.501   8.000   7.211 -0.8348 -0.1053  1.2149
19330THY      O64014   8.131   7.409   6.702 -0.1902 -0.4697  0.3247
19330THY     HO64015   8.179   7.324   6.703  0.4942  1.0541  0.6846
19330THY    CA164016   8.020   7.406   6.770  0.7730 -0.2330 -0.1355
19330THY    CA264017   7.905   7.488   6.742 -0.6100  0.0584  0.5548
19330THY    CP164018   7.909   7.587   6.622 -0.2503  0.1342 -0.2410
19330THY    HP164019   7.997   7.581   6.558 -0.9220 -0.7775 -0.5011
19330THY    CP264020   7.894   7.732   6.662  0.8409  0.0840 -0.2232
19330THY    HP264021   7.971   7.759   6.735  1.5126 -0.4214 -0.7392
19330THY    HP364022   7.792   7.746   6.699  0.6492 -0.4778 -0.1051
19330THY    HP464023   7.896   7.791   6.569  0.0167 -0.7568 -1.4543
19330THY    CP364024   7.802   7.552   6.513 -0.1101 -0.7223 -0.0453
19330THY    HP564025   7.707   7.534   6.564  0.6875  0.3709 -1.3927
19330THY    HP664026   7.829   7.449   6.488  1.4942 -0.2529  0.2367
19330THY    HP764027   7.795   7.609   6.419  0.1292 -0.6156  0.1636
19330THY    CA364028   7.790   7.475   6.821 -0.1666  0.4210 -0.0470
19330THY    HA364029   7.702   7.538   6.811  0.5605  0.2574  0.9709
19330THY    CA464030   7.796   7.389   6.933 -0.2086  0.9793 -0.5290
19330THY    HA464031   7.705   7.374   6.990 -2.2152 -2.1633 -1.4275
19330THY    CA564032   7.913   7.313   6.959  0.1330 -0.5185 -0.6308
19330THY    CM164033   7.916   7.218   7.073 -0.2575  0.0287  0.1749
19330THY    HM164034   7.823   7.226   7.130  0.3172  0.8367  1.2698
19330THY    HM264035   8.000   7.253   7.133  0.4931 -1.4739  1.0474
19330THY    HM364036   7.935   7.116   7.037  0.5713 -1.7705  0.9079
19330THY    CA664037   8.021   7.322   6.876  0.0435  0.0339 -0.0532
19330THY    HA664038   8.109   7.260   6.892 -0.9458  1.9806 -1.0484
19331THY      O64039   4.452   3.315   5.863  0.0582 -0.7418 -0.0431
19331THY     HO64040   4.542   3.298   5.896  0.3535 -1.8814 -0.7562
19331THY    CA164041   4.398   3.192   5.868 -0.6358  0.0654  0.5893
19331THY    CA264042   4.263   3.164   5.848 -0.5982  0.6291 -0.8460
19331THY    CP164043   4.172   3.282   5.817 -0.2425  0.1091 -0.1336
19331THY    HP164044   4.231   3.355   5.760 -2.3856 -1.1886  0.6872
19331THY    CP264045   4.126   3.355   5.940  0.6982 -0.6425  0.2214
19331THY    HP264046   4.212   3.414   5.973  0.1127 -1.2712  1.4649
19331THY    HP364047   4.091   3.275   6.006  0.1002 -2.3718 -1.0178
19331THY    HP464048   4.049   3.431   5.922  0.7135  0.6592  0.5664
19331THY    CP364049   4.044   3.241   5.736 -0.5807  0.3712  0.5476
19331THY    HP564050   3.967   3.198   5.802  1.0184  0.6889 -2.0268
19331THY    HP664051   4.078   3.182   5.650  0.0919  0.3665  0.9271
19331THY    HP764052   3.991   3.329   5.700  0.0944  0.3565  0.9570
19331THY    CA364053   4.205   3.038   5.874 -0.4748  0.1668  0.8092
19331THY    HA364054   4.099   3.016   5.868 -0.3053  0.2915 -0.0739
19331THY    CA464055   4.292   2.938   5.924 -0.4532  0.1074  0.1706
19331THY    HA464056   4.262   2.834   5.938  0.7241 -1.3971 -0.4206
19331THY    CA564057   4.432   2.959   5.930 -0.2942 -0.0802  0.0662
19331THY    CM164058   4.526   2.841   5.950 -0.2791  0.5009 -0.1927
19331THY    HM164059   4.486   2.759   6.010 -2.6591 -2.0593 -1.0704
19331THY    HM264060   4.626   2.870   5.985 -0.0753 -0.3337  0.1730
19331THY    HM364061   4.531   2.791   5.852  0.2340 -0.2670  1.2835
19331THY    CA664062   4.475   3.084   5.910 -1.1923  0.0348 -0.5384
19331THY    HA664063   4.583   3.100   5.914 -1.3057 -0.1264  0.3147
19332THY      O64064   0.858   4.707   3.885 -0.1640 -0.6921 -0.3031
19332THY     HO64065   0.764   4.682   3.882 -0.0579  0.5393 -0.9111
19332THY    CA164066   0.928   4.606   3.841 -0.7676  0.3471  0.4571
19332THY    CA264067   1.065   4.606   3.820  0.4106  0.2285 -0.2585
19332THY    CP164068   1.151   4.714   3.883 -0.3916 -0.0946 -0.6133
19332THY    HP164069   1.093   4.790   3.937 -1.4717 -2.5338  0.4432
19332THY    CP264070   1.224   4.805   3.777  0.3662  0.1392 -0.2203
19332THY    HP264071   1.175   4.903   3.778 -0.0315  0.2775 -0.4156
19332THY    HP364072   1.209   4.764   3.677 -0.4553  0.0129  0.3591
19332THY    HP464073   1.330   4.818   3.803  1.3353 -1.7362 -3.3294
19332THY    CP364074   1.249   4.652   3.982  0.0860 -0.3955  0.1710
19332THY    HP564075   1.328   4.725   4.002  2.6425 -1.0131 -2.2697
19332THY    HP664076   1.292   4.553   3.962  1.5492  0.4062  0.6166
19332THY    HP764077   1.195   4.643   4.077 -0.7149 -1.0152 -2.3048
19332THY    CA364078   1.127   4.500   3.746  0.3207  1.3023  0.3968
19332THY    HA364079   1.235   4.500   3.731  0.1516 -0.0656  0.5071
19332THY    CA464080   1.047   4.394   3.687 -0.2898  0.2050 -0.8887
19332THY    HA464081   1.079   4.316   3.618 -1.8066  0.6467 -1.9686
19332THY    CA564082   0.911   4.395   3.715  0.1464 -0.2951  0.5721
19332THY    CM164083   0.817   4.291   3.653  0.3265  0.4873  0.6530
19332THY    HM164084   0.823   4.202   3.716  2.4355 -0.9884 -0.3263
19332THY    HM264085   0.865   4.252   3.562  0.6336 -0.2678  2.6719
19332THY    HM364086   0.716   4.320   3.622  0.8178  0.4554  2.5044
19332THY    CA664087   0.853   4.498   3.790 -0.5929  0.3003  0.2196
19332THY    HA664088   0.747   4.498   3.815 -0.5009  0.7810 -1.3369
19333THY      O64089   4.154   0.905   3.482 -0.0437 -0.2141 -0.0801
19333THY     HO64090   4.136   0.999   3.465  1.3365  3.0078  0.9114
19333THY    CA164091   4.249   0.861   3.396 -0.2179  0.2642 -0.0186
19333THY    CA264092   4.310   0.732   3.410  0.0300  0.2391  0.9332
19333THY    CP164093   4.274   0.635   3.520  0.0420  0.6109  0.0595
19333THY    HP164094   4.178   0.662   3.566 -0.5867 -0.4072 -0.4025
19333THY    CP264095   4.369   0.635   3.634  0.4991 -0.2174 -0.7573
19333THY    HP264096   4.385   0.734   3.678 -0.6265  1.5701 -1.3186
19333THY    HP364097   4.462   0.583   3.607  1.7811 -0.0110  1.3154
19333THY    HP464098   4.318   0.580   3.714  0.0128  1.9284  2.5298
19333THY    CP364099   4.243   0.490   3.476  0.9921 -0.4095  0.2025
19333THY    HP564100   4.155   0.482   3.410  0.0217  1.0384 -1.9830
19333THY    HP664101   4.220   0.435   3.568 -0.0419  0.1776  1.5596
19333THY    HP764102   4.323   0.443   3.418 -0.1270 -3.3579  1.6131
19333THY    CA364103   4.405   0.692   3.311  0.3216 -1.0463  0.0722
19333THY    HA364104   4.454   0.595   3.311  1.6433  1.9345  0.6304
19333THY    CA464105   4.421   0.771   3.199  0.0973 -0.0941 -0.9456
19333THY    HA464106   4.483   0.749   3.113  1.5489  0.2044  1.6082
19333THY    CA564107   4.372   0.902   3.192  0.8230 -0.3002 -0.2723
19333THY    CM164108   4.413   0.989   3.070  0.1717  0.4356  0.0149
19333THY    HM164109   4.385   0.929   2.982 -2.2765  0.0012  1.6357
19333THY    HM264110   4.518   1.019   3.078 -0.2496 -0.5756  1.9202
19333THY    HM364111   4.341   1.071   3.063 -0.0695 -1.5535 -0.3229
19333THY    CA664112   4.286   0.944   3.294  0.6096 -0.2097 -0.8794
19333THY    HA664113   4.250   1.046   3.290 -0.4067  0.3029 -1.2083
19334THY      O64114   6.379   0.536   4.938  0.0315 -0.3458  0.1330
19334THY     HO64115   6.361   0.585   4.856 -1.5994 -0.1706 -0.1224
19334THY    CA164116   6.350   0.633   5.028  0.2488  0.1417 -0.6528
19334THY    CA264117   6.428   0.671   5.132 -0.7089  0.0749 -0.5085
19334THY    CP164118   6.544   0.582   5.174 -0.4428 -0.0433  0.5845
19334THY    HP164119   6.522   0.475   5.164 -0.9460  0.6382  0.6190
19334THY    CP264120   6.567   0.594   5.327 -1.1198  0.4595 -0.3160
19334THY    HP264121   6.484   0.555   5.386  0.7744  1.1525 -3.7257
19334THY    HP364122   6.600   0.697   5.344 -0.4860  0.8159 -0.5726
19334THY    HP464123   6.656   0.540   5.363 -2.2448  3.2004 -0.4892
19334THY    CP364124   6.668   0.620   5.092  0.2474  0.3442 -0.1415
19334THY    HP564125   6.689   0.718   5.135 -3.6547  2.8372 -0.1823
19334THY    HP664126   6.647   0.619   4.985 -1.1205  0.5896 -1.0614
19334THY    HP764127   6.749   0.549   5.114 -0.3710 -0.6066 -1.1699
19334THY    CA364128   6.393   0.787   5.201  0.4872  0.6894  0.2730
19334THY    HA364129   6.459   0.826   5.278  1.0962  0.8493 -1.0361
19334THY    CA464130   6.278   0.854   5.166  0.2472  0.3890 -0.3404
19334THY    HA464131   6.244   0.933   5.232  0.2464  2.5406 -2.0569
19334THY    CA564132   6.195   0.815   5.058 -0.3540  0.2806  0.7746
19334THY    CM164133   6.080   0.894   5.013  0.3258  0.4720  0.1432
19334THY    HM164134   6.096   0.918   4.907 -1.6428  0.1435  0.1533
19334THY    HM264135   6.075   0.987   5.071  0.2959  1.7749 -0.6514
19334THY    HM364136   5.987   0.840   5.033  0.2309  3.9842  1.3915
19334THY    CA664137   6.241   0.712   4.987 -0.0836  0.0769  0.7256
19334THY    HA664138   6.184   0.679   4.900  2.5692 -0.8194 -1.8896
19335THY      O64139   1.511   1.485   6.814  0.1514  0.7211  0.1564
19335THY     HO64140   1.444   1.425   6.851  1.3555 -0.1364 -1.8018
19335THY    CA164141   1.603   1.508   6.917 -0.1432  0.6829  0.1901
19335THY    CA264142   1.705   1.418   6.947  0.6174 -0.2453 -0.0260
19335THY    CP164143   1.719   1.290   6.862  0.0612 -0.3470  0.8233
19335THY    HP164144   1.627   1.285   6.803  0.9668 -1.9870  2.3346
19335THY    CP264145   1.738   1.158   6.942 -0.4416 -0.1930  0.4701
19335THY    HP264146   1.823   1.179   7.008 -1.0339 -0.0281  2.6439
19335THY    HP364147   1.753   1.080   6.868  0.7328  1.3426 -0.8307
19335THY    HP464148   1.645   1.144   6.999  0.6730  1.7452  0.5238
19335THY    CP364149   1.839   1.309   6.766  0.0065  0.4841  0.4262
19335THY    HP564150   1.861   1.216   6.713  1.2867  0.7780  0.5341
19335THY    HP664151   1.929   1.338   6.822  0.0041  0.7485 -0.0580
19335THY    HP764152   1.801   1.392   6.706  2.9998 -0.0423  1.5332
19335THY    CA364153   1.796   1.456   7.049  0.7761  0.0820  0.4207
19335THY    HA364154   1.884   1.395   7.070 -0.5985 -2.0758 -2.6236
19335THY    CA464155   1.788   1.583   7.105  0.8953 -0.3652 -0.0344
19335THY    HA464156   1.865   1.623   7.170 -0.6332  1.3949  0.1651
19335THY    CA564157   1.678   1.666   7.073  0.0528 -1.1745  0.2667
19335THY    CM164158   1.667   1.797   7.147 -0.2182 -0.0859  0.2372
19335THY    HM164159   1.572   1.805   7.200 -0.4625 -0.6089  0.8603
19335THY    HM264160   1.666   1.880   7.074  0.4862 -1.7321 -1.1402
19335THY    HM364161   1.751   1.801   7.217 -0.9404  0.7929  0.2130
19335THY    CA664162   1.585   1.628   6.984  1.2264 -0.0165  0.6290
19335THY    HA664163   1.510   1.701   6.955  0.2198  0.6405 -0.1110
19336THY      O64164   5.913   7.265   5.821 -0.0321  0.1200  0.7274
19336THY     HO64165   5.834   7.210   5.812  0.4551 -0.9010  0.1567
19336THY    CA164166   5.940   7.298   5.946 -0.3358  0.1391 -0.7439
19336THY    CA264167   6.008   7.419   5.975  0.6597 -0.2528  0.4686
19336THY    CP164168   6.048   7.519   5.868  0.3048  0.8189  0.2599
19336THY    HP164169   5.999   7.499   5.772  2.7130  0.0438 -2.5655
19336THY    CP264170   6.194   7.492   5.825 -0.2451  0.0470 -0.1813
19336THY    HP264171   6.198   7.393   5.778  0.2439  1.1221 -0.6879
19336THY    HP364172   6.252   7.467   5.914 -3.1401  2.2620  0.4834
19336THY    HP464173   6.238   7.568   5.759 -1.1940 -2.0171 -1.3382
19336THY    CP364174   6.024   7.660   5.908  0.1142 -0.0666 -0.0021
19336THY    HP564175   6.028   7.722   5.818  1.2588 -0.2486 -0.3185
19336THY    HP664176   6.106   7.692   5.974  0.4517 -0.0926 -0.7893
19336THY    HP764177   5.929   7.672   5.962  0.6188  0.5855  1.2996
19336THY    CA364178   6.043   7.449   6.109  0.0765 -0.6313  0.2660
19336THY    HA364179   6.101   7.537   6.136  1.2228 -3.1410  0.3631
19336THY    CA464180   6.011   7.362   6.212 -0.7535 -0.2073  0.0754
19336THY    HA464181   6.045   7.387   6.312  2.6300 -1.0874 -0.5322
19336THY    CA564182   5.931   7.247   6.181  0.0364 -0.4251 -0.4373
19336THY    CM164183   5.891   7.152   6.297  0.0245  0.3601 -0.2622
19336THY    HM164184   5.846   7.212   6.377 -1.7415  1.1768 -2.5445
19336THY    HM264185   5.981   7.103   6.338 -0.0867 -0.3154 -1.0440
19336THY    HM364186   5.813   7.079   6.275 -1.7339  2.2764  0.9183
19336THY    CA664187   5.897   7.214   6.053  0.3834  0.4560 -0.2634
19336THY    HA664188   5.835   7.129   6.028 -2.1924 -2.4445  2.2351
19337THY      O64189   3.408   7.744   5.767  0.4241  0.0649  0.5921
19337THY     HO64190   3.361   7.665   5.735  2.5809  1.1094 -1.2502
19337THY    CA164191   3.314   7.806   5.841  0.6691 -0.2890 -0.1712
19337THY    CA264192   3.338   7.933   5.906 -0.6313  0.3419 -0.8744
19337THY    CP164193   3.471   8.001   5.903 -0.2825 -0.1192 -0.4725
19337THY    HP164194   3.555   7.932   5.893  1.0437 -0.4373  1.1334
19337THY    CP264195   3.503   8.082   6.029  0.2868  0.5443 -0.2628
19337THY    HP264196   3.472   8.024   6.116 -1.5651 -1.1948 -2.0422
19337THY    HP364197   3.444   8.174   6.030  0.8134 -1.2239  0.1508
19337THY    HP464198   3.609   8.110   6.035  1.4580  0.5668 -4.1457
19337THY    CP364199   3.494   8.098   5.789  0.1677 -0.2136 -0.3963
19337THY    HP564200   3.592   8.144   5.771 -1.2338 -1.4666  2.3359
19337THY    HP664201   3.416   8.172   5.768 -0.6793 -0.5150 -1.3597
19337THY    HP764202   3.489   8.036   5.698 -2.5055 -1.7084  1.7626
19337THY    CA364203   3.231   7.994   5.976  0.2794  0.6033 -0.6488
19337THY    HA364204   3.243   8.092   6.020 -0.0170  0.3723 -0.5040
19337THY    CA464205   3.111   7.921   5.983 -1.1798 -0.1045  0.2903
19337THY    HA464206   3.030   7.954   6.048 -1.7197  0.1368 -1.3982
19337THY    CA564207   3.088   7.802   5.918  0.5293  0.1634 -0.5864
19337THY    CM164208   2.952   7.740   5.924  0.5161  0.5291 -0.3259
19337THY    HM164209   2.912   7.749   6.026 -0.7140  0.0485 -0.1459
19337THY    HM264210   2.933   7.636   5.895 -2.7692  0.2429  0.2370
19337THY    HM364211   2.885   7.793   5.855 -1.5968  0.0144 -3.4323
19337THY    CA664212   3.187   7.744   5.851 -0.4571  0.0419 -0.4131
19337THY    HA664213   3.168   7.656   5.790  0.2278 -2.8896  1.3363
19338THY      O64214   8.247   0.958   2.189  0.1298 -0.1196  0.1413
19338THY     HO64215   8.229   0.863   2.179  0.7955 -1.4814  0.1294
19338THY    CA164216   8.274   1.010   2.311 -0.0808  0.2871  0.1002
19338THY    CA264217   8.328   1.141   2.329 -0.3507  0.3898 -0.7900
19338THY    CP164218   8.355   1.234   2.206 -0.7735  0.2853  0.5108
19338THY    HP164219   8.293   1.202   2.122 -1.6355  0.6319  1.2355
19338THY    CP264220   8.501   1.221   2.156 -0.6932 -0.6318  0.1232
19338THY    HP264221   8.573   1.238   2.237  0.6499 -1.5691 -0.8564
19338THY    HP364222   8.523   1.291   2.075  2.3148 -0.6139 -0.6584
19338THY    HP464223   8.520   1.122   2.112 -1.0855 -1.7623  0.5414
19338THY    CP364224   8.329   1.386   2.219  0.9052 -0.4574 -0.1274
19338THY    HP564225   8.229   1.401   2.263 -0.4211 -2.8219 -1.4391
19338THY    HP664226   8.314   1.438   2.124 -1.3078  0.5586  1.2772
19338THY    HP764227   8.406   1.434   2.280 -1.2321  1.9723  0.4565
19338THY    CA364228   8.350   1.183   2.458  0.4442  0.4099  0.1461
19338THY    HA364229   8.375   1.289   2.470  2.4369 -2.4987  0.1237
19338THY    CA464230   8.322   1.100   2.572 -0.5142  0.1331 -0.1746
19338THY    HA464231   8.338   1.138   2.672 -2.5709 -0.1281  1.6347
19338THY    CA564232   8.269   0.965   2.548 -0.6269  0.5599 -1.0387
19338THY    CM164233   8.248   0.874   2.674  0.1896 -0.4102  0.3150
19338THY    HM164234   8.153   0.819   2.679 -0.4243 -0.3523  1.3655
19338THY    HM264235   8.250   0.928   2.769  0.7530 -0.8304  1.0482
19338THY    HM364236   8.324   0.795   2.672  0.4079  0.3021  0.5044
19338THY    CA664237   8.239   0.920   2.417 -1.2279 -0.5059  0.0440
19338THY    HA664238   8.205   0.818   2.403  0.1414  0.9126 -0.6522
19339THY      O64239   5.558   0.566   5.114  0.4102  0.2950 -0.1894
19339THY     HO64240   5.555   0.490   5.175 -0.7863 -1.6046 -1.7558
19339THY    CA164241   5.672   0.552   5.041 -0.4616 -0.3327 -0.4343
19339THY    CA264242   5.678   0.582   4.907 -0.1428 -0.0974 -0.6792
19339THY    CP164243   5.555   0.647   4.838 -0.0077 -0.2710 -0.1676
19339THY    HP164244   5.459   0.614   4.879  0.0671 -0.6251 -0.8460
19339THY    CP264245   5.545   0.621   4.689  0.1157 -0.6393 -0.2249
19339THY    HP264246   5.443   0.622   4.649 -0.4193  0.5969 -1.3784
19339THY    HP364247   5.570   0.515   4.673 -1.7660 -1.3278 -0.6001
19339THY    HP464248   5.618   0.682   4.635  1.0161  0.6488 -0.1354
19339THY    CP364249   5.560   0.800   4.870  0.0406  0.1937 -0.5355
19339THY    HP564250   5.547   0.808   4.979 -0.8993  0.3515 -3.0555
19339THY    HP664251   5.476   0.841   4.812  0.3776  0.9989  1.4076
19339THY    HP764252   5.646   0.857   4.835 -0.6925  0.3262  0.6874
19339THY    CA364253   5.804   0.583   4.844  0.4664 -0.2152  0.8767
19339THY    HA364254   5.813   0.609   4.739 -3.4933 -1.2687 -1.2372
19339THY    CA464255   5.922   0.550   4.920  0.0429 -0.0933  0.1275
19339THY    HA464256   6.018   0.548   4.871 -0.0492 -0.2830  0.3881
19339THY    CA564257   5.906   0.497   5.051 -0.2396  0.4027  0.0099
19339THY    CM164258   6.018   0.438   5.129  0.7524 -0.9122  0.0173
19339THY    HM164259   6.062   0.354   5.075  0.3097 -0.3199 -0.6062
19339THY    HM264260   5.984   0.412   5.231 -2.2077 -1.0315  2.7633
19339THY    HM364261   6.096   0.514   5.135  0.9521 -4.4609  0.2266
19339THY    CA664262   5.782   0.506   5.110  0.1056 -0.6276  0.1556
19339THY    HA664263   5.773   0.478   5.214  1.4870  0.3085  2.8177
19340THY      O64264   2.310   7.859   5.733  0.1843  0.2027  0.0031
19340THY     HO64265   2.247   7.786   5.746  0.4129  0.5079 -0.1420
19340THY    CA164266   2.371   7.820   5.620 -0.8689  0.3041 -0.6108
19340THY    CA264267   2.504   7.870   5.580  0.9436 -0.4247  0.5267
19340THY    CP164268   2.583   7.971   5.661 -0.0062 -0.2199 -0.7222
19340THY    HP164269   2.514   8.054   5.681  1.7377 -0.5749  0.8773
19340THY    CP264270   2.700   8.040   5.582  0.5773 -0.3863 -0.5974
19340THY    HP264271   2.731   8.120   5.650  1.2820 -0.6536 -0.6432
19340THY    HP364272   2.659   8.077   5.488 -0.8866 -0.0752 -1.3239
19340THY    HP464273   2.785   7.976   5.559  1.2841 -1.6252  0.7340
19340THY    CP364274   2.640   7.912   5.787 -0.2847 -0.3209 -0.0051
19340THY    HP564275   2.687   7.817   5.759 -0.5605  2.1570 -0.9412
19340THY    HP664276   2.563   7.905   5.865  0.8849  0.8158 -0.9257
19340THY    HP764277   2.708   7.980   5.839 -0.4884 -0.1660  0.0808
19340THY    CA364278   2.562   7.806   5.465 -0.8173 -0.1144  0.8086
19340THY    HA364279   2.661   7.838   5.435 -0.7933  0.1004  0.9397
19340THY    CA464280   2.491   7.711   5.385 -0.1215 -0.7414 -0.1736
19340THY    HA464281   2.529   7.677   5.289 -0.6269 -1.9075  2.2652
19340THY    CA564282   2.365   7.669   5.429  1.0478  0.0473 -0.1618
19340THY    CM164283   2.303   7.557   5.352 -0.4293 -0.4705  0.0997
19340THY    HM164284   2.325   7.468   5.413 -1.1528 -0.8392 -0.3386
19340THY    HM264285   2.341   7.549   5.250 -1.0507 -0.5562 -3.1067
19340THY    HM364286   2.195   7.571   5.366 -0.1760  1.7684  0.2376
19340THY    CA664287   2.308   7.726   5.544 -0.4669  0.3572 -0.1458
19340THY    HA664288   2.207   7.696   5.572 -1.3723  0.1707  2.4901
19341THY      O64289   4.085   7.546   6.163 -0.3749  1.0964  0.0904
19341THY     HO64290   4.161   7.491   6.188 -1.1151  0.4497 -1.2612
19341THY    CA164291   4.086   7.663   6.230  0.3289  0.2218  0.2550
19341THY    CA264292   4.006   7.777   6.190  0.8070 -0.2737  0.4017
19341THY    CP164293   3.939   7.770   6.048 -0.0990  0.1335  0.3131
19341THY    HP164294   3.949   7.674   5.996 -2.1638  2.4573 -1.2766
19341THY    CP264295   4.000   7.874   5.957 -0.1768 -0.0960  0.2350
19341THY    HP264296   4.092   7.840   5.908 -0.4149 -0.8520  0.6805
19341THY    HP364297   4.030   7.969   6.004  2.3924 -1.0509 -0.0126
19341THY    HP464298   3.938   7.888   5.868  0.9895 -1.3078 -1.8236
19341THY    CP364299   3.796   7.794   6.055  0.1619 -0.2695  0.1423
19341THY    HP564300   3.774   7.898   6.081  0.5933  0.7492 -0.0133
19341THY    HP664301   3.745   7.730   6.127 -0.3377 -2.5440 -2.1879
19341THY    HP764302   3.759   7.765   5.956  1.7489 -0.9833  0.4418
19341THY    CA364303   3.997   7.883   6.286 -0.6820 -0.1598  0.5194
19341THY    HA364304   3.944   7.973   6.256 -1.8754 -2.0849 -0.7574
19341THY    CA464305   4.074   7.882   6.406 -0.4757 -0.6198  0.0995
19341THY    HA464306   4.064   7.962   6.479  0.2225  0.9042 -1.1404
19341THY    CA564307   4.149   7.773   6.440 -0.1910  0.5020 -0.1097
19341THY    CM164308   4.202   7.777   6.579 -0.4374  0.3596 -0.1582
19341THY    HM164309   4.278   7.701   6.602 -1.1343 -0.4850 -1.1377
19341THY    HM264310   4.121   7.760   6.650 -1.0648 -0.1923  0.4812
19341THY    HM364311   4.238   7.877   6.606 -2.6614  0.3659  0.6970
19341THY    CA664312   4.162   7.666   6.351 -0.1387 -0.1913  0.9081
19341THY    HA664313   4.218   7.577   6.379  1.1416  3.0029  2.5708
19342THY      O64314   8.765   1.004   7.371  0.6303  0.2605  0.4993
19342THY     HO64315   8.761   0.907   7.379 -0.2400  1.7813  0.6329
19342THY    CA164316   8.790   1.029   7.497  0.4107 -0.1032 -0.3216
19342THY    CA264317   8.853   1.150   7.535  0.1198 -0.0307  0.4836
19342THY    CP164318   8.902   1.244   7.428 -0.2487 -0.1623 -0.5009
19342THY    HP164319   8.894   1.210   7.324  1.9808 -1.6119  2.8378
19342THY    CP264320   9.048   1.297   7.439  0.1377  0.2242  0.1026
19342THY    HP264321   9.115   1.216   7.472  1.3504 -1.4215  0.3610
19342THY    HP364322   9.054   1.377   7.513  1.3036  0.2803 -0.0140
19342THY    HP464323   9.081   1.335   7.341  2.5447  0.2417 -1.6935
19342THY    CP364324   8.806   1.368   7.414 -0.4247  0.6344  0.0284
19342THY    HP564325   8.813   1.443   7.493  1.3274  0.0455  0.5198
19342THY    HP664326   8.705   1.325   7.417  0.3965  3.3894 -1.9633
19342THY    HP764327   8.821   1.412   7.315 -0.3771 -0.2680 -1.8772
19342THY    CA364328   8.880   1.170   7.665 -0.2344 -0.2714  0.4200
19342THY    HA364329   8.911   1.267   7.704 -1.6007  1.9887  0.0250
19342THY    CA464330   8.854   1.066   7.757 -0.1502  1.1935  0.1416
19342THY    HA464331   8.876   1.077   7.863  0.5044  1.0211  0.5776
19342THY    CA564332   8.797   0.941   7.721  0.6564  0.0528 -0.3070
19342THY    CM164333   8.780   0.829   7.815  0.2252  0.3983 -0.4187
19342THY    HM164334   8.675   0.820   7.846 -0.1181 -0.0658  1.6391
19342THY    HM264335   8.836   0.844   7.908 -0.0738  0.4898  0.1528
19342THY    HM364336   8.816   0.733   7.776  1.7795  2.8623 -0.9329
19342THY    CA664337   8.767   0.926   7.587  0.1720 -0.6589  0.3524
19342THY    HA664338   8.712   0.835   7.566  0.0063 -2.3429  0.8144
19343THY      O64339   1.053   2.427   2.640  0.4032  0.5134 -0.1945
19343THY     HO64340   0.999   2.364   2.590 -0.8906  0.3338  1.0001
19343THY    CA164341   0.959   2.511   2.689 -0.5731  0.2934  0.2636
19343THY    CA264342   0.971   2.539   2.829  0.2484  0.1695  0.7109
19343THY    CP164343   1.071   2.462   2.915  0.3328  0.1914 -0.2409
19343THY    HP164344   1.158   2.428   2.857  0.4067  0.5235 -0.6363
19343THY    CP264345   1.014   2.346   2.983 -0.1013 -0.3237 -0.4796
19343THY    HP264346   0.954   2.283   2.916  1.6219 -1.0002 -1.4679
19343THY    HP364347   0.960   2.384   3.071 -0.0787 -0.6669  0.3592
19343THY    HP464348   1.093   2.277   3.016 -0.9720 -2.0072 -2.3973
19343THY    CP364349   1.130   2.562   3.024 -0.6520 -0.0248 -0.0913
19343THY    HP564350   1.197   2.516   3.098  0.3875  0.1961  1.7022
19343THY    HP664351   1.054   2.607   3.089 -2.5086  0.5414 -3.6410
19343THY    HP764352   1.194   2.637   2.978  2.0119  0.6998 -1.7710
19343THY    CA364353   0.875   2.629   2.879  0.1963 -0.3202  0.4242
19343THY    HA364354   0.872   2.652   2.985 -2.2461  0.2055 -1.8943
19343THY    CA464355   0.776   2.689   2.797  0.1492  0.0577  0.5015
19343THY    HA464356   0.690   2.739   2.840 -1.5230 -0.3162 -1.8766
19343THY    CA564357   0.777   2.664   2.661  0.5547  0.6602  0.3193
19343THY    CM164358   0.679   2.726   2.570 -0.3949  1.0776  0.5475
19343THY    HM164359   0.705   2.723   2.464 -1.5363  0.8064 -0.8515
19343THY    HM264360   0.655   2.828   2.602 -0.3292  1.4305  0.4561
19343THY    HM364361   0.584   2.672   2.581 -0.5016 -0.9023  0.2761
19343THY    CA664362   0.870   2.574   2.610 -0.5560 -0.3239 -0.9822
19343THY    HA664363   0.865   2.562   2.502 -0.2348 -0.4839  0.1708
19344THY      O64364   2.511   5.992   5.841 -0.0510 -0.4185  0.4159
19344THY     HO64365   2.465   5.995   5.755 -0.3425 -0.2363  1.5190
19344THY    CA164366   2.441   6.057   5.934  0.0142 -0.3904 -0.1705
19344THY    CA264367   2.473   6.050   6.074 -0.0065  0.0396 -0.5859
19344THY    CP164368   2.587   5.957   6.118 -0.5812  0.2261 -0.4690
19344THY    HP164369   2.659   5.952   6.036 -0.9902 -0.1026 -1.1098
19344THY    CP264370   2.543   5.814   6.147  0.2336 -0.5582  0.4121
19344THY    HP264371   2.451   5.820   6.205  1.0420  0.8991 -0.7338
19344THY    HP364372   2.626   5.768   6.201 -0.5184 -0.4049 -0.8111
19344THY    HP464373   2.517   5.756   6.058 -0.9742 -0.0955  0.2080
19344THY    CP364374   2.656   6.015   6.238 -0.5639  0.5383 -0.2004
19344THY    HP564375   2.716   5.937   6.286  0.1491  1.7335  1.0361
19344THY    HP664376   2.596   6.042   6.326 -1.5321  0.2288 -1.3073
19344THY    HP764377   2.743   6.076   6.207  0.0537 -2.0707 -2.2230
19344THY    CA364378   2.388   6.123   6.164 -0.7114  0.1360  0.2894
19344THY    HA364379   2.404   6.106   6.270 -0.1971 -0.2598 -1.9654
19344THY    CA464380   2.291   6.208   6.113  0.5169 -0.2026  0.2814
19344THY    HA464381   2.239   6.268   6.187  0.2882  0.1735 -0.3779
19344THY    CA564382   2.282   6.227   5.982  0.4334 -0.0370 -0.6793
19344THY    CM164383   2.182   6.337   5.937  0.0192  0.7220 -0.3843
19344THY    HM164384   2.082   6.292   5.929  0.4381 -0.4774 -1.1403
19344THY    HM264385   2.208   6.378   5.839 -1.2591  0.2358 -0.6808
19344THY    HM364386   2.176   6.419   6.009 -2.5074  0.3871 -0.1744
19344THY    CA664387   2.344   6.149   5.890 -0.2212  0.3949 -0.4695
19344THY    HA664388   2.335   6.182   5.787  0.0327  0.6554  0.4376
19345THY      O64389   3.219   6.835   2.435 -0.8109 -0.0077 -0.4889
19345THY     HO64390   3.165   6.910   2.407 -2.7800  0.3943 -1.6959
19345THY    CA164391   3.282   6.796   2.317  0.1580 -0.3027 -0.2223
19345THY    CA264392   3.382   6.697   2.321 -0.5036 -0.4983 -0.5427
19345THY    CP164393   3.404   6.604   2.440 -0.4692 -0.5450 -0.9202
19345THY    HP164394   3.355   6.648   2.528 -0.2893 -1.1022  0.4439
19345THY    CP264395   3.544   6.580   2.483 -0.7075  0.2046 -0.6707
19345THY    HP264396   3.609   6.668   2.493 -2.3000  1.2033  0.4375
19345THY    HP364397   3.594   6.524   2.402 -2.3433 -2.6782  1.7725
19345THY    HP464398   3.541   6.524   2.577  1.0464  0.1328 -0.9534
19345THY    CP364399   3.327   6.477   2.407 -0.1172  0.4174  0.0703
19345THY    HP564400   3.226   6.493   2.368  0.4759 -1.2708 -0.0783
19345THY    HP664401   3.322   6.428   2.505 -2.7713  1.6825  2.5663
19345THY    HP764402   3.397   6.430   2.336  0.1719 -1.0046  2.5165
19345THY    CA364403   3.450   6.677   2.201 -0.4847 -0.3647  0.9790
19345THY    HA364404   3.525   6.601   2.188 -1.5484  0.0366 -0.1730
19345THY    CA464405   3.410   6.750   2.092 -0.3765  0.2690  0.0827
19345THY    HA464406   3.456   6.730   1.996  1.1292  0.6438  1.5540
19345THY    CA564407   3.325   6.860   2.097  0.5817  0.3759  0.7945
19345THY    CM164408   3.300   6.942   1.968  0.2333 -0.1716 -0.4787
19345THY    HM164409   3.386   7.009   1.957 -0.9039 -0.7539  0.9543
19345THY    HM264410   3.207   7.000   1.977  0.0769  0.7178 -0.8564
19345THY    HM364411   3.297   6.882   1.876  1.2952 -0.2139 -0.4850
19345THY    CA664412   3.260   6.880   2.214 -0.2219 -0.8115 -0.2819
19345THY    HA664413   3.180   6.953   2.224  0.0570 -0.4908 -0.0123
19346THY      O64414   2.524   1.360   5.238 -0.3000  0.4948  0.0031
19346THY     HO64415   2.570   1.380   5.322  0.7576  0.2739 -1.3628
19346THY    CA164416   2.488   1.225   5.245  0.2552 -0.3697 -0.3142
19346THY    CA264417   2.521   1.141   5.137  0.6462  0.3710  0.2550
19346THY    CP164418   2.589   1.195   5.017  0.5856  0.8077 -0.0222
19346THY    HP164419   2.631   1.294   5.038  1.8228 -2.5557  0.3077
19346THY    CP264420   2.502   1.211   4.893 -0.5530  0.7333  0.4479
19346THY    HP264421   2.427   1.291   4.903 -0.6900  0.4142  0.3622
19346THY    HP364422   2.447   1.121   4.862  0.1480 -0.3992  0.3916
19346THY    HP464423   2.558   1.231   4.801 -1.2165  0.6604  2.1718
19346THY    CP364424   2.708   1.118   4.975  0.4390  0.0372  0.6280
19346THY    HP564425   2.792   1.180   4.943 -0.1211 -1.0694  0.8480
19346THY    HP664426   2.676   1.041   4.904 -1.6111  1.6875 -0.1511
19346THY    HP764427   2.736   1.067   5.068 -2.8287 -0.2408 -2.0810
19346THY    CA364428   2.475   1.005   5.137  0.2033 -0.3210  0.5654
19346THY    HA364429   2.482   0.938   5.052 -2.0624 -0.2278  0.1402
19346THY    CA464430   2.415   0.955   5.253 -0.4046  0.3208 -0.0239
19346THY    HA464431   2.383   0.852   5.269 -2.4553 -0.3312  0.4640
19346THY    CA564432   2.384   1.044   5.367 -0.3665  0.1751  0.2200
19346THY    CM164433   2.332   0.982   5.494 -0.4559  0.1603 -0.3406
19346THY    HM164434   2.290   0.882   5.485 -0.4291  1.6531 -0.5041
19346THY    HM264435   2.253   1.044   5.538 -1.3393 -3.1274  1.1401
19346THY    HM364436   2.414   0.950   5.560 -0.9440  0.4957 -0.9119
19346THY    CA664437   2.428   1.178   5.359 -0.3377 -0.4148  0.3269
19346THY    HA664438   2.410   1.243   5.444 -0.4617  0.5448 -0.9340
19347THY      O64439   1.906   6.463   3.060  0.0240  0.3338 -0.6411
19347THY     HO64440   1.893   6.445   2.965  3.0100 -0.8379  2.3668
19347THY    CA164441   1.987   6.361   3.103 -0.3432  0.3457 -0.7237
19347THY    CA264442   2.052   6.360   3.227  0.3758  0.4716  0.1797
19347THY    CP164443   2.017   6.464   3.339 -0.3591 -0.4402  0.2959
19347THY    HP164444   1.916   6.507   3.338  0.1624 -1.2139  1.5645
19347THY    CP264445   2.106   6.577   3.324  0.1531  0.4787 -0.7164
19347THY    HP264446   2.066   6.660   3.383  1.1712  1.3970 -0.8492
19347THY    HP364447   2.121   6.607   3.219  0.5311  0.5541 -0.6337
19347THY    HP464448   2.208   6.556   3.359  0.4649  0.9252  1.3478
19347THY    CP364449   2.034   6.420   3.485  0.1348  0.4280  0.0968
19347THY    HP564450   2.140   6.405   3.508  0.3472 -0.6559 -0.1721
19347THY    HP664451   1.975   6.331   3.509  0.3061  2.2543  0.4411
19347THY    HP764452   1.998   6.500   3.550  0.4145  0.7748 -0.0547
19347THY    CA364453   2.150   6.257   3.251  0.5341  0.1182  0.4692
19347THY    HA364454   2.212   6.247   3.340  1.4709 -0.3103  2.1679
19347THY    CA464455   2.163   6.159   3.156 -0.2588  0.5398  0.0991
19347THY    HA464456   2.214   6.064   3.164 -1.0306  0.5048 -0.3225
19347THY    CA564457   2.103   6.162   3.037 -0.2070 -0.0292 -0.1817
19347THY    CM164458   2.138   6.060   2.931  0.3101  0.0129  0.2232
19347THY    HM164459   2.082   5.966   2.939 -2.8128 -3.6347  1.5062
19347THY    HM264460   2.244   6.031   2.938  0.5970  0.0360  1.2584
19347THY    HM364461   2.125   6.089   2.826  0.0000 -0.3764 -1.2468
19347THY    CA664462   2.027   6.268   3.003  0.3170  0.4125 -0.4853
19347THY    HA664463   1.987   6.276   2.902  0.4427  0.4446  0.7803
19348THY      O64464   4.015   1.625   5.521  0.5154 -0.0887 -0.1545
19348THY     HO64465   3.977   1.705   5.480 -1.3435 -0.6261 -1.2548
19348THY    CA164466   4.086   1.561   5.425  0.0279  0.3892 -0.5205
19348THY    CA264467   4.209   1.500   5.452 -0.1237  0.2389 -0.5451
19348THY    CP164468   4.262   1.493   5.596 -1.0840  0.2422 -0.1104
19348THY    HP164469   4.175   1.491   5.663 -0.9644  0.3981 -0.2228
19348THY    CP264470   4.361   1.612   5.629 -0.1120  0.0132 -0.3374
19348THY    HP264471   4.459   1.596   5.583  0.2616  1.1870 -1.6164
19348THY    HP364472   4.382   1.621   5.736  0.7636  0.1132 -2.8447
19348THY    HP464473   4.311   1.702   5.590 -1.5251  2.1043 -0.1504
19348THY    CP364474   4.333   1.370   5.640  0.0206 -0.4285  0.6359
19348THY    HP564475   4.434   1.362   5.599  0.0669 -0.0926 -0.7273
19348THY    HP664476   4.285   1.279   5.601  1.5425  0.1640 -0.4611
19348THY    HP764477   4.332   1.362   5.749  0.9239 -0.3575  1.3917
19348THY    CA364478   4.284   1.448   5.344  0.6043  0.0082  0.2891
19348THY    HA364479   4.385   1.412   5.366  0.2359 -0.2576 -0.9570
19348THY    CA464480   4.233   1.445   5.214 -0.1908 -0.1436 -0.6339
19348THY    HA464481   4.298   1.415   5.132  0.8789  1.3922 -2.8167
19348THY    CA564482   4.113   1.508   5.190  0.4369  0.3650  0.0234
19348THY    CM164483   4.066   1.528   5.056  0.6359  0.7128  0.9034
19348THY    HM164484   4.031   1.436   5.007  0.4360 -0.6476  1.6703
19348THY    HM264485   4.139   1.586   4.999  0.2519 -0.3416  0.3748
19348THY    HM364486   3.978   1.593   5.043 -0.4156  1.3882 -0.3256
19348THY    CA664487   4.039   1.572   5.295 -0.2455  0.0201  0.4006
19348THY    HA664488   3.944   1.622   5.278  0.4077  0.1343  1.6948
19349THY      O64489   1.188   3.230   4.055 -0.6601  0.2227 -0.3404
19349THY     HO64490   1.212   3.321   4.081 -4.2621  4.4185 -0.2419
19349THY    CA164491   1.054   3.238   4.083  0.0707  0.1022  0.0577
19349THY    CA264492   0.998   3.143   4.170 -0.1974  0.1371  0.2746
19349THY    CP164493   1.079   3.026   4.232 -0.8006 -0.0748 -0.0901
19349THY    HP164494   1.181   3.038   4.194 -0.8253  0.2418  1.2381
19349THY    CP264495   1.033   2.889   4.195  0.2514  0.0180  0.6387
19349THY    HP264496   1.040   2.872   4.086 -0.9943  0.2765 -2.0810
19349THY    HP364497   0.926   2.885   4.219  0.2362  0.0369  1.0760
19349THY    HP464498   1.091   2.817   4.253 -0.1766  0.3658  0.5696
19349THY    CP364499   1.069   3.034   4.393 -0.5982  0.3317  0.1272
19349THY    HP564500   1.112   3.131   4.421  1.1075 -1.0097 -0.2150
19349THY    HP664501   1.136   2.967   4.448  1.9347 -0.2626  2.0106
19349THY    HP764502   0.963   3.025   4.420 -0.7821 -0.6309 -0.6624
19349THY    CA364503   0.860   3.151   4.202  0.3001  0.2664  0.6347
19349THY    HA364504   0.815   3.072   4.262 -1.9653 -1.4492  0.5051
19349THY    CA464505   0.781   3.256   4.150 -0.0991 -0.5656 -0.3058
19349THY    HA464506   0.673   3.257   4.163 -0.0925 -0.4265 -0.8962
19349THY    CA564507   0.843   3.357   4.070  0.0277  0.4715  0.1927
19349THY    CM164508   0.757   3.476   4.022 -0.3920 -0.7092  0.1022
19349THY    HM164509   0.822   3.565   4.022 -0.0508  0.5200 -0.1346
19349THY    HM264510   0.687   3.509   4.099 -0.0978  0.0578 -0.9889
19349THY    HM364511   0.714   3.442   3.927 -0.8383 -0.1872 -0.8334
19349THY    CA664512   0.975   3.337   4.031  0.0605  0.0825  0.2461
19349THY    HA664513   1.033   3.399   3.963 -0.5052 -1.0246 -0.4150
19350THY      O64514   0.752   4.559   6.131  0.2572 -0.1777  0.2897
19350THY     HO64515   0.809   4.616   6.077  2.8645  1.0345 -0.9684
19350THY    CA164516   0.636   4.528   6.067  0.3407  0.2996  0.4776
19350THY    CA264517   0.546   4.431   6.126 -0.6837  0.1994 -0.0261
19350THY    CP164518   0.574   4.361   6.262  0.6370  1.0944 -0.4700
19350THY    HP164519   0.679   4.379   6.287  0.6459 -0.1335  1.5134
19350THY    CP264520   0.566   4.211   6.246  0.4299 -0.1866 -0.4658
19350THY    HP264521   0.653   4.173   6.190  0.7245  1.0669 -1.6860
19350THY    HP364522   0.474   4.181   6.194  1.3145 -0.3169 -3.2463
19350THY    HP464523   0.570   4.169   6.347 -0.5681 -0.5617 -1.5028
19350THY    CP364524   0.485   4.415   6.375  0.7710 -0.0812 -0.3574
19350THY    HP564525   0.535   4.373   6.463  0.9519  0.4855  0.9991
19350THY    HP664526   0.379   4.385   6.371  0.5907 -0.1978  0.2953
19350THY    HP764527   0.495   4.524   6.375  0.2742 -1.7395 -0.2900
19350THY    CA364528   0.411   4.420   6.070  0.2847 -0.7508 -0.2712
19350THY    HA364529   0.340   4.375   6.139 -0.6259 -0.4636  1.5191
19350THY    CA464530   0.369   4.499   5.953 -0.3031 -0.3659  0.1841
19350THY    HA464531   0.265   4.489   5.923 -0.5936  0.4244  0.7039
19350THY    CA564532   0.467   4.585   5.896  0.3362 -0.4053  0.0301
19350THY    CM164533   0.425   4.661   5.769  0.1439 -0.4125  0.6996
19350THY    HM164534   0.340   4.727   5.789  0.5355  0.7334  0.8792
19350THY    HM264535   0.401   4.587   5.692 -0.2300  0.9293 -0.6109
19350THY    HM364536   0.507   4.717   5.721  2.2754 -0.1949 -2.0432
19350THY    CA664537   0.597   4.602   5.957  0.3083 -0.4393 -0.8131
19350THY    HA664538   0.662   4.674   5.907  0.2702 -1.2863 -1.3499
19351THY      O64539   1.593   3.161   5.384  0.4833 -0.0094 -0.4826
19351THY     HO64540   1.605   3.201   5.296  0.0196  0.4259  0.6537
19351THY    CA164541   1.710   3.171   5.455  0.0956 -0.0599 -0.3084
19351THY    CA264542   1.723   3.112   5.583  0.0558  0.4319  0.5398
19351THY    CP164543   1.614   3.033   5.654 -0.3794 -0.0668 -0.6781
19351THY    HP164544   1.523   3.035   5.592 -1.5928  1.6602  0.7076
19351THY    CP264545   1.567   3.119   5.773  0.6357  0.5024 -0.4096
19351THY    HP264546   1.458   3.105   5.772  1.0108 -0.2236 -4.5223
19351THY    HP364547   1.598   3.224   5.770  1.0999 -0.4854 -0.5579
19351THY    HP464548   1.596   3.089   5.874 -0.5337  1.7833  2.4349
19351THY    CP364549   1.658   2.890   5.695  0.7579 -0.0733 -0.6863
19351THY    HP564550   1.566   2.841   5.729 -1.4382  0.2365  3.2368
19351THY    HP664551   1.722   2.903   5.782  1.1314 -0.2148 -1.5644
19351THY    HP764552   1.698   2.842   5.605  0.3116 -0.4812 -0.3076
19351THY    CA364553   1.846   3.137   5.650 -0.3044 -0.4443 -1.0119
19351THY    HA364554   1.866   3.101   5.750  0.5671 -0.1554  0.2262
19351THY    CA464555   1.949   3.212   5.592  0.4024  0.7992  0.1348
19351THY    HA464556   2.032   3.240   5.655  1.0682 -0.2909  0.7000
19351THY    CA564557   1.930   3.272   5.466 -0.2171  0.3430 -0.1029
19351THY    CM164558   2.028   3.364   5.408 -0.8115  0.1263  0.1978
19351THY    HM164559   2.108   3.364   5.483 -1.8332  1.2481 -0.0344
19351THY    HM264560   1.992   3.466   5.395 -0.7159 -2.5161 -0.0358
19351THY    HM364561   2.071   3.332   5.312 -0.7654  0.1719  0.1236
19351THY    CA664562   1.809   3.252   5.399  0.2070 -0.1068 -0.6942
19351THY    HA664563   1.796   3.298   5.302 -0.3435 -0.6632 -1.9711
19352THY      O64564   4.303   5.512   4.868 -0.4134 -0.2380  0.1749
19352THY     HO64565   4.396   5.538   4.882 -0.6126  1.5677  0.0552
19352THY    CA164566   4.282   5.461   4.744 -0.4715 -0.1665  0.5051
19352THY    CA264567   4.182   5.507   4.663  0.4685  0.0325 -0.0410
19352THY    CP164568   4.071   5.603   4.725  0.2765 -0.4154  0.2936
19352THY    HP164569   4.117   5.651   4.812  0.7019 -0.1291 -0.6031
19352THY    CP264570   3.939   5.529   4.767 -0.4641 -0.2617 -0.2661
19352THY    HP264571   3.904   5.468   4.683  0.3068  1.4090 -3.1625
19352THY    HP364572   3.863   5.600   4.802  0.6488 -0.2739  0.9599
19352THY    HP464573   3.961   5.468   4.855  2.8736 -0.9728 -0.2590
19352THY    CP364574   4.023   5.712   4.626 -0.0945  0.0111  0.0109
19352THY    HP564575   3.961   5.796   4.658  1.9328  0.7874  1.2825
19352THY    HP664576   3.965   5.668   4.544 -0.1223  0.2579 -0.4120
19352THY    HP764577   4.112   5.758   4.582  0.4382  2.0613  1.0177
19352THY    CA364578   4.181   5.444   4.538 -0.0329  0.5443 -0.4654
19352THY    HA364579   4.093   5.467   4.478  0.4444  0.1815  0.4670
19352THY    CA464580   4.273   5.349   4.494  0.1072  0.2773  0.4798
19352THY    HA464581   4.249   5.291   4.405 -2.6946  0.3896  1.3099
19352THY    CA564582   4.375   5.310   4.580 -0.0897 -0.2948 -0.4960
19352THY    CM164583   4.485   5.213   4.548  0.0206 -0.1263 -0.8202
19352THY    HM164584   4.550   5.247   4.466 -0.5716 -0.4356 -0.4214
19352THY    HM264585   4.445   5.115   4.519  1.9706 -0.1471 -1.6632
19352THY    HM364586   4.555   5.195   4.630  2.1951 -2.0185 -1.4673
19352THY    CA664587   4.380   5.372   4.704  0.5801  0.3545 -1.0109
19352THY    HA664588   4.455   5.343   4.778  2.2699 -0.9015 -0.0474
19353THY      O64589   0.106   7.038   7.326 -0.0933  0.0240 -0.9291
19353THY     HO64590   0.107   6.947   7.361 -2.8477  0.5383 -0.8604
19353THY    CA164591   0.222   7.093   7.362 -0.1642  0.3604 -0.2988
19353THY    CA264592   0.235   7.235   7.366  0.9367 -0.2564 -0.5533
19353THY    CP164593   0.119   7.336   7.320  0.1438  0.3257  0.1254
19353THY    HP164594   0.029   7.279   7.295 -0.6572 -1.4204  2.0139
19353THY    CP264595   0.161   7.428   7.207  0.0407 -0.6729 -0.2734
19353THY    HP264596   0.074   7.476   7.160  1.4098 -1.8318  1.1454
19353THY    HP364597   0.208   7.364   7.132 -0.2155  0.2319 -1.5588
19353THY    HP464598   0.232   7.498   7.253 -1.6800  1.6976  0.0654
19353THY    CP364599   0.071   7.429   7.430 -0.1198  0.0209 -0.1455
19353THY    HP564600   0.017   7.364   7.500 -1.5975 -2.2198 -1.4656
19353THY    HP664601   0.013   7.511   7.386  3.4879 -3.6388  0.7894
19353THY    HP764602   0.151   7.477   7.488  0.3850 -0.2380 -0.6726
19353THY    CA364603   0.353   7.292   7.409  0.0073  0.5320  0.0163
19353THY    HA364604   0.370   7.400   7.402  1.1177 -3.1495 -0.2522
19353THY    CA464605   0.465   7.211   7.447 -0.0764  0.3331 -0.0680
19353THY    HA464606   0.554   7.260   7.485 -0.0679 -0.7134  0.7806
19353THY    CA564607   0.444   7.073   7.444 -0.7611  0.1560  0.0463
19353THY    CM164608   0.551   6.983   7.480  0.2707 -0.6410  0.5984
19353THY    HM164609   0.583   6.924   7.393  1.7990  0.9748 -1.0908
19353THY    HM264610   0.522   6.931   7.572  0.4929 -0.3252  1.0228
19353THY    HM364611   0.636   7.047   7.507  1.7147  0.5783 -1.6864
19353THY    CA664612   0.324   7.016   7.404 -0.1552  0.1622  0.3686
19353THY    HA664613   0.308   6.909   7.411  0.6179 -2.8771 -0.0418
19354THY      O64614   2.681   4.987   5.865  0.3172 -0.4615  0.1705
19354THY     HO64615   2.692   5.081   5.844  0.3711 -0.6750  0.1177
19354THY    CA164616   2.769   4.919   5.788  0.9374  0.8995 -0.2243
19354THY    CA264617   2.801   4.785   5.811  0.1887 -0.6299 -0.4818
19354THY    CP164618   2.744   4.712   5.936  0.1634 -0.1291  0.5332
19354THY    HP164619   2.642   4.745   5.958 -0.0081 -1.0101  0.6373
19354THY    CP264620   2.820   4.745   6.058 -0.6662 -0.6694 -0.3913
19354THY    HP264621   2.779   4.686   6.141 -0.5366  1.8081  2.7636
19354THY    HP364622   2.802   4.848   6.090  0.0867  1.1267 -0.7817
19354THY    HP464623   2.928   4.724   6.056 -0.8362 -3.1264 -1.3879
19354THY    CP364624   2.740   4.558   5.933  0.0523 -0.0415  0.1678
19354THY    HP564625   2.674   4.530   5.850 -1.1963  0.6192  1.0490
19354THY    HP664626   2.698   4.516   6.025 -1.2167 -0.0446  1.3593
19354THY    HP764627   2.835   4.503   5.926 -0.3544  0.4006 -0.6103
19354THY    CA364628   2.907   4.726   5.738  0.0723  0.6919 -0.2617
19354THY    HA364629   2.937   4.623   5.752  0.5750 -0.0777 -0.2282
19354THY    CA464630   2.973   4.802   5.644  0.1566  0.3355  0.1331
19354THY    HA464631   3.049   4.748   5.588 -1.6857 -1.9788 -0.2071
19354THY    CA564632   2.944   4.935   5.622 -0.2178 -0.2520  0.0677
19354THY    CM164633   3.018   5.022   5.516  0.9328  0.3187 -0.0465
19354THY    HM164634   3.100   4.973   5.464  1.9904  0.1437  1.8376
19354THY    HM264635   3.052   5.119   5.555 -0.8536  1.3519  0.2206
19354THY    HM364636   2.944   5.039   5.437 -2.2505  3.3185  1.4434
19354THY    CA664637   2.838   4.995   5.698 -1.1226 -0.7797 -0.4537
19354THY    HA664638   2.814   5.101   5.687 -2.0186  1.2308 -0.4051
19355THY      O64639   6.397   7.275   4.036  0.4658 -0.4606  0.6866
19355THY     HO64640   6.386   7.181   4.015  1.0524 -0.7183  0.6721
19355THY    CA164641   6.279   7.322   4.069  0.4933 -0.1349  0.0951
19355THY    CA264642   6.263   7.435   4.159 -0.3164  0.4956  0.0322
19355THY    CP164643   6.386   7.505   4.217  0.0467 -0.6411 -0.4426
19355THY    HP164644   6.483   7.485   4.169  1.1810 -0.0685  2.9471
19355THY    CP264645   6.403   7.469   4.362  0.3552 -0.1238  0.8219
19355THY    HP264646   6.428   7.364   4.378 -1.5414  0.8906  0.4781
19355THY    HP364647   6.311   7.494   4.418 -0.8494 -2.4372  1.9398
19355THY    HP464648   6.484   7.532   4.399  0.3855  0.0444  0.6844
19355THY    CP364649   6.373   7.658   4.196 -0.1205 -0.4307  0.3604
19355THY    HP564650   6.466   7.714   4.211 -1.2052  0.0439  2.1134
19355THY    HP664651   6.292   7.705   4.253 -1.3318 -1.5036 -0.3628
19355THY    HP764652   6.337   7.674   4.093 -0.6807 -0.2115  0.5544
19355THY    CA364653   6.133   7.474   4.190 -1.0360 -0.1568 -0.3390
19355THY    HA364654   6.108   7.559   4.253 -2.0893  0.0338 -0.7832
19355THY    CA464655   6.027   7.415   4.124  0.3648  0.1407  0.4508
19355THY    HA464656   5.926   7.437   4.158  0.8048  0.2972  2.3677
19355THY    CA564657   6.041   7.310   4.034 -0.1927 -0.5463  0.8228
19355THY    CM164658   5.930   7.257   3.965  0.0322  0.8657  0.1302
19355THY    HM164659   5.950   7.154   3.933 -0.5109  1.3233 -0.1312
19355THY    HM264660   5.902   7.313   3.875 -0.5424  1.6440  1.1308
19355THY    HM364661   5.843   7.245   4.031  0.7239  1.9500  0.9259
19355THY    CA664662   6.168   7.262   4.011 -0.2656  0.2054 -0.2388
19355THY    HA664663   6.187   7.177   3.946  4.4159 -0.5874  1.1615
19356THY      O64664   2.929   1.701   6.411 -0.2500 -0.3242  0.0950
19356THY     HO64665   2.960   1.677   6.322 -1.2236 -0.8684  0.7947
19356THY    CA164666   2.814   1.634   6.421  0.5733  1.1083 -0.3040
19356THY    CA264667   2.720   1.644   6.523  0.2534 -0.3277 -0.0335
19356THY    CP164668   2.756   1.734   6.653 -0.1463  0.4114  0.5001
19356THY    HP164669   2.808   1.826   6.622 -0.7083 -2.6309 -0.0948
19356THY    CP264670   2.848   1.656   6.753 -0.3215  0.7980 -0.3307
19356THY    HP264671   2.843   1.711   6.848  0.0492  1.3782 -1.2850
19356THY    HP364672   2.948   1.645   6.709 -0.3822  0.1704  1.2896
19356THY    HP464673   2.810   1.556   6.776 -0.3731  0.1799 -0.4535
19356THY    CP364674   2.631   1.778   6.731  0.1556 -0.0139 -0.3720
19356THY    HP564675   2.583   1.690   6.777 -0.4548  0.3766  0.1569
19356THY    HP664676   2.565   1.818   6.654  0.3164 -1.2993 -2.4147
19356THY    HP764677   2.653   1.851   6.811 -2.2375  3.2638 -2.9107
19356THY    CA364678   2.604   1.566   6.526 -0.2243  0.6709 -0.1051
19356THY    HA364679   2.525   1.571   6.601 -1.5770 -0.7640  1.0397
19356THY    CA464680   2.579   1.482   6.413  0.3114  0.8761 -0.4415
19356THY    HA464681   2.486   1.427   6.403 -0.6877  1.3817  1.1011
19356THY    CA564682   2.675   1.468   6.314  0.0437 -0.3090 -0.4161
19356THY    CM164683   2.664   1.377   6.196  0.7821 -0.2607  0.2036
19356THY    HM164684   2.759   1.329   6.170 -0.3507 -1.3601 -1.5382
19356THY    HM264685   2.623   1.431   6.110  1.0348 -0.4166  0.1488
19356THY    HM364686   2.592   1.297   6.214 -0.4418  2.2379  1.7275
19356THY    CA664687   2.790   1.547   6.314 -0.3212 -0.6484 -0.3244
19356THY    HA664688   2.855   1.543   6.227  0.9202  0.2881 -1.2948
19357THY      O64689   0.113   6.629   2.343 -0.0417 -0.3163  0.4964
19357THY     HO64690   0.021   6.598   2.342  0.1925 -0.8405 -0.2039
19357THY    CA164691   0.178   6.522   2.393 -0.6088 -0.0947 -0.3944
19357THY    CA264692   0.305   6.534   2.454 -0.0555 -0.5044  0.2433
19357THY    CP164693   0.364   6.673   2.480  0.1639  0.1350 -0.4913
19357THY    HP164694   0.306   6.748   2.424 -1.2744 -0.9513 -2.3336
19357THY    CP264695   0.510   6.681   2.441 -0.7649  0.4390  0.8361
19357THY    HP264696   0.517   6.654   2.335  1.9124  0.0011  2.8790
19357THY    HP364697   0.570   6.600   2.484 -1.6085  0.7838  0.3800
19357THY    HP464698   0.555   6.780   2.434 -2.5813 -2.0154  1.5871
19357THY    CP364699   0.353   6.709   2.625  0.1591  0.2202  0.2851
19357THY    HP564700   0.266   6.773   2.640 -0.9341 -2.2750 -0.4837
19357THY    HP664701   0.444   6.761   2.659 -0.0397 -0.4882  1.1265
19357THY    HP764702   0.346   6.622   2.691  2.8635  0.3073  0.0394
19357THY    CA364703   0.369   6.430   2.519  0.0077 -0.6073 -0.2416
19357THY    HA364704   0.461   6.441   2.577 -0.7498  0.1305  3.4008
19357THY    CA464705   0.307   6.304   2.502  1.1742 -0.7465 -0.3416
19357THY    HA464706   0.358   6.220   2.548  2.2497  0.5481  0.9591
19357THY    CA564707   0.181   6.284   2.433 -0.1294  0.4055 -0.8909
19357THY    CM164708   0.111   6.154   2.438  0.1813 -0.3299  0.0659
19357THY    HM164709   0.094   6.110   2.339 -0.0816  0.3227 -1.3664
19357THY    HM264710   0.013   6.176   2.482 -0.2542 -1.0591 -0.3743
19357THY    HM364711   0.156   6.081   2.506  1.0004 -0.1689  0.7031
19357THY    CA664712   0.119   6.396   2.377 -0.0298  0.5921 -0.4341
19357THY    HA664713   0.022   6.392   2.327  1.1539 -2.0902  1.0879
19358THY      O64714   2.806   8.749   7.096  0.6282  0.6637  0.7532
19358THY     HO64715   2.826   8.834   7.053 -0.0055  1.4159  1.3091
19358THY    CA164716   2.914   8.712   7.164 -0.2952  0.2695  0.0729
19358THY    CA264717   2.919   8.605   7.256 -0.1354 -0.4809 -0.1324
19358THY    CP164718   2.803   8.509   7.279 -1.0352 -0.6237 -0.1197
19358THY    HP164719   2.728   8.528   7.201  0.2824 -1.9122 -0.0190
19358THY    CP264720   2.748   8.527   7.415  0.3804 -0.9835 -0.3043
19358THY    HP264721   2.677   8.450   7.449  1.7301 -1.8231 -1.9927
19358THY    HP364722   2.704   8.627   7.421  0.2026  1.3033 -0.4721
19358THY    HP464723   2.831   8.528   7.486 -0.7729  0.4562  1.7976
19358THY    CP364724   2.836   8.363   7.247  0.2558  0.1113 -0.4835
19358THY    HP564725   2.739   8.314   7.229  0.8263 -1.6465 -1.0542
19358THY    HP664726   2.892   8.317   7.329  0.4948 -0.7441 -1.7846
19358THY    HP764727   2.902   8.358   7.159  0.8200  0.5450 -0.7527
19358THY    CA364728   3.037   8.583   7.331  0.4056 -0.7063 -0.1492
19358THY    HA364729   3.029   8.509   7.410 -0.2024  0.2105  0.8692
19358THY    CA464730   3.147   8.670   7.326  0.1102 -0.4716 -0.2971
19358THY    HA464731   3.232   8.647   7.389  0.4137 -0.5840  0.5090
19358THY    CA564732   3.149   8.769   7.226 -0.8582  0.4236  0.0786
19358THY    CM164733   3.268   8.856   7.219 -0.0757 -0.3512  0.1957
19358THY    HM164734   3.329   8.845   7.128  0.3081 -0.0358 -0.3572
19358THY    HM264735   3.332   8.851   7.307  0.0248 -0.4009  0.5356
19358THY    HM364736   3.237   8.961   7.217 -2.2766  0.5759 -0.3923
19358THY    CA664737   3.029   8.797   7.155  0.3642 -0.4767  0.2138
19358THY    HA664738   3.024   8.884   7.090 -0.7112 -0.7237 -0.0193
19359THY      O64739   2.188   2.801   7.763 -0.0537 -0.2739  0.5443
19359THY     HO64740   2.222   2.724   7.811  1.3356 -1.1563  0.5645
19359THY    CA164741   2.164   2.749   7.640  0.4664 -0.3316  0.5311
19359THY    CA264742   2.132   2.826   7.528 -0.5618  0.1775  0.2745
19359THY    CP164743   2.118   2.975   7.529  0.2941  0.0952 -0.3453
19359THY    HP164744   2.158   3.021   7.620 -1.4211  0.1588  1.1500
19359THY    CP264745   1.967   3.006   7.526 -0.3657 -0.3282 -0.6028
19359THY    HP264746   1.930   2.937   7.602  0.0764  0.7039  0.2477
19359THY    HP364747   1.925   2.989   7.426  0.5775 -0.6829 -0.9142
19359THY    HP464748   1.944   3.108   7.561 -0.1921 -1.1227 -0.2797
19359THY    CP364749   2.185   3.038   7.406 -0.0193  0.0879 -0.1126
19359THY    HP564750   2.124   3.034   7.315  0.1165  0.0361 -2.6396
19359THY    HP664751   2.282   3.001   7.373 -0.6499 -0.9124 -0.9468
19359THY    HP764752   2.211   3.141   7.435  2.1557  2.0633 -1.1534
19359THY    CA364753   2.098   2.764   7.404 -0.0316 -0.3723  0.5053
19359THY    HA364754   2.053   2.821   7.323 -1.3342 -0.5748 -0.7628
19359THY    CA464755   2.117   2.628   7.391  0.1690 -0.1490 -0.2139
19359THY    HA464756   2.089   2.583   7.297  1.5121 -0.0840 -1.2550
19359THY    CA564757   2.157   2.550   7.502  0.5120  0.0729  0.4250
19359THY    CM164758   2.187   2.402   7.486 -0.2081 -0.0017 -0.3729
19359THY    HM164759   2.211   2.342   7.575  0.1749 -0.5295 -1.0163
19359THY    HM264760   2.268   2.384   7.415  1.5234  1.1481  2.2385
19359THY    HM364761   2.098   2.355   7.442 -0.4733 -0.4333  0.5161
19359THY    CA664762   2.181   2.611   7.625  0.8762 -0.2727  0.0047
19359THY    HA664763   2.213   2.547   7.707  0.9840 -0.9753 -0.8604
19360THY      O64764   5.552   2.553   2.648  0.1962  0.0860 -0.0936
19360THY     HO64765   5.633   2.543   2.701 -1.6166  2.8939 -0.7926
19360THY    CA164766   5.461   2.514   2.735 -0.1811  0.2606  0.1215
19360THY    CA264767   5.330   2.501   2.684  0.3001 -0.0684  0.1409
19360THY    CP164768   5.288   2.518   2.542 -0.1415 -0.0900 -0.7591
19360THY    HP164769   5.380   2.515   2.483 -0.2987 -0.3468 -0.5624
19360THY    CP264770   5.205   2.645   2.537 -0.1602  0.4572 -0.8856
19360THY    HP264771   5.175   2.686   2.440  0.4181  1.0350  1.0099
19360THY    HP364772   5.265   2.734   2.561 -1.2135 -3.4426  1.1185
19360THY    HP464773   5.109   2.652   2.590 -0.9015 -1.0184  1.1145
19360THY    CP364774   5.212   2.394   2.500  0.0766 -0.3589 -0.1822
19360THY    HP564775   5.256   2.298   2.528 -0.4125 -0.6071 -0.4761
19360THY    HP664776   5.209   2.384   2.391  0.5144 -0.2154 -2.3288
19360THY    HP764777   5.110   2.403   2.538 -0.5312 -2.2718  1.9376
19360THY    CA364778   5.232   2.476   2.784  0.2540  0.1611  0.5335
19360THY    HA364779   5.127   2.458   2.763  0.4586 -0.7242  0.3274
19360THY    CA464780   5.269   2.468   2.916  0.6868 -0.3774 -0.2119
19360THY    HA464781   5.194   2.462   2.994  0.1970 -0.1534  4.9113
19360THY    CA564782   5.400   2.487   2.959 -0.2559  0.3614  0.8582
19360THY    CM164783   5.432   2.484   3.108 -0.1984  0.4007  0.0753
19360THY    HM164784   5.349   2.436   3.161  1.1890  1.8266 -0.8401
19360THY    HM264785   5.444   2.583   3.154 -0.7864 -1.2790  0.9616
19360THY    HM364786   5.512   2.415   3.137 -0.4503  0.2347 -0.2923
19360THY    CA664787   5.493   2.509   2.867 -0.3577 -0.1124 -0.1233
19360THY    HA664788   5.592   2.536   2.902 -0.1254 -1.4678  0.8954
19361THY      O64789   8.397   8.665   7.658  0.1510 -0.0903  0.5178
19361THY     HO64790   8.425   8.705   7.742  1.5534 -0.7050  0.8733
19361THY    CA164791   8.414   8.757   7.570  0.1361 -0.1468 -0.7818
19361THY    CA264792   8.382   8.734   7.432  0.9056 -0.8798 -0.7100
19361THY    CP164793   8.342   8.605   7.371  0.5800  0.0076 -0.0943
19361THY    HP164794   8.350   8.534   7.453  0.0691  2.4901  2.5272
19361THY    CP264795   8.418   8.564   7.247 -0.6336  0.6083  0.3007
19361THY    HP264796   8.391   8.630   7.163  2.0274  1.2870  2.3969
19361THY    HP364797   8.402   8.456   7.236 -1.4376  0.9051  0.3786
19361THY    HP464798   8.527   8.571   7.248 -0.3870 -0.4441 -2.1127
19361THY    CP364799   8.197   8.588   7.335  0.2270 -0.3843  0.0346
19361THY    HP564800   8.179   8.485   7.302 -0.8683 -1.2126  0.4701
19361THY    HP664801   8.159   8.664   7.265 -2.7745  2.5173  1.4652
19361THY    HP764802   8.137   8.611   7.423  1.1801  0.8315 -1.9103
19361THY    CA364803   8.396   8.846   7.346 -0.1743  0.2914  0.2469
19361THY    HA364804   8.363   8.844   7.243  1.6910 -0.3223 -0.4507
19361THY    CA464805   8.430   8.975   7.395 -0.6386  0.5857  0.2155
19361THY    HA464806   8.444   9.061   7.331  1.4648  0.6588 -0.0222
19361THY    CA564807   8.466   8.992   7.529  0.0137  0.1802  0.7113
19361THY    CM164808   8.481   9.134   7.578 -0.2424  0.2598  0.1017
19361THY    HM164809   8.553   9.188   7.515 -0.9881 -0.1462  0.6544
19361THY    HM264810   8.530   9.150   7.675  1.0944 -0.3580 -0.1277
19361THY    HM364811   8.385   9.187   7.571  0.9232  1.8026  2.5912
19361THY    CA664812   8.454   8.887   7.615 -0.7288 -0.3059  0.0566
19361THY    HA664813   8.465   8.911   7.721  1.8051 -0.5676  0.3058
19362THY      O64814   2.241   9.080   2.255 -0.2879  0.1033  0.1051
19362THY     HO64815   2.275   9.171   2.257  2.3804  1.8941 -0.8243
19362THY    CA164816   2.112   9.089   2.291 -0.4749  0.9603  0.6120
19362THY    CA264817   2.038   8.979   2.327  0.5178 -0.6008  0.6121
19362THY    CP164818   2.106   8.841   2.324 -0.0469  0.0439 -0.5545
19362THY    HP164819   2.214   8.840   2.341  0.1493 -0.9957 -2.3608
19362THY    CP264820   2.086   8.771   2.190  0.3120  0.2143  0.5321
19362THY    HP264821   2.098   8.837   2.103 -1.0502 -0.6898 -0.3496
19362THY    HP364822   1.985   8.729   2.179  1.3941  2.3929 -3.1916
19362THY    HP464823   2.155   8.686   2.184 -1.3751 -1.7209 -0.8029
19362THY    CP364824   2.041   8.748   2.429  0.3061 -0.1761  0.8899
19362THY    HP564825   2.107   8.661   2.444  1.8175  0.9491  2.1497
19362THY    HP664826   1.942   8.708   2.407 -0.1241 -0.5696  2.1341
19362THY    HP764827   2.041   8.807   2.522 -0.3587  1.3510 -1.3786
19362THY    CA364828   1.904   8.991   2.362  0.6060 -0.1511 -1.0253
19362THY    HA364829   1.843   8.905   2.386 -1.4769  0.0519  0.4289
19362THY    CA464830   1.840   9.120   2.352  0.2386 -0.2799  0.1101
19362THY    HA464831   1.734   9.138   2.366  0.0034  0.6451 -1.6977
19362THY    CA564832   1.919   9.235   2.317  0.2718  0.0309  0.0768
19362THY    CM164833   1.857   9.374   2.297  0.5496 -0.2143  0.6977
19362THY    HM164834   1.867   9.438   2.385  1.3842 -0.9118  1.5784
19362THY    HM264835   1.752   9.368   2.266  0.2366  0.9671 -0.1475
19362THY    HM364836   1.903   9.430   2.213  3.1184 -0.2970 -1.3306
19362THY    CA664837   2.058   9.217   2.289 -0.0303 -0.7761  0.0317
19362THY    HA664838   2.119   9.297   2.249 -1.7872 -1.4762  1.0701
19363THY      O64839   2.533   0.927   5.987 -0.0284 -0.1239  0.1768
19363THY     HO64840   2.578   0.845   5.960  0.3656  2.3866 -0.5097
19363THY    CA164841   2.406   0.913   5.941  0.2712  0.5686  0.0905
19363THY    CA264842   2.312   1.014   5.945  1.2890 -0.2443 -0.8541
19363THY    CP164843   2.351   1.153   5.994  0.3586  0.3133 -0.0082
19363THY    HP164844   2.458   1.148   6.022 -0.0849  1.9555 -2.4656
19363THY    CP264845   2.268   1.197   6.115  0.3343 -0.0739  0.0492
19363THY    HP264846   2.299   1.137   6.202  0.3566 -0.7455 -0.9427
19363THY    HP364847   2.164   1.178   6.087 -0.0347  1.9506 -1.2189
19363THY    HP464848   2.284   1.304   6.130  0.0698 -3.6401  0.7307
19363THY    CP364849   2.353   1.251   5.872 -1.0088  0.6548 -0.8241
19363THY    HP564850   2.406   1.199   5.792  0.5044  2.3106 -1.9699
19363THY    HP664851   2.398   1.348   5.895 -0.0530  2.1796 -1.5839
19363THY    HP764852   2.251   1.269   5.835  0.1368 -2.6392 -0.4621
19363THY    CA364853   2.190   0.996   5.876  1.0069 -0.8955 -0.2304
19363THY    HA364854   2.125   1.081   5.857  0.4478 -0.5301 -0.5740
19363THY    CA464855   2.166   0.881   5.809  0.1598 -0.9261  0.0679
19363THY    HA464856   2.080   0.883   5.743  0.9269 -1.9934  2.4230
19363THY    CA564857   2.257   0.778   5.808  0.3527  0.1249  0.5064
19363THY    CM164858   2.241   0.637   5.732 -0.4980  0.0254 -0.4382
19363THY    HM164859   2.149   0.637   5.673 -1.3032  1.2330  0.7763
19363THY    HM264860   2.245   0.557   5.808  1.7920  0.1451 -0.2990
19363THY    HM364861   2.315   0.623   5.652 -1.0704 -0.5878 -0.0313
19363THY    CA664862   2.378   0.795   5.881  0.5592 -0.1865 -1.0237
19363THY    HA664863   2.454   0.718   5.871  0.9184 -1.9482 -0.4664
19364THY      O64864   6.770   7.689   7.157 -0.5752  0.2466 -0.6540
19364THY     HO64865   6.772   7.743   7.238  3.1538  0.3226 -0.6899
19364THY    CA164866   6.841   7.583   7.205  0.4066  0.0174 -0.3059
19364THY    CA264867   6.837   7.458   7.152 -0.5348  0.4885 -0.0573
19364THY    CP164868   6.739   7.418   7.038 -0.0007 -0.2298  0.1473
19364THY    HP164869   6.724   7.500   6.966 -1.0232 -0.0412  0.1407
19364THY    CP264870   6.603   7.387   7.086  0.1222 -0.1485  0.4354
19364THY    HP264871   6.593   7.288   7.132  1.5331 -2.8932 -1.1156
19364THY    HP364872   6.546   7.371   6.994 -1.0318  0.7895 -1.0461
19364THY    HP464873   6.564   7.456   7.162  1.2070  1.2646 -0.4379
19364THY    CP364874   6.794   7.302   6.954  0.0847 -0.1432 -0.1571
19364THY    HP564875   6.890   7.323   6.907  0.9777  2.3352  1.7858
19364THY    HP664876   6.716   7.285   6.878 -0.8098  0.7611 -0.2215
19364THY    HP764877   6.801   7.210   7.013 -1.0972 -2.1520 -1.6012
19364THY    CA364878   6.925   7.359   7.212 -0.2623  0.1918 -0.2463
19364THY    HA364879   6.919   7.254   7.184 -0.3183  0.7576 -0.3981
19364THY    CA464880   7.008   7.389   7.317  0.7129  0.3606 -0.2454
19364THY    HA464881   7.077   7.323   7.367  1.2360 -0.6375 -0.4707
19364THY    CA564882   7.005   7.518   7.372 -0.0951 -1.3766  0.2962
19364THY    CM164883   7.072   7.561   7.499 -0.2762 -0.0621 -0.1984
19364THY    HM164884   7.161   7.501   7.522  0.0244 -1.8489 -0.4848
19364THY    HM264885   7.007   7.546   7.587  1.0052  1.0700  0.6267
19364THY    HM364886   7.112   7.662   7.500  1.9172 -0.3166 -1.0108
19364THY    CA664887   6.921   7.609   7.311  0.3282 -0.2990 -0.3154
19364THY    HA664888   6.920   7.710   7.353  1.6995 -1.0962  0.0618
19365THY      O64889   3.399   8.468   2.229 -0.4940  0.1122  0.0899
19365THY     HO64890   3.365   8.398   2.287 -0.2292 -0.9447 -0.9603
19365THY    CA164891   3.396   8.419   2.101  0.2328 -0.4033 -0.4684
19365THY    CA264892   3.451   8.504   1.997  0.1357 -0.2630  0.5170
19365THY    CP164893   3.523   8.631   2.020  0.5490 -0.3519  0.0491
19365THY    HP164894   3.552   8.628   2.125 -1.6542  0.3719  1.2306
19365THY    CP264895   3.419   8.748   2.033  0.1982 -0.0214  0.5100
19365THY    HP264896   3.352   8.726   2.116  2.4944  1.2753 -2.2480
19365THY    HP364897   3.375   8.772   1.936  0.6560  0.2726  2.7849
19365THY    HP464898   3.473   8.836   2.070  3.0869  0.4450 -1.3088
19365THY    CP364899   3.645   8.675   1.938 -0.1559 -1.1375  0.0664
19365THY    HP564900   3.627   8.706   1.834  0.9546 -0.9673  1.3651
19365THY    HP664901   3.714   8.590   1.941  0.7064 -0.0147  0.7816
19365THY    HP764902   3.681   8.764   1.990 -1.1813 -0.5150  0.1373
19365THY    CA364903   3.437   8.445   1.868  0.0407  0.1977  0.4801
19365THY    HA364904   3.495   8.495   1.792  0.5283  2.1961  3.1787
19365THY    CA464905   3.377   8.320   1.845  0.0616  0.6333  0.4238
19365THY    HA464906   3.382   8.270   1.749 -4.1296  0.2054  0.4674
19365THY    CA564907   3.332   8.249   1.950  0.7439  0.5505  0.5439
19365THY    CM164908   3.268   8.115   1.924  0.0558 -0.2481 -0.8497
19365THY    HM164909   3.248   8.060   2.017  2.7534 -0.2602 -2.0231
19365THY    HM264910   3.346   8.054   1.877  0.2486  0.6463 -1.3192
19365THY    HM364911   3.179   8.135   1.864  0.7136 -0.5368  1.5841
19365THY    CA664912   3.340   8.295   2.080 -0.0120 -0.9427  0.5224
19365THY    HA664913   3.301   8.239   2.164 -0.4424 -0.4764  1.4967
19366THY      O64914   3.812   7.284   3.370 -0.6366 -0.1485 -0.2127
19366THY     HO64915   3.796   7.228   3.448  2.9640  0.0753 -1.1612
19366THY    CA164916   3.813   7.407   3.427 -0.0035 -0.2187  0.5720
19366THY    CA264917   3.852   7.526   3.355  0.2727  0.1333  0.0569
19366THY    CP164918   3.874   7.524   3.203 -0.1553  0.3511  0.6111
19366THY    HP164919   3.906   7.421   3.183 -2.0227 -1.0830  0.2546
19366THY    CP264920   3.986   7.623   3.152 -0.0941 -0.0378  0.2498
19366THY    HP264921   4.069   7.632   3.223  0.1579 -0.1590 -0.9400
19366THY    HP364922   3.949   7.725   3.132  2.0098 -0.8193  0.9044
19366THY    HP464923   4.036   7.595   3.059  0.6150  0.9451 -1.9583
19366THY    CP364924   3.749   7.537   3.116  0.9798  0.1044  0.5100
19366THY    HP564925   3.774   7.523   3.010 -0.1679 -0.1624  0.3624
19366THY    HP664926   3.700   7.635   3.123 -0.6551  0.9439 -0.3285
19366THY    HP764927   3.677   7.460   3.148  0.1171 -0.9348  0.8502
19366THY    CA364928   3.854   7.656   3.422 -0.2710 -0.2385 -0.1397
19366THY    HA364929   3.878   7.747   3.367  1.0553  0.3348 -0.1166
19366THY    CA464930   3.824   7.654   3.556  0.3512 -0.4437 -0.0870
19366THY    HA464931   3.820   7.743   3.618  1.4099  2.3173 -1.8519
19366THY    CA564932   3.773   7.536   3.620 -0.6281  0.4755 -0.2723
19366THY    CM164933   3.704   7.553   3.755  0.3961  0.3647  0.3414
19366THY    HM164934   3.719   7.466   3.820  0.5461 -0.5676 -0.3522
19366THY    HM264935   3.596   7.563   3.745  0.1641 -0.2154 -1.9777
19366THY    HM364936   3.733   7.645   3.807  0.1077  0.2486  0.4981
19366THY    CA664937   3.776   7.413   3.560 -0.1946 -0.1149  0.8735
19366THY    HA664938   3.744   7.321   3.609  0.1711 -1.5211 -0.0476
19367THY      O64939   7.394   5.086   4.627  0.0240  0.2814 -0.0398
19367THY     HO64940   7.412   5.159   4.690  0.2391 -1.4365  1.4592
19367THY    CA164941   7.462   5.131   4.517 -0.0678 -0.5102 -1.0115
19367THY    CA264942   7.432   5.096   4.385 -0.3225 -0.1674  0.0169
19367THY    CP164943   7.303   5.017   4.364  0.0667 -0.4557 -0.2340
19367THY    HP164944   7.231   5.046   4.441 -0.8974 -1.4151 -0.0177
19367THY    CP264945   7.343   4.870   4.384  0.0853  0.4559  0.6702
19367THY    HP264946   7.419   4.841   4.311 -0.4060  0.1714  0.0818
19367THY    HP364947   7.256   4.807   4.362  1.7122  0.7825 -1.8087
19367THY    HP464948   7.368   4.850   4.489 -1.3441  0.1638 -3.6797
19367THY    CP364949   7.238   5.027   4.220  0.5467 -0.5876 -0.8011
19367THY    HP564950   7.199   5.128   4.199  2.1980 -0.0603 -0.0079
19367THY    HP664951   7.151   4.961   4.213 -0.7756 -0.7487  0.8986
19367THY    HP764952   7.316   5.002   4.147  0.4570 -1.2166  0.6290
19367THY    CA364953   7.506   5.151   4.276  0.3846 -0.5629 -0.1331
19367THY    HA364954   7.474   5.131   4.174 -0.2229 -0.8304  2.0250
19367THY    CA464955   7.618   5.231   4.307 -0.3648 -0.5154 -0.2901
19367THY    HA464956   7.664   5.277   4.220 -0.3535 -0.7166 -0.6747
19367THY    CA564957   7.650   5.263   4.441  0.1069 -0.0770  0.3475
19367THY    CM164958   7.783   5.328   4.471  0.2600 -0.0770  0.7339
19367THY    HM164959   7.827   5.361   4.376  0.3445 -0.7305 -1.1542
19367THY    HM264960   7.849   5.254   4.517 -0.2545 -1.7690 -0.8609
19367THY    HM364961   7.758   5.411   4.539 -1.7639  1.9068 -1.3437
19367THY    CA664962   7.572   5.209   4.542  0.2409  0.2575  0.2216
19367THY    HA664963   7.601   5.226   4.645 -1.9110  0.8689  0.5440
19368THY      O64964   2.010   9.169   2.641 -0.3739 -0.2321  0.0478
19368THY     HO64965   1.930   9.132   2.599 -1.6577  3.2081 -1.5497
19368THY    CA164966   1.968   9.284   2.688 -0.8056  0.5581  0.7138
19368THY    CA264967   2.055   9.361   2.761  0.5039  0.0265 -0.7106
19368THY    CP164968   2.192   9.317   2.802 -0.0548  0.3764  0.4934
19368THY    HP164969   2.218   9.216   2.771 -0.0903 -0.4890  0.7412
19368THY    CP264970   2.209   9.328   2.957 -0.3456  0.6240  0.0167
19368THY    HP264971   2.151   9.248   3.004 -2.2125  0.4748  1.2174
19368THY    HP364972   2.183   9.423   3.004  0.2704  1.0758 -0.0313
19368THY    HP464973   2.316   9.313   2.978 -0.0892 -0.7851 -0.2739
19368THY    CP364974   2.292   9.409   2.746 -0.3398  0.1623 -0.5246
19368THY    HP564975   2.303   9.510   2.789 -0.3601 -3.4939  1.2173
19368THY    HP664976   2.290   9.425   2.637  1.1627  0.4207  2.0752
19368THY    HP764977   2.392   9.364   2.749  0.5109 -2.2347  0.9668
19368THY    CA364978   2.007   9.486   2.810 -0.1810 -0.5243 -0.0000
19368THY    HA364979   2.072   9.553   2.865 -0.6296 -0.7537  0.6351
19368THY    CA464980   1.877   9.515   2.788  0.1705 -1.3099  0.4336
19368THY    HA464981   1.830   9.601   2.834  0.1561  2.4320 -1.3574
19368THY    CA564982   1.800   9.441   2.704  0.3506  1.0304  0.3834
19368THY    CM164983   1.650   9.485   2.685 -0.6084  0.2033  0.2103
19368THY    HM164984   1.625   9.490   2.579  4.3181 -1.1705  0.9616
19368THY    HM264985   1.637   9.583   2.733  0.9014 -0.4077  0.7395
19368THY    HM364986   1.601   9.413   2.751 -1.8844  1.6521  2.2847
19368THY    CA664987   1.844   9.321   2.653 -0.2985  0.3745  0.5077
19368THY    HA664988   1.779   9.267   2.584 -1.0548 -0.6170  2.5506
19369THY      O64989   0.574   7.552   7.597 -0.5223  0.3166 -0.7702
19369THY     HO64990   0.536   7.539   7.686 -0.7840  0.4583  0.7730
19369THY    CA164991   0.476   7.624   7.521 -0.0962 -0.2085 -0.4218
19369THY    CA264992   0.488   7.630   7.381 -0.2825 -0.3561 -0.3061
19369THY    CP164993   0.613   7.578   7.308  0.4392  0.6481 -0.4807
19369THY    HP164994   0.648   7.484   7.352  0.6256  0.2780 -0.5828
19369THY    CP264995   0.718   7.691   7.288  1.1350 -0.7413  0.2996
19369THY    HP264996   0.766   7.725   7.380  0.6566 -0.7428  1.0143
19369THY    HP364997   0.676   7.780   7.239 -0.5834  1.8966  1.0700
19369THY    HP464998   0.803   7.638   7.245  1.8504  1.4153 -0.3940
19369THY    CP364999   0.567   7.534   7.164  0.2256  0.4833 -0.0535
19369THY    HP565000   0.646   7.479   7.110 -0.8758 -4.2052  2.4399
19369THY    HP665001   0.545   7.616   7.094  0.5788 -0.1044 -0.4500
19369THY    HP765002   0.479   7.471   7.179 -0.6418 -0.5494  0.8809
19369THY    CA365003   0.402   7.721   7.315  0.1339 -0.6884 -0.1334
19369THY    HA365004   0.413   7.740   7.209 -2.7055 -1.1403 -0.5578
19369THY    CA465005   0.300   7.779   7.384  0.1626 -0.3462  0.0023
19369THY    HA465006   0.239   7.853   7.333  0.4855  0.7785  1.0955
19369THY    CA565007   0.267   7.745   7.518  0.5339 -0.0369  0.4804
19369THY    CM165008   0.147   7.807   7.589 -0.0815 -0.4921 -0.0874
19369THY    HM165009   0.109   7.897   7.539 -1.0066 -0.5209 -0.4833
19369THY    HM265010   0.181   7.837   7.688  1.5124 -1.5407  1.7976
19369THY    HM365011   0.065   7.734   7.591 -2.4943  0.0756  2.5016
19369THY    CA665012   0.362   7.663   7.584 -0.4348 -0.1409 -0.1014
19369THY    HA665013   0.353   7.642   7.690  3.4838  0.4066  0.1646
19370THY      O65014   0.440   4.475   4.787  0.0823 -0.6868 -0.0674
19370THY     HO65015   0.475   4.385   4.799 -0.5459 -0.8287 -0.3331
19370THY    CA165016   0.407   4.477   4.655  0.3435  0.4068  0.5196
19370THY    CA265017   0.344   4.588   4.596 -0.6378 -0.0460 -0.4325
19370THY    CP165018   0.309   4.710   4.679 -0.0505  1.1733  0.7195
19370THY    HP165019   0.371   4.710   4.769  1.5232  0.1653 -0.8907
19370THY    CP265020   0.172   4.710   4.739  0.7639  0.2517 -0.5634
19370THY    HP265021   0.132   4.812   4.739 -0.6332  1.3584 -1.0664
19370THY    HP365022   0.162   4.671   4.841  1.3407  0.7988  0.7010
19370THY    HP465023   0.095   4.654   4.684 -0.1932  1.4989 -0.5349
19370THY    CP365024   0.328   4.842   4.601 -0.2674 -0.5697  0.3596
19370THY    HP565025   0.250   4.859   4.525 -0.6244 -0.3656 -0.3443
19370THY    HP665026   0.429   4.835   4.558 -0.0647  0.1620 -2.7046
19370THY    HP765027   0.324   4.929   4.667 -0.7880 -0.2657  0.1061
19370THY    CA365028   0.287   4.581   4.472  0.2889 -0.0480  0.1899
19370THY    HA365029   0.231   4.667   4.436 -0.0558  1.8748  0.8210
19370THY    CA465030   0.314   4.467   4.396 -0.6689 -0.2375  0.2787
19370THY    HA465031   0.266   4.453   4.300  0.6896 -0.7063 -1.4504
19370THY    CA565032   0.385   4.357   4.445  0.1953 -0.6701  0.2835
19370THY    CM165033   0.407   4.230   4.356  0.9134 -0.9431  0.0717
19370THY    HM165034   0.504   4.238   4.305  0.9859 -0.7297  0.5618
19370THY    HM265035   0.331   4.225   4.278 -0.9346  0.6048  1.9369
19370THY    HM365036   0.411   4.138   4.417 -0.8671 -0.5168  0.2402
19370THY    CA665037   0.436   4.360   4.581  0.2198 -0.1350  0.1022
19370THY    HA665038   0.496   4.280   4.624 -0.7464  1.9109  0.4422
19371THY      O65039   0.894   4.919   4.271 -0.1021 -0.1560 -0.0771
19371THY     HO65040   0.870   4.957   4.185  1.5538 -0.4681  0.3426
19371THY    CA165041   0.934   5.021   4.349  0.0417  0.0010 -0.1155
19371THY    CA265042   0.847   5.074   4.450  0.4706 -0.1927  0.3393
19371THY    CP165043   0.716   5.003   4.483 -0.4015 -0.2515 -0.4533
19371THY    HP165044   0.679   4.939   4.401 -0.4214 -0.4054 -0.2451
19371THY    CP265045   0.604   5.100   4.509 -0.7884  0.3932  0.4405
19371THY    HP265046   0.506   5.067   4.475 -0.9370  1.4878 -0.2909
19371THY    HP365047   0.616   5.191   4.449 -2.6620 -2.5392 -1.1185
19371THY    HP465048   0.590   5.130   4.614  0.4383  0.1326  2.0507
19371THY    CP365049   0.723   4.928   4.617  0.1604  0.5151  0.3614
19371THY    HP565050   0.777   4.991   4.689 -0.2519 -0.0254  1.3509
19371THY    HP665051   0.780   4.838   4.591  1.0734 -2.0072  1.5526
19371THY    HP765052   0.630   4.897   4.666  0.8547  1.9617  0.4684
19371THY    CA365053   0.906   5.176   4.532 -0.4071  0.2806 -0.2763
19371THY    HA365054   0.849   5.213   4.617  0.9677 -0.3778  3.7807
19371THY    CA465055   1.030   5.236   4.503  0.0934  0.0289  0.0093
19371THY    HA465056   1.067   5.317   4.564  1.2487 -0.6451  0.0059
19371THY    CA565057   1.100   5.190   4.390 -0.0065  0.6661 -0.8069
19371THY    CM165058   1.228   5.253   4.352  0.1528 -0.7800 -0.5051
19371THY    HM165059   1.249   5.337   4.419 -0.2257 -0.5204 -0.6095
19371THY    HM265060   1.225   5.284   4.247 -0.9386 -1.0414 -1.4397
19371THY    HM365061   1.313   5.187   4.372 -0.6212  0.1329 -1.2552
19371THY    CA665062   1.057   5.081   4.314  0.0965  0.4877 -0.6489
19371THY    HA665063   1.117   5.036   4.236  1.9320  2.8786 -2.6154
19372THY      O65064   4.919   4.717   5.055 -1.0385 -0.4553  0.7862
19372THY     HO65065   4.949   4.804   5.087 -2.8520  4.9749 -0.2387
19372THY    CA165066   4.994   4.627   5.127 -0.4512  0.5438 -0.1825
19372THY    CA265067   4.968   4.494   5.102  0.0386 -0.4389  0.2946
19372THY    CP165068   4.852   4.442   5.021  0.5991 -0.1100 -0.0596
19372THY    HP165069   4.771   4.517   5.026 -0.8728 -1.8190 -1.4446
19372THY    CP265070   4.786   4.314   5.068 -0.0195  0.1092 -0.6807
19372THY    HP265071   4.691   4.304   5.014 -0.1070  0.2694 -0.7223
19372THY    HP365072   4.769   4.321   5.176 -2.4052 -0.2990  0.9802
19372THY    HP465073   4.850   4.227   5.047 -1.5960  0.7732 -2.0803
19372THY    CP365074   4.892   4.449   4.871 -0.3038  0.0182 -0.7095
19372THY    HP565075   4.946   4.542   4.851  0.8155 -2.4513 -1.7951
19372THY    HP665076   4.807   4.438   4.803  1.4181 -2.8961  2.2043
19372THY    HP765077   4.966   4.376   4.834 -0.4435 -4.0163  0.9601
19372THY    CA365078   5.063   4.401   5.161 -0.1496  0.1658  0.3751
19372THY    HA365079   5.061   4.296   5.131 -0.6163  0.7000  0.2273
19372THY    CA465080   5.175   4.444   5.236 -0.1635 -0.8856  0.1625
19372THY    HA465081   5.242   4.365   5.269 -0.7330  0.0283  0.0431
19372THY    CA565082   5.187   4.582   5.268 -0.1249 -0.3162 -0.0571
19372THY    CM165083   5.307   4.621   5.353  0.3199 -0.0991  0.2519
19372THY    HM165084   5.378   4.537   5.356 -2.1276  2.6420 -1.9182
19372THY    HM265085   5.281   4.640   5.457  0.9849  0.5169 -1.9336
19372THY    HM365086   5.362   4.708   5.314  1.8905  1.1014 -0.1652
19372THY    CA665087   5.096   4.674   5.210  0.0090 -0.0746  0.0881
19372THY    HA665088   5.116   4.780   5.221  0.0933  0.4662  0.0191
19373THY      O65089   7.320   7.680   3.118 -0.1911 -0.4652  0.3215
19373THY     HO65090   7.353   7.669   3.209 -0.1246 -0.4678  0.5034
19373THY    CA165091   7.435   7.646   3.056 -0.1201  0.3758  0.0177
19373THY    CA265092   7.426   7.567   2.934 -0.2110 -0.0895 -0.4858
19373THY    CP165093   7.296   7.502   2.880  0.6447 -0.2337 -0.2346
19373THY    HP165094   7.208   7.526   2.941  1.2223  0.4631  0.1773
19373THY    CP265095   7.310   7.352   2.858  0.5118 -0.2417 -0.1846
19373THY    HP265096   7.390   7.327   2.787  2.8681  2.0446  0.4555
19373THY    HP365097   7.212   7.324   2.816  0.4367  0.2957 -0.7559
19373THY    HP465098   7.315   7.306   2.957 -0.3959 -0.1237 -0.0470
19373THY    CP365099   7.264   7.570   2.740 -0.4689  0.2640  0.2902
19373THY    HP565100   7.160   7.550   2.713 -0.6383  1.8780 -1.2926
19373THY    HP665101   7.338   7.521   2.674 -0.3480  0.9639 -0.4994
19373THY    HP765102   7.274   7.679   2.733  1.5668 -0.1140  0.1301
19373THY    CA365103   7.544   7.536   2.869  0.4398 -0.0834  0.2346
19373THY    HA365104   7.548   7.471   2.782 -0.3797  1.1344 -1.5137
19373THY    CA465105   7.662   7.585   2.919 -0.8836 -0.3008  0.1987
19373THY    HA465106   7.750   7.570   2.858 -0.3518  0.2302  1.0373
19373THY    CA565107   7.670   7.665   3.028 -0.5916 -0.4838 -0.3070
19373THY    CM165108   7.804   7.722   3.069 -0.3476 -0.3876  0.1036
19373THY    HM165109   7.788   7.816   3.123 -0.7091  1.2533 -0.8709
19373THY    HM265110   7.879   7.723   2.989  0.2590  0.0295 -2.7403
19373THY    HM365111   7.831   7.651   3.148  0.0684  0.7931  1.5420
19373THY    CA665112   7.550   7.705   3.104  0.1487  0.3703 -0.1382
19373THY    HA665113   7.549   7.779   3.183 -0.7307 -0.4325  0.7290
19374THY      O65114   3.109   0.526   5.767  0.2326 -0.2206  0.3996
19374THY     HO65115   3.118   0.544   5.672 -1.2530 -0.4769 -0.0273
19374THY    CA165116   3.234   0.510   5.818 -0.0362 -0.1320  0.0463
19374THY    CA265117   3.259   0.434   5.935  0.6061 -0.0181  0.1469
19374THY    CP165118   3.145   0.375   6.016  0.0938  0.5165  0.4105
19374THY    HP165119   3.049   0.396   5.966 -0.0546  0.3340 -0.6131
19374THY    CP265120   3.118   0.436   6.160 -0.4717 -0.3459 -0.2371
19374THY    HP265121   3.204   0.409   6.222  1.9325 -3.3896 -0.0766
19374THY    HP365122   3.034   0.387   6.211  0.5253 -0.5675 -2.2802
19374THY    HP465123   3.093   0.543   6.154  1.2905 -1.8415  0.1413
19374THY    CP365124   3.152   0.220   6.039  1.2612  0.0099  0.0230
19374THY    HP565125   3.174   0.168   5.945  0.6176 -0.1381  0.0121
19374THY    HP665126   3.054   0.183   6.070  0.9382  0.1890  1.0027
19374THY    HP765127   3.223   0.198   6.120 -0.4487  1.3375 -0.8081
19374THY    CA365128   3.397   0.419   5.975 -0.7092  0.1632 -0.3685
19374THY    HA365129   3.422   0.376   6.071 -0.4655  0.2837  0.0362
19374THY    CA465130   3.502   0.477   5.900 -0.3726 -0.0160 -0.4438
19374THY    HA465131   3.606   0.466   5.930 -0.3442  0.2245  0.4194
19374THY    CA565132   3.468   0.554   5.786 -0.5079 -0.3534  0.0091
19374THY    CM165133   3.577   0.613   5.708 -1.5435 -0.2416 -0.1439
19374THY    HM165134   3.638   0.678   5.771  1.3466 -0.4736 -2.4232
19374THY    HM265135   3.546   0.668   5.619 -0.2355 -0.8937 -0.4403
19374THY    HM365136   3.640   0.533   5.667  0.7852  0.0372  1.4565
19374THY    CA665137   3.337   0.559   5.733  0.0328 -0.6390 -0.2382
19374THY    HA665138   3.321   0.615   5.641  1.5944 -0.3440  0.7489
19375THY      O65139   5.435   3.377   4.801  0.1574  0.4008  0.3066
19375THY     HO65140   5.419   3.450   4.864  0.8165  1.3723 -0.3665
19375THY    CA165141   5.565   3.349   4.814  0.9902 -0.0480 -0.0489
19375THY    CA265142   5.630   3.265   4.720 -0.3945  0.5367  0.1304
19375THY    CP165143   5.545   3.218   4.597  0.0573 -0.4398 -0.1297
19375THY    HP165144   5.455   3.276   4.577  1.7317  0.5232  3.0447
19375THY    CP265145   5.494   3.081   4.626 -0.7418  0.2876 -0.4460
19375THY    HP265146   5.446   3.043   4.536  0.2156 -1.1171  1.5048
19375THY    HP365147   5.424   3.093   4.710  0.7713  1.6968 -1.0316
19375THY    HP465148   5.573   3.011   4.656 -0.6090 -0.9138 -0.8345
19375THY    CP365149   5.628   3.225   4.467 -0.6283 -0.0999  0.0528
19375THY    HP565150   5.563   3.211   4.379 -0.1055 -0.1496 -2.4451
19375THY    HP665151   5.699   3.142   4.459 -2.1037 -3.4837 -1.0771
19375THY    HP765152   5.685   3.318   4.453 -0.8856 -0.0265  0.2248
19375THY    CA365153   5.767   3.231   4.736  0.2773 -0.4565  0.1651
19375THY    HA365154   5.813   3.158   4.670  0.7071 -0.3599  0.3482
19375THY    CA465155   5.835   3.283   4.852  0.5563 -0.3008 -0.3190
19375THY    HA465156   5.937   3.258   4.878  0.7244 -1.4813 -0.9692
19375THY    CA565157   5.761   3.367   4.943 -1.1069  0.6525 -0.4947
19375THY    CM165158   5.835   3.410   5.066  0.1364  0.1230 -0.1668
19375THY    HM165159   5.835   3.519   5.074 -1.8017  0.7669 -0.1839
19375THY    HM265160   5.940   3.379   5.071 -0.2604  4.4012 -1.4848
19375THY    HM365161   5.788   3.384   5.161 -0.1530 -0.2582 -1.0964
19375THY    CA665162   5.626   3.400   4.924 -0.3836 -0.3990  0.3366
19375THY    HA665163   5.576   3.467   4.993  1.6963  0.7632  0.8041
19376THY      O65164   2.766   6.489   3.864 -0.0048  0.3781 -0.2069
19376THY     HO65165   2.804   6.491   3.954  3.0358 -0.7935  0.6068
19376THY    CA165166   2.636   6.540   3.871 -1.0310  0.4276 -0.1307
19376THY    CA265167   2.527   6.512   3.779 -0.5408  0.0257 -0.6637
19376THY    CP165168   2.554   6.427   3.651  0.4219 -0.5151  0.4211
19376THY    HP165169   2.661   6.411   3.630  1.0142  2.3021  0.2951
19376THY    CP265170   2.495   6.496   3.526  0.2999 -0.3464  0.2520
19376THY    HP265171   2.387   6.493   3.546  0.5187  0.9049 -2.1315
19376THY    HP365172   2.513   6.434   3.437 -2.2449 -1.0743  0.4564
19376THY    HP465173   2.529   6.600   3.529 -0.8862  0.2000  0.6419
19376THY    CP365174   2.509   6.281   3.673 -0.3159 -0.7183 -0.0320
19376THY    HP565175   2.494   6.231   3.577  1.3412 -0.2695 -1.4882
19376THY    HP665176   2.416   6.280   3.732  0.4015  0.4418 -0.0290
19376THY    HP765177   2.589   6.224   3.722 -0.2871 -2.4452 -1.5418
19376THY    CA365178   2.398   6.562   3.811  0.1171 -0.4295 -0.5996
19376THY    HA365179   2.316   6.544   3.743 -0.2754  0.2223 -1.3680
19376THY    CA465180   2.379   6.645   3.923  0.2913  0.7397  0.6399
19376THY    HA465181   2.281   6.684   3.949 -0.3109 -0.5599  0.0421
19376THY    CA565182   2.487   6.673   4.005 -0.1048  0.1022  0.6672
19376THY    CM165183   2.475   6.759   4.130  0.1034  0.2290 -0.8979
19376THY    HM165184   2.483   6.866   4.108  1.2201  1.8598 -0.6142
19376THY    HM265185   2.550   6.731   4.205  1.5078 -0.5248  0.7246
19376THY    HM365186   2.382   6.746   4.187 -0.0478 -0.0539 -1.0718
19376THY    CA665187   2.610   6.622   3.976 -1.2138  0.2052 -0.0979
19376THY    HA665188   2.694   6.649   4.040  1.4896 -1.7455 -3.0784
19377THY      O65189   6.633   3.005   4.770 -0.1988  0.3244 -0.4869
19377THY     HO65190   6.550   2.998   4.820 -1.3693 -1.5294 -0.4298
19377THY    CA165191   6.597   3.054   4.652  0.1813  0.1308 -0.2390
19377THY    CA265192   6.684   3.124   4.555 -0.0179 -1.3174  0.2146
19377THY    CP165193   6.820   3.165   4.606 -0.2183  0.0749 -0.0516
19377THY    HP165194   6.841   3.107   4.696  1.1324  1.3332  2.2224
19377THY    CP265195   6.813   3.312   4.654 -0.0724 -0.0234  0.7852
19377THY    HP265196   6.724   3.333   4.715 -0.6887 -0.8560  0.6389
19377THY    HP365197   6.808   3.376   4.565  1.6727 -1.1989 -0.6214
19377THY    HP465198   6.898   3.342   4.717  0.6302 -1.5162  2.0886
19377THY    CP365199   6.935   3.138   4.504 -0.0528 -0.0359 -0.2729
19377THY    HP565200   6.918   3.198   4.413  1.2361 -0.6495 -0.8113
19377THY    HP665201   6.943   3.034   4.474 -0.4603  1.3307 -0.7227
19377THY    HP765202   7.030   3.170   4.548  0.2513  0.3390 -1.6702
19377THY    CA365203   6.631   3.169   4.437 -0.0998 -0.4367 -0.2558
19377THY    HA365204   6.679   3.238   4.369 -0.6076  1.4342  2.0832
19377THY    CA465205   6.504   3.127   4.402 -0.1764 -0.3154  0.1081
19377THY    HA465206   6.464   3.158   4.305  1.9468 -1.1068  0.5787
19377THY    CA565207   6.426   3.048   4.487 -0.0282 -0.3795 -0.4865
19377THY    CM165208   6.284   3.011   4.453 -0.2829 -0.3232 -0.4576
19377THY    HM165209   6.270   2.902   4.448  1.1374 -1.2508 -0.6212
19377THY    HM265210   6.259   3.053   4.355 -0.9669  0.7923  1.9407
19377THY    HM365211   6.208   3.041   4.528  1.0178  0.5502  0.7857
19377THY    CA665212   6.472   3.017   4.616 -0.1773 -0.5859 -0.0647
19377THY    HA665213   6.407   2.960   4.682 -1.1961 -1.3341  0.1948
19378THY      O65214   4.296   0.932   2.457  0.1772  0.0952 -0.3102
19378THY     HO65215   4.250   1.015   2.435 -0.3624 -0.1247 -0.6661
19378THY    CA165216   4.430   0.951   2.450 -0.2059 -0.1464 -0.5398
19378THY    CA265217   4.518   0.848   2.482 -0.0638 -0.2109  0.6474
19378THY    CP165218   4.468   0.715   2.540 -0.8987  0.0746 -0.4957
19378THY    HP165219   4.369   0.693   2.498 -0.6778  0.3482 -2.1644
19378THY    CP265220   4.443   0.724   2.691  0.2872 -0.0922 -0.0727
19378THY    HP265221   4.446   0.621   2.730  1.8252  2.8106  0.9800
19378THY    HP365222   4.347   0.767   2.724 -0.8557 -0.8291 -1.9082
19378THY    HP465223   4.519   0.784   2.740 -1.2055  1.2415  0.8110
19378THY    CP365224   4.566   0.600   2.510  0.2894 -0.3397 -0.4779
19378THY    HP565225   4.660   0.617   2.565 -0.0740 -0.2536  1.4790
19378THY    HP665226   4.594   0.587   2.404  0.9378 -0.4285  1.3965
19378THY    HP765227   4.530   0.508   2.557 -1.7464  2.0633  1.3969
19378THY    CA365228   4.657   0.885   2.470  0.1250  0.5169  0.3347
19378THY    HA365229   4.729   0.810   2.501  0.4609  1.1229  0.8946
19378THY    CA465230   4.696   1.014   2.421 -0.3225 -0.0010 -0.2972
19378THY    HA465231   4.802   1.035   2.413 -0.5535  0.6604  1.3386
19378THY    CA565232   4.603   1.120   2.399  0.7088  0.6737 -1.0525
19378THY    CM165233   4.650   1.266   2.374  0.2822 -0.0169  0.0879
19378THY    HM165234   4.556   1.322   2.364 -0.2709 -1.9005 -1.0823
19378THY    HM265235   4.698   1.262   2.275 -0.2925 -0.2971 -3.4905
19378THY    HM365236   4.724   1.308   2.444  1.8818 -0.0752 -2.3933
19378THY    CA665237   4.464   1.086   2.409  0.1637 -0.0866 -0.5171
19378THY    HA665238   4.391   1.166   2.402  0.0590 -1.3691 -0.7061
19379THY      O65239   2.763   7.701   7.565  0.3073  0.0403 -0.1091
19379THY     HO65240   2.844   7.649   7.550  0.2841  1.1380 -0.4949
19379THY    CA165241   2.802   7.829   7.561  0.5915  0.6034 -1.5932
19379THY    CA265242   2.717   7.923   7.499  0.0784 -0.3299  0.3241
19379THY    CP165243   2.591   7.872   7.426 -0.3707 -0.3440 -0.1637
19379THY    HP165244   2.612   7.778   7.373 -2.5506 -1.6151 -0.0004
19379THY    CP265245   2.548   7.960   7.304 -0.2409 -0.4241 -0.3038
19379THY    HP265246   2.524   8.062   7.335  2.1272 -1.6174  0.6718
19379THY    HP365247   2.464   7.915   7.249  0.9796 -2.3062 -0.3802
19379THY    HP465248   2.625   7.962   7.227  0.9582  0.7528 -0.0983
19379THY    CP365249   2.470   7.851   7.522  0.8778  0.2352  0.2103
19379THY    HP565250   2.447   7.934   7.589  0.8365  1.2257 -0.5839
19379THY    HP665251   2.475   7.763   7.587  0.1237 -2.1792 -1.7530
19379THY    HP765252   2.382   7.830   7.460  0.8062  0.2528  0.4571
19379THY    CA365253   2.754   8.063   7.506 -0.0752 -0.0078  0.3488
19379THY    HA365254   2.688   8.141   7.469 -0.7401  0.6395  0.1020
19379THY    CA465255   2.876   8.099   7.563  0.2976 -0.2168 -0.1893
19379THY    HA465256   2.912   8.201   7.559 -1.3041 -1.4441  0.3675
19379THY    CA565257   2.962   8.004   7.619  0.1630  0.4227 -0.3433
19379THY    CM165258   3.106   8.046   7.667  0.0015 -0.3674 -0.0141
19379THY    HM165259   3.170   7.958   7.659 -1.9913 -3.4825 -1.3302
19379THY    HM265260   3.100   8.082   7.771 -0.0150  0.8873 -3.3412
19379THY    HM365261   3.160   8.122   7.609  1.6182  0.5735 -0.3841
19379THY    CA665262   2.924   7.866   7.618  0.5116  0.0230 -0.2690
19379THY    HA665263   2.987   7.788   7.659 -0.3166 -1.6186 -1.8902
19380THY      O65264   1.580   5.365   5.393  0.1945 -0.6059  0.1464
19380THY     HO65265   1.571   5.358   5.489  2.0129 -0.5187 -2.1688
19380THY    CA165266   1.636   5.485   5.383 -0.3471  0.1540  0.4397
19380THY    CA265267   1.606   5.574   5.277  0.3840  0.2581  0.6451
19380THY    CP165268   1.504   5.529   5.169 -0.0066 -0.4907  0.1671
19380THY    HP165269   1.461   5.430   5.186  0.1453  0.3351  0.2377
19380THY    CP265270   1.580   5.511   5.037 -0.6224  0.3242 -0.3119
19380THY    HP265271   1.509   5.463   4.969 -0.8411  0.1309  0.2807
19380THY    HP365272   1.674   5.458   5.056 -0.0140  2.0497  1.2565
19380THY    HP465273   1.619   5.609   5.006  0.4798 -0.1393 -0.8799
19380THY    CP365274   1.385   5.627   5.164 -0.3311 -0.0250  0.1492
19380THY    HP565275   1.409   5.734   5.155 -1.9066 -0.0243  0.5309
19380THY    HP665276   1.330   5.624   5.259 -0.0123  0.1655  0.3452
19380THY    HP765277   1.309   5.597   5.091 -2.9039  1.6377  2.1818
19380THY    CA365278   1.661   5.703   5.281  0.0509  0.5824  0.5055
19380THY    HA365279   1.635   5.768   5.198 -0.0430 -0.0740 -0.3589
19380THY    CA465280   1.751   5.730   5.381 -0.2501  0.5527 -0.1207
19380THY    HA465281   1.793   5.830   5.390  1.1202  0.6084 -0.6890
19380THY    CA565282   1.767   5.646   5.489 -0.5594  0.5840  0.4255
19380THY    CM165283   1.834   5.710   5.599  0.4526  0.6803 -0.1317
19380THY    HM165284   1.820   5.819   5.603  2.1171 -3.3553  0.4189
19380THY    HM265285   1.941   5.699   5.578  0.3945 -0.3823  1.0572
19380THY    HM365286   1.814   5.655   5.691 -2.1863 -0.0049 -0.4602
19380THY    CA665287   1.711   5.518   5.494  0.0517  0.7048  0.4037
19380THY    HA665288   1.726   5.470   5.591  1.7461 -0.5221 -1.7038
19381THY      O65289   6.668   8.174   7.337  0.2253 -0.2038 -0.1153
19381THY     HO65290   6.759   8.207   7.340  0.3551  0.1262 -0.4859
19381THY    CA165291   6.658   8.052   7.396  0.1226 -0.4060 -1.2475
19381THY    CA265292   6.557   7.964   7.367  0.5999 -0.2989  0.0337
19381THY    CP165293   6.444   8.012   7.275 -0.1433 -0.6754  0.1042
19381THY    HP165294   6.423   8.118   7.289 -1.3478  0.3203 -0.2460
19381THY    CP265295   6.314   7.941   7.313 -0.0014  0.5357 -0.0073
19381THY    HP265296   6.308   7.923   7.421  2.3313  0.4744 -1.5901
19381THY    HP365297   6.292   7.847   7.261 -4.2740 -0.7936  1.4849
19381THY    HP465298   6.230   8.003   7.279  0.0408 -0.1623 -0.3273
19381THY    CP365299   6.479   7.985   7.133  0.1779 -0.9129  0.1071
19381THY    HP565300   6.561   8.049   7.097 -0.7991  1.8379  3.1486
19381THY    HP665301   6.398   8.013   7.066  2.7830 -3.4043  2.3452
19381THY    HP765302   6.511   7.881   7.117 -0.1485 -1.3323  0.0722
19381THY    CA365303   6.568   7.836   7.419  0.0617 -0.9594 -0.3935
19381THY    HA365304   6.501   7.756   7.389 -0.5910  0.3511 -0.3703
19381THY    CA465305   6.677   7.812   7.509 -0.2259  0.6260  0.3783
19381THY    HA465306   6.683   7.714   7.557 -1.8327 -1.9205 -1.0750
19381THY    CA565307   6.764   7.914   7.550 -0.1948  0.2672  0.2425
19381THY    CM165308   6.868   7.885   7.652 -0.3211  0.0557  0.3486
19381THY    HM165309   6.847   7.928   7.751 -0.8096  0.3526 -0.5451
19381THY    HM265310   6.964   7.934   7.632 -0.1100 -0.6710 -0.3363
19381THY    HM365311   6.894   7.781   7.671  1.2604 -1.7138  0.3839
19381THY    CA665312   6.759   8.037   7.496 -0.1730  1.0143 -0.0902
19381THY    HA665313   6.837   8.111   7.511  0.8712 -2.2460 -0.4042
19382THY      O65314   8.322   7.742   4.598  0.0438 -0.3869 -0.5474
19382THY     HO65315   8.316   7.779   4.508 -3.8576  0.0225  0.3122
19382THY    CA165316   8.244   7.627   4.584  0.0338 -0.1792 -0.0422
19382THY    CA265317   8.183   7.568   4.698 -0.0514 -0.1375  0.0178
19382THY    CP165318   8.196   7.635   4.829  0.5548  0.5796 -0.0700
19382THY    HP165319   8.231   7.737   4.809  0.3050  1.0952  0.1191
19382THY    CP265320   8.282   7.557   4.924 -0.3881  0.0523 -0.0332
19382THY    HP265321   8.259   7.576   5.029 -0.3967  0.0477 -0.0199
19382THY    HP365322   8.387   7.584   4.904  0.1541  1.5043 -0.9669
19382THY    HP465323   8.267   7.450   4.909 -0.2630  3.1059 -0.5693
19382THY    CP365324   8.062   7.656   4.905 -0.1616 -0.4226 -1.0523
19382THY    HP565325   8.074   7.737   4.979  0.4678 -1.0445 -0.5655
19382THY    HP665326   8.036   7.561   4.954 -2.6530  1.0724  0.2896
19382THY    HP765327   7.970   7.681   4.851  0.3783 -1.4829 -1.3376
19382THY    CA365328   8.125   7.447   4.688  0.1387  0.4286  1.3573
19382THY    HA365329   8.066   7.391   4.760  1.1674  0.7652  0.6654
19382THY    CA465330   8.120   7.389   4.555  0.7772  0.1882 -0.4269
19382THY    HA465331   8.071   7.294   4.535  0.9111 -0.6719 -0.3295
19382THY    CA565332   8.174   7.451   4.444  0.1853  0.5805  0.8969
19382THY    CM165333   8.175   7.385   4.306 -0.3889 -0.1705  0.6487
19382THY    HM165334   8.238   7.443   4.237  0.7511  0.3019  0.0176
19382THY    HM265335   8.075   7.366   4.267  0.1805 -1.1278 -0.5431
19382THY    HM365336   8.236   7.293   4.310 -0.4964 -0.3492  0.5688
19382THY    CA665337   8.232   7.570   4.459  0.2016 -0.2509 -0.9352
19382THY    HA665338   8.277   7.622   4.375  0.5539  1.4258  1.6413
19383THY      O65339   1.356   2.254   2.433  0.3807  0.8506  0.2866
19383THY     HO65340   1.353   2.340   2.479 -1.1702  2.5726 -0.6197
19383THY    CA165341   1.412   2.176   2.533 -0.5967  0.0969  0.5446
19383THY    CA265342   1.500   2.069   2.500 -0.1397 -0.3262 -0.0421
19383THY    CP165343   1.522   2.032   2.348  0.0756  0.1021  0.3052
19383THY    HP165344   1.449   2.091   2.291 -1.6825  3.0448  1.1605
19383THY    CP265345   1.492   1.884   2.310 -0.4360 -0.5901  0.4823
19383THY    HP265346   1.517   1.809   2.386  0.6037  1.0460  2.3865
19383THY    HP365347   1.548   1.863   2.218  1.4452  0.6418 -0.1873
19383THY    HP465348   1.388   1.860   2.285 -0.6538  0.2842  0.4830
19383THY    CP365349   1.669   2.063   2.301  0.1521  0.3220 -0.5900
19383THY    HP565350   1.672   2.172   2.309  2.5569  1.7475 -0.7001
19383THY    HP665351   1.696   2.045   2.196  0.6616  0.1565  1.0373
19383THY    HP765352   1.745   2.023   2.369  0.8854 -0.1027  0.0653
19383THY    CA365353   1.558   1.996   2.605  0.6197  0.2050  0.6133
19383THY    HA365354   1.619   1.906   2.592  0.3442  0.7805  0.3375
19383THY    CA465355   1.521   2.030   2.738 -0.5672 -0.3929 -0.0250
19383THY    HA465356   1.576   1.978   2.816  1.3247 -1.2317  0.6766
19383THY    CA565357   1.432   2.136   2.768 -0.6641  0.5873 -0.2693
19383THY    CM165358   1.393   2.150   2.911  0.3128 -0.2759  0.1244
19383THY    HM165359   1.400   2.055   2.964 -1.3955 -0.8747 -0.3829
19383THY    HM265360   1.292   2.194   2.911  0.6563 -1.1142  0.9465
19383THY    HM365361   1.458   2.220   2.965 -1.3310  1.9280  0.0400
19383THY    CA665362   1.375   2.211   2.666 -0.0975  0.2928 -0.1042
19383THY    HA665363   1.300   2.286   2.694  0.0743  1.8208 -0.4636
19384THY      O65364   8.616   5.257   2.268  1.0260  0.4690 -0.2629
19384THY     HO65365   8.527   5.237   2.300 -0.1297 -2.1474  0.2196
19384THY    CA165366   8.642   5.188   2.156 -0.5467  0.3066  0.5855
19384THY    CA265367   8.700   5.252   2.036  0.0751 -0.3939  0.4722
19384THY    CP165368   8.741   5.400   2.026  0.2089  0.4893 -0.1382
19384THY    HP165369   8.724   5.463   2.115  0.9472  1.5952 -1.4493
19384THY    CP265370   8.671   5.479   1.912  0.2197  0.1132 -0.5500
19384THY    HP265371   8.672   5.428   1.815  1.5182 -0.0948 -0.1585
19384THY    HP365372   8.719   5.578   1.912 -0.8644 -1.1733  0.0091
19384THY    HP465373   8.565   5.496   1.938  0.4601  0.7425  0.0526
19384THY    CP365374   8.894   5.418   1.994  0.8546  0.0316 -0.4227
19384THY    HP565375   8.917   5.365   1.901 -1.4026 -1.1064  0.4779
19384THY    HP665376   8.952   5.381   2.080  1.0050 -0.5945 -1.7121
19384THY    HP765377   8.918   5.522   1.970 -1.5601 -0.6354  0.0197
19384THY    CA365378   8.733   5.166   1.928  0.2470  0.1212 -0.1978
19384THY    HA365379   8.775   5.209   1.838 -0.2956 -0.4636 -0.8755
19384THY    CA465380   8.716   5.028   1.941  0.7569 -0.4300  0.1751
19384THY    HA465381   8.741   4.962   1.858  0.3413  0.4753 -1.1741
19384THY    CA565382   8.658   4.976   2.057  0.1523 -0.2312  0.3588
19384THY    CM165383   8.665   4.820   2.071 -0.2488  0.4665 -0.5093
19384THY    HM165384   8.585   4.787   2.138  1.5597  1.4255 -3.2479
19384THY    HM265385   8.754   4.791   2.128 -1.0247  1.8088 -0.3249
19384THY    HM365386   8.664   4.768   1.974  1.1978  0.4958 -0.6241
19384THY    CA665387   8.627   5.053   2.167  0.3874  0.4152  0.4850
19384THY    HA665388   8.605   5.008   2.263  0.6897  0.8928  1.3497
19385THY      O65389   1.410   5.080   2.607 -0.2502 -0.4752  0.2658
19385THY     HO65390   1.500   5.090   2.641  0.4941 -2.2680 -0.0811
19385THY    CA165391   1.402   4.951   2.583 -0.1190 -0.3876 -0.5874
19385THY    CA265392   1.280   4.890   2.552  0.4348  0.7892  0.4987
19385THY    CP165393   1.149   4.977   2.540 -0.0123 -0.0928 -0.5795
19385THY    HP165394   1.176   5.083   2.548 -1.2580 -1.5876 -0.1003
19385THY    CP265395   1.070   4.951   2.670 -0.2999 -0.1808 -0.7273
19385THY    HP265396   1.015   4.856   2.663 -1.3322 -0.0080 -0.1587
19385THY    HP365397   0.993   5.028   2.680 -0.4912  1.7386 -1.1207
19385THY    HP465398   1.127   4.952   2.763 -0.7664  0.1508 -2.2396
19385THY    CP365399   1.073   4.960   2.405 -0.4060  0.5284 -0.6931
19385THY    HP565400   1.149   4.940   2.328 -0.1904 -0.1201  2.1493
19385THY    HP665401   1.009   5.044   2.377  1.0436 -2.0882 -0.3594
19385THY    HP765402   1.011   4.870   2.416 -1.0596  2.9496 -0.0310
19385THY    CA365403   1.279   4.752   2.525  0.0773 -0.1899 -0.2255
19385THY    HA365404   1.179   4.717   2.499  0.2920 -2.2896  0.5855
19385THY    CA465405   1.394   4.680   2.527  0.7891  0.0454 -0.1029
19385THY    HA465406   1.397   4.576   2.498 -0.0084  0.7767 -0.3463
19385THY    CA565407   1.515   4.745   2.558 -0.2628  0.2205 -0.6615
19385THY    CM165408   1.644   4.658   2.548  0.4337 -0.6225 -0.0804
19385THY    HM165409   1.688   4.650   2.648  0.5029 -0.5449  1.1089
19385THY    HM265410   1.711   4.701   2.473 -1.7656 -1.3180  2.3745
19385THY    HM365411   1.627   4.552   2.528 -0.1103  1.9516 -0.5645
19385THY    CA665412   1.519   4.877   2.596 -0.7035  0.3286 -0.4542
19385THY    HA665413   1.610   4.922   2.636 -1.3587  1.2595  0.0701
19386THY      O65414   6.023   4.180   5.741 -0.0382  0.3378  0.2312
19386THY     HO65415   6.050   4.123   5.815 -1.5718  1.3987  0.8149
19386THY    CA165416   5.919   4.251   5.794 -0.5501  0.3428  0.1254
19386THY    CA265417   5.902   4.388   5.761  0.4751  0.0327 -0.2582
19386THY    CP165418   5.987   4.456   5.656 -0.3507 -0.3981 -0.3007
19386THY    HP165419   6.060   4.386   5.613 -0.7395  1.3410 -1.8510
19386THY    CP265420   6.071   4.571   5.719  0.0779 -0.4484 -0.5814
19386THY    HP265421   6.135   4.532   5.799  0.1949 -0.3537 -0.2077
19386THY    HP365422   6.017   4.656   5.762 -0.1078  0.3028 -1.0711
19386THY    HP465423   6.137   4.611   5.641  2.0896  0.9429 -1.0063
19386THY    CP365424   5.896   4.514   5.550  0.2697 -0.5881 -0.2083
19386THY    HP565425   5.820   4.441   5.518  0.8022  2.2379 -2.1263
19386THY    HP665426   5.961   4.546   5.467 -0.0947 -1.4913 -1.7095
19386THY    HP765427   5.833   4.590   5.599 -1.9316  1.2273 -3.0189
19386THY    CA365428   5.800   4.459   5.836 -0.0547 -0.3049  0.3110
19386THY    HA365429   5.804   4.567   5.832 -0.7579  1.1982  0.4211
19386THY    CA465430   5.721   4.395   5.934 -0.4077 -0.4892 -0.1224
19386THY    HA465431   5.644   4.449   5.988 -0.8125 -0.1389 -1.0270
19386THY    CA565432   5.730   4.258   5.945  0.4000 -0.5464  0.0701
19386THY    CM165433   5.624   4.185   6.029  0.1255 -0.5508 -0.0893
19386THY    HM165434   5.520   4.209   6.003 -0.5848  2.3876  0.3838
19386THY    HM265435   5.623   4.224   6.131 -0.9210 -0.4779 -0.2771
19386THY    HM365436   5.625   4.076   6.019  0.4855 -3.1423  0.0670
19386THY    CA665437   5.834   4.184   5.885  0.6268  0.1623 -0.1212
19386THY    HA665438   5.844   4.077   5.902  1.5400 -2.8504 -0.6057
19387THY      O65439   6.904   7.918   3.177  0.0037 -0.2004 -0.3743
19387THY     HO65440   6.977   7.947   3.120  2.1202  0.1148 -4.3854
19387THY    CA165441   6.855   8.030   3.242 -0.3250  0.4654 -0.1586
19387THY    CA265442   6.717   8.038   3.277 -1.1423 -0.3716  0.8669
19387THY    CP165443   6.633   7.905   3.269  0.1878 -0.6065  0.3894
19387THY    HP165444   6.536   7.919   3.319  1.2115  1.4498  0.5375
19387THY    CP265445   6.685   7.792   3.361 -0.5987  0.3759 -0.0275
19387THY    HP265446   6.734   7.832   3.451 -1.4664  0.8564 -0.0241
19387THY    HP365447   6.749   7.720   3.310  0.5612 -2.6507  2.9357
19387THY    HP465448   6.603   7.723   3.383 -1.5032  0.3647  1.0169
19387THY    CP365449   6.607   7.850   3.127 -0.0494  0.7243  0.4287
19387THY    HP565450   6.553   7.756   3.143  2.1832  2.0186 -0.7099
19387THY    HP665451   6.699   7.841   3.067 -0.6240  0.0154 -0.9580
19387THY    HP765452   6.551   7.922   3.066  0.5173  0.2215  0.4612
19387THY    CA365453   6.667   8.167   3.323  0.5605  0.8729 -0.2320
19387THY    HA365454   6.564   8.173   3.357 -0.4674 -1.0592 -3.7834
19387THY    CA465455   6.752   8.276   3.333  0.2714  0.0444 -0.6792
19387THY    HA465456   6.707   8.368   3.370  1.9091  0.3336  0.0433
19387THY    CA565457   6.889   8.266   3.290 -0.2794 -0.1409  0.2173
19387THY    CM165458   6.988   8.378   3.313  0.0742  1.0115 -1.1584
19387THY    HM165459   7.083   8.332   3.342 -0.7407  2.5556 -1.9356
19387THY    HM265460   6.963   8.445   3.397  1.2059 -0.6106  1.4594
19387THY    HM365461   6.999   8.444   3.226  1.8612  0.9475 -1.4952
19387THY    CA665462   6.941   8.142   3.242  0.5879 -0.2362  0.3488
19387THY    HA665463   7.046   8.136   3.217  0.6635  0.1727 -0.0144
19388THY      O65464   4.634   1.158   6.309  0.2048 -0.0684  0.1693
19388THY     HO65465   4.639   1.099   6.232 -0.3373 -0.7996  1.0394
19388THY    CA165466   4.511   1.217   6.305  0.4638 -0.2467  0.4118
19388THY    CA265467   4.470   1.329   6.382  0.1463  0.1601  0.5133
19388THY    CP165468   4.569   1.380   6.491  0.7469  0.2687 -0.3580
19388THY    HP165469   4.671   1.346   6.472  0.5218 -1.9008  0.0757
19388THY    CP265470   4.521   1.330   6.630 -0.0340  0.3942 -0.6525
19388THY    HP265471   4.536   1.222   6.629 -2.3652  3.0920 -1.1009
19388THY    HP365472   4.414   1.348   6.645 -0.4196 -2.7728  0.4541
19388THY    HP465473   4.587   1.380   6.702 -2.5232  1.0236  2.0081
19388THY    CP365474   4.570   1.537   6.494  0.4347 -0.5914 -0.1796
19388THY    HP565475   4.471   1.576   6.519  0.4761  2.3586 -1.6618
19388THY    HP665476   4.606   1.592   6.406  0.7214  0.2560  1.0255
19388THY    HP765477   4.636   1.561   6.578  2.6306 -2.3988  0.5077
19388THY    CA365478   4.339   1.382   6.356 -0.0176 -0.0410  0.3238
19388THY    HA365479   4.320   1.465   6.424 -1.0877 -1.8337  1.6046
19388THY    CA465480   4.256   1.330   6.257  0.2384 -0.2836 -0.1033
19388THY    HA465481   4.160   1.376   6.234 -0.1385  1.0730 -0.1786
19388THY    CA565482   4.299   1.217   6.188 -0.3039  0.4222  0.3302
19388THY    CM165483   4.219   1.165   6.077  0.4845 -0.2609  0.2536
19388THY    HM165484   4.247   1.195   5.975 -1.9723 -1.2692 -0.6388
19388THY    HM265485   4.115   1.200   6.086  0.0115 -0.4830 -1.0392
19388THY    HM365486   4.220   1.055   6.081  1.0426  0.3497  0.2784
19388THY    CA665487   4.421   1.161   6.207  0.4307 -0.0473 -0.0973
19388THY    HA665488   4.462   1.079   6.148  0.6704  0.8994 -0.6739
19389THY      O65489   8.224   4.210   6.819 -0.0047 -0.9030  0.7384
19389THY     HO65490   8.187   4.295   6.790  1.1140  0.4782  1.7398
19389THY    CA165491   8.359   4.224   6.833  0.1880 -0.6100  0.5511
19389THY    CA265492   8.438   4.132   6.904  0.3409 -0.2382 -0.1946
19389THY    CP165493   8.384   4.037   7.007 -0.1033  0.0452 -0.1453
19389THY    HP165494   8.275   4.041   6.995 -0.1312  0.6470  1.2599
19389THY    CP265495   8.413   4.084   7.143 -0.2782 -0.0282  0.2885
19389THY    HP265496   8.367   4.179   7.172  0.2623  0.2076  0.4850
19389THY    HP365497   8.518   4.111   7.161  0.6615  0.1591 -3.0720
19389THY    HP465498   8.403   4.006   7.219  0.0176 -2.5863 -2.4211
19389THY    CP365499   8.430   3.889   6.978 -0.7420  0.6160  0.5894
19389THY    HP565500   8.416   3.857   6.874 -0.5923  0.6935  0.2756
19389THY    HP665501   8.359   3.816   7.019  0.7674 -0.1144 -1.3870
19389THY    HP765502   8.533   3.875   7.012 -0.3569 -0.7143  0.0721
19389THY    CA365503   8.579   4.144   6.905  0.0908 -0.3777  0.0187
19389THY    HA365504   8.639   4.082   6.970 -0.1199 -2.1657 -2.1839
19389THY    CA465505   8.640   4.250   6.836  0.3074 -0.1615  0.3280
19389THY    HA465506   8.747   4.262   6.829  0.2575 -1.6149  0.1178
19389THY    CA565507   8.559   4.340   6.763  1.4567  0.0418  0.1229
19389THY    CM165508   8.622   4.440   6.672 -0.4669 -0.0212  0.0864
19389THY    HM165509   8.553   4.523   6.691  0.7016  0.9141  0.8844
19389THY    HM265510   8.599   4.406   6.571  0.5347  0.8628 -3.5967
19389THY    HM365511   8.731   4.452   6.676 -0.5507 -0.9081  1.3695
19389THY    CA665512   8.417   4.323   6.765  0.1052 -0.0245 -0.2107
19389THY    HA665513   8.358   4.396   6.710  1.9925  0.3420  1.6813
19390THY      O65514   3.913   8.504   7.491 -0.1784  0.0842  0.0300
19390THY     HO65515   3.830   8.505   7.440  0.7490 -1.5687 -1.6112
19390THY    CA165516   3.961   8.378   7.472  0.1513  1.0421 -0.5287
19390THY    CA265517   4.038   8.310   7.565  0.0716  0.9424 -0.3813
19390THY    CP165518   4.046   8.381   7.703  0.3665  0.5464 -0.4161
19390THY    HP165519   4.048   8.490   7.694  1.1974 -1.2777 -0.5620
19390THY    CP265520   4.164   8.343   7.791 -0.9294  0.2268 -0.4072
19390THY    HP265521   4.251   8.341   7.725 -0.5794  0.6932 -0.8494
19390THY    HP365522   4.145   8.238   7.819 -1.1473  0.3437 -0.3387
19390THY    HP465523   4.169   8.416   7.873  0.3883 -1.0603  1.0171
19390THY    CP365524   3.929   8.351   7.795  0.7998  0.1644  0.0045
19390THY    HP565525   3.946   8.246   7.822  1.6496 -3.2721 -0.8867
19390THY    HP665526   3.838   8.358   7.733 -0.2278  1.7482  1.3311
19390THY    HP765527   3.927   8.427   7.873  0.3905  0.4886 -0.3323
19390THY    CA365528   4.098   8.185   7.535  0.9914  0.3197  0.2554
19390THY    HA365529   4.157   8.140   7.615  1.3869 -0.1357 -0.0392
19390THY    CA465530   4.079   8.134   7.406  0.2667  0.2781 -0.0632
19390THY    HA465531   4.134   8.049   7.367  0.8369 -1.7487  1.1690
19390THY    CA565532   3.985   8.190   7.319  0.3739 -0.3100 -1.0620
19390THY    CM165533   3.937   8.123   7.184  0.2445 -0.4633 -0.0375
19390THY    HM165534   3.829   8.112   7.198 -0.1086 -1.9695  1.1775
19390THY    HM265535   3.977   8.021   7.177 -1.4429  3.0427 -1.0996
19390THY    HM365536   3.960   8.178   7.092 -4.2851 -0.1765  2.8060
19390THY    CA665537   3.930   8.309   7.357 -0.7765 -0.4741  0.2167
19390THY    HA665538   3.857   8.347   7.286 -1.3869  0.4044  0.7325
19391THY      O65539   1.598   4.197   2.407 -0.4701 -0.2194  0.7030
19391THY     HO65540   1.564   4.135   2.473 -1.7757 -0.9017  0.6691
19391THY    CA165541   1.716   4.133   2.357  0.3560  0.1251 -0.6965
19391THY    CA265542   1.773   4.160   2.232 -0.3378 -0.1311  0.0633
19391THY    CP165543   1.704   4.259   2.133 -0.1388 -0.2380 -0.4896
19391THY    HP165544   1.599   4.272   2.158  0.2105  2.4940 -2.1357
19391THY    CP265545   1.719   4.232   1.987  0.1768  0.5537 -0.4574
19391THY    HP265546   1.670   4.312   1.930 -1.4249  0.9213 -1.1288
19391THY    HP365547   1.681   4.132   1.960  3.3148  1.1124 -1.9434
19391THY    HP465548   1.821   4.228   1.947  0.3261  0.8270  0.4230
19391THY    CP365549   1.756   4.399   2.176 -0.5356  0.2715  0.4469
19391THY    HP565550   1.749   4.407   2.285  0.8869  0.3643  0.7857
19391THY    HP665551   1.687   4.474   2.136 -1.4721 -0.6844 -0.8785
19391THY    HP765552   1.861   4.419   2.150 -0.4966  0.9207  1.1122
19391THY    CA365553   1.896   4.097   2.196  0.2287  0.4034  0.3545
19391THY    HA365554   1.942   4.098   2.098 -0.0310  0.2770  0.0779
19391THY    CA465555   1.950   4.001   2.288  0.0003 -0.2342 -0.0736
19391THY    HA465556   2.042   3.948   2.266 -1.1421 -2.0998 -1.3832
19391THY    CA565557   1.891   3.973   2.412 -0.6936  0.3676  0.5552
19391THY    CM165558   1.957   3.884   2.515 -0.3581 -0.2354  0.2296
19391THY    HM165559   2.057   3.850   2.484 -0.9800  0.6955 -2.7086
19391THY    HM265560   1.894   3.799   2.545 -2.5362 -1.5299  1.3091
19391THY    HM365561   1.969   3.942   2.607 -1.4569  1.1576 -1.6215
19391THY    CA665562   1.772   4.039   2.450  0.7965  0.4891  0.4829
19391THY    HA665563   1.729   4.025   2.548 -3.1212 -0.6430  2.8943
19392THY      O65564   7.982   4.532   2.567  0.2789  0.5727  0.9571
19392THY     HO65565   7.922   4.579   2.627  1.1062  0.2481  2.4831
19392THY    CA165566   7.917   4.529   2.449  0.7216 -0.0280 -0.6700
19392THY    CA265567   7.941   4.423   2.355 -0.9608 -0.3198 -0.2813
19392THY    CP165568   8.019   4.299   2.407  0.0247 -0.7175 -0.0521
19392THY    HP165569   8.041   4.302   2.514  1.5942 -0.9968 -0.7820
19392THY    CP265570   8.156   4.280   2.337 -0.0741 -0.6331 -0.1652
19392THY    HP265571   8.202   4.379   2.338  0.7129 -0.4184 -0.5265
19392THY    HP365572   8.126   4.260   2.233  2.0648 -0.9950 -1.8708
19392THY    HP465573   8.214   4.200   2.385  0.6645  3.5934  2.6011
19392THY    CP365574   7.934   4.167   2.388 -0.7275 -0.0725 -0.5068
19392THY    HP565575   7.959   4.145   2.283  4.2577  0.7702 -0.1418
19392THY    HP665576   7.827   4.165   2.413 -0.7291  0.1960  1.3416
19392THY    HP765577   7.985   4.086   2.441  1.7940 -0.0706  0.9877
19392THY    CA365578   7.899   4.441   2.221 -1.0259  0.1357  0.1258
19392THY    HA365579   7.913   4.363   2.147  1.5247 -0.1797  0.7716
19392THY    CA465580   7.827   4.556   2.189 -0.5529  0.4778 -0.0501
19392THY    HA465581   7.792   4.570   2.087 -1.9814  0.9909  0.2859
19392THY    CA565582   7.799   4.658   2.277 -1.1230 -0.3973  0.9509
19392THY    CM165583   7.725   4.782   2.230 -0.7082  0.1191  0.1093
19392THY    HM165584   7.796   4.864   2.218  1.6671  3.6181 -1.1998
19392THY    HM265585   7.671   4.812   2.321 -1.7137 -0.3094 -0.3197
19392THY    HM365586   7.651   4.764   2.151 -0.8829  0.3721 -0.3140
19392THY    CA665587   7.855   4.646   2.405  0.5428  0.5901  0.1598
19392THY    HA665588   7.841   4.728   2.475  1.0941 -0.5834  1.2995
19393THY      O65589   5.811   3.351   6.182  0.3603 -0.0293  0.4496
19393THY     HO65590   5.716   3.344   6.161  0.8666 -3.2511  1.7688
19393THY    CA165591   5.850   3.452   6.108 -0.0982 -0.8706 -0.5802
19393THY    CA265592   5.952   3.435   6.016  0.0341  0.6338 -0.6324
19393THY    CP165593   6.014   3.297   5.983 -0.2690  0.4467  0.1280
19393THY    HP165594   6.019   3.242   6.078  0.3213 -0.9943 -2.4555
19393THY    CP265595   6.154   3.292   5.919 -0.5554  0.0923  0.9080
19393THY    HP265596   6.148   3.304   5.810 -0.2712 -0.1512 -0.8837
19393THY    HP365597   6.202   3.196   5.941 -0.3589 -0.9980  0.7495
19393THY    HP465598   6.216   3.371   5.963  0.9352  0.6768 -0.5289
19393THY    CP365599   5.926   3.232   5.881 -0.0098 -0.9102  0.3145
19393THY    HP565600   5.826   3.205   5.916  0.6577  0.2196 -0.7302
19393THY    HP665601   5.967   3.141   5.837  1.4740 -1.6694  1.3078
19393THY    HP765602   5.924   3.303   5.797  2.5697 -0.8173  0.5838
19393THY    CA365603   5.993   3.550   5.941 -0.3716 -0.6302  0.0469
19393THY    HA365604   6.074   3.546   5.869  0.1118 -0.0344 -1.3648
19393THY    CA465605   5.934   3.670   5.967 -0.1886 -0.1051  0.2746
19393THY    HA465606   5.968   3.753   5.906 -0.6329 -1.4287 -0.4668
19393THY    CA565607   5.821   3.677   6.052  0.0424 -0.0396 -0.5973
19393THY    CM165608   5.738   3.805   6.051  0.6644 -0.1534  0.5071
19393THY    HM165609   5.788   3.897   6.084 -0.3417  1.0673  0.6409
19393THY    HM265610   5.644   3.800   6.108  0.8973  0.3724  1.6367
19393THY    HM365611   5.703   3.824   5.949 -3.0639  0.9933  0.5698
19393THY    CA665612   5.774   3.569   6.121  0.2912  0.4851  0.2291
19393THY    HA665613   5.687   3.569   6.187 -0.5437 -0.5670 -1.0936
19394THY      O65614   6.743   2.561   3.777 -0.3464 -0.0739 -0.0696
19394THY     HO65615   6.779   2.623   3.844 -0.0436 -0.5599  0.2922
19394THY    CA165616   6.636   2.614   3.719 -0.2558 -0.2456 -0.0219
19394THY    CA265617   6.579   2.555   3.607  0.1617 -0.1002  0.4313
19394THY    CP165618   6.640   2.427   3.540  0.0293  0.2406  0.6201
19394THY    HP165619   6.702   2.375   3.615  1.1309 -0.8119  0.3715
19394THY    CP265620   6.709   2.447   3.406 -0.2305 -0.2178  0.0234
19394THY    HP265621   6.752   2.351   3.377  1.9858  0.4147  0.7489
19394THY    HP365622   6.790   2.520   3.422  0.4328 -0.3711 -0.6636
19394THY    HP465623   6.643   2.486   3.328  0.9769  0.1697  3.2044
19394THY    CP365624   6.523   2.330   3.505 -0.1182  0.8323 -0.5927
19394THY    HP565625   6.559   2.226   3.508  0.4176  0.1288 -0.4382
19394THY    HP665626   6.472   2.343   3.409  0.9555  0.4565  1.1089
19394THY    HP765627   6.446   2.328   3.583 -2.1137 -1.0390 -2.6825
19394THY    CA365628   6.463   2.619   3.551 -0.4209 -0.3931  0.1805
19394THY    HA365629   6.416   2.571   3.466 -0.1005 -0.4605 -0.0101
19394THY    CA465630   6.409   2.741   3.607  0.4112 -0.1114  0.3736
19394THY    HA465631   6.317   2.783   3.568  1.2653 -1.0993  1.4270
19394THY    CA565632   6.475   2.796   3.720 -0.4672  0.4511  0.1050
19394THY    CM165633   6.424   2.915   3.784  1.0241  0.1644 -0.2286
19394THY    HM165634   6.491   3.000   3.765 -0.1676 -0.5483  0.5647
19394THY    HM265635   6.411   2.895   3.891 -0.9709 -0.0133 -0.0637
19394THY    HM365636   6.324   2.937   3.747  1.2550 -0.2296  0.1687
19394THY    CA665637   6.587   2.736   3.772  0.3763  0.5858 -0.3918
19394THY    HA665638   6.635   2.780   3.859 -0.7060  0.9622  0.0837
19395THY      O65639   1.564   8.259   7.137 -0.0888 -0.9312 -0.3934
19395THY     HO65640   1.519   8.222   7.059 -1.9869  0.8842 -2.1502
19395THY    CA165641   1.538   8.386   7.147  0.7487  0.2369 -0.3069
19395THY    CA265642   1.643   8.473   7.175  0.4363  0.2943 -0.3547
19395THY    CP165643   1.797   8.430   7.181  0.5854 -0.0666 -0.9746
19395THY    HP165644   1.812   8.323   7.162  0.6454  0.3509 -1.0418
19395THY    CP265645   1.850   8.463   7.320 -0.4925  0.7994 -0.1109
19395THY    HP265646   1.776   8.457   7.401  1.4355  2.6300 -0.3743
19395THY    HP365647   1.886   8.567   7.318  0.6780  0.5248 -0.5153
19395THY    HP465648   1.941   8.405   7.337 -1.5969  1.1945 -1.8127
19395THY    CP365649   1.869   8.506   7.073 -0.2541 -0.2256 -0.6352
19395THY    HP565650   1.852   8.614   7.070  0.2768 -1.4898 -0.5614
19395THY    HP665651   1.832   8.461   6.980  2.5425 -1.3872 -0.7289
19395THY    HP765652   1.976   8.480   7.073  0.1368 -1.5257  0.8284
19395THY    CA365653   1.601   8.605   7.198  0.1943 -0.0332 -0.2628
19395THY    HA365654   1.678   8.673   7.232  0.0839  0.8318 -0.5521
19395THY    CA465655   1.472   8.647   7.168  0.0502  0.0914  0.3191
19395THY    HA465656   1.443   8.751   7.181  0.0346 -1.2176  0.4878
19395THY    CA565657   1.376   8.560   7.122 -0.7368 -0.0999  1.1719
19395THY    CM165658   1.237   8.603   7.098 -0.0979  0.5535 -0.8693
19395THY    HM165659   1.174   8.611   7.188  0.0251  0.7014 -1.5314
19395THY    HM265660   1.179   8.536   7.033 -2.4661  0.5406  1.0363
19395THY    HM365661   1.248   8.696   7.042  0.0955 -0.2267 -1.3579
19395THY    CA665662   1.410   8.424   7.124 -0.5661  1.3609 -0.5511
19395THY    HA665663   1.333   8.355   7.091 -1.8521  2.9032  0.0712
19396THY      O65664   9.265   2.925   2.534 -0.3292  0.2461  0.1600
19396THY     HO65665   9.206   2.849   2.543 -1.0519 -0.5153  0.6146
19396THY    CA165666   9.204   3.016   2.616 -0.1345 -0.1165  0.5556
19396THY    CA265667   9.270   3.127   2.660 -0.9683  0.2665 -0.2967
19396THY    CP165668   9.405   3.162   2.603 -0.2202  0.4407 -0.3073
19396THY    HP165669   9.443   3.082   2.538  1.9124  1.9817 -0.6490
19396THY    CP265670   9.512   3.174   2.715  0.2317  0.0175  0.1843
19396THY    HP265671   9.531   3.081   2.769  0.4917 -1.6279 -0.7698
19396THY    HP365672   9.500   3.261   2.781 -1.8742  2.2069 -1.6439
19396THY    HP465673   9.600   3.188   2.652  0.3082  0.3722  1.4949
19396THY    CP365674   9.408   3.284   2.516 -0.2801 -1.2123 -0.8313
19396THY    HP565675   9.337   3.285   2.433  0.0321 -1.5574  2.3589
19396THY    HP665676   9.508   3.293   2.471  0.4718  0.1149 -2.0180
19396THY    HP765677   9.394   3.374   2.577 -0.8352 -3.2837  0.5760
19396THY    CA365678   9.207   3.212   2.758 -0.1502 -0.6359 -0.1475
19396THY    HA365679   9.247   3.306   2.793  1.5644  1.6303 -1.6170
19396THY    CA465680   9.077   3.175   2.793 -0.2235 -0.4202 -0.7290
19396THY    HA465681   9.025   3.248   2.854 -0.0105 -1.7980  0.6246
19396THY    CA565682   9.020   3.062   2.750  0.1367 -0.2519  0.3730
19396THY    CM165683   8.877   3.035   2.792 -0.2725 -0.0362 -0.2425
19396THY    HM165684   8.822   2.968   2.725 -1.4618 -0.2356  0.8736
19396THY    HM265685   8.816   3.126   2.802  1.7325  1.1640  1.0354
19396THY    HM365686   8.863   2.989   2.890  0.2516  0.5966  0.9119
19396THY    CA665687   9.088   2.970   2.671 -0.0503  0.1340  0.0942
19396THY    HA665688   9.048   2.872   2.648  2.4299  1.7653 -1.4319
19397THY      O65689   0.320   6.591   5.650 -0.2270  0.0321 -0.2694
19397THY     HO65690   0.330   6.507   5.699 -0.3646 -1.7520 -1.3715
19397THY    CA165691   0.317   6.703   5.733 -0.0417 -0.6944  0.0848
19397THY    CA265692   0.305   6.837   5.696  0.3031  0.1070  0.2105
19397THY    CP165693   0.291   6.879   5.548  0.2182 -0.1460 -0.2296
19397THY    HP165694   0.301   6.795   5.479 -0.7520 -0.4802 -0.0829
19397THY    CP265695   0.406   6.975   5.500  1.0213  0.7343  0.1690
19397THY    HP265696   0.390   7.011   5.398  0.9328  0.9016  0.6147
19397THY    HP365697   0.502   6.925   5.517  1.6758  2.8216  1.9484
19397THY    HP465698   0.412   7.059   5.570  1.1345  1.6110 -0.5508
19397THY    CP365699   0.153   6.942   5.528 -0.3186  0.1248  0.3577
19397THY    HP565700   0.152   7.049   5.552  0.4738  1.1848  0.1362
19397THY    HP665701   0.081   6.891   5.591  0.7079  0.8662 -0.2019
19397THY    HP765702   0.127   6.922   5.423  0.1409  0.0183  0.3017
19397THY    CA365703   0.337   6.932   5.794  0.2326  0.1062  0.0275
19397THY    HA365704   0.336   7.039   5.775 -1.2017 -0.8335 -0.1202
19397THY    CA465705   0.362   6.896   5.926 -0.7172 -0.4650 -0.3111
19397THY    HA465706   0.374   6.967   6.007  1.2672  1.0513 -2.2123
19397THY    CA565707   0.348   6.758   5.965 -0.5844  0.2899 -1.0516
19397THY    CM165708   0.343   6.728   6.109 -0.2853 -0.2987 -0.5009
19397THY    HM165709   0.368   6.624   6.134 -0.3152 -0.2875 -0.5055
19397THY    HM265710   0.250   6.754   6.162  0.1013  0.2110 -0.1304
19397THY    HM365711   0.422   6.780   6.166 -1.3833 -0.7745  1.8383
19397THY    CA665712   0.333   6.659   5.869  0.6694  0.5923  0.1927
19397THY    HA665713   0.339   6.553   5.894  0.0305  0.4732  0.1262
19398THY      O65714   3.649   8.563   7.352  0.0801  0.2148  0.3365
19398THY     HO65715   3.644   8.643   7.297  1.5525 -1.7210 -0.8140
19398THY    CA165716   3.625   8.456   7.273 -0.4539 -1.0882  0.2471
19398THY    CA265717   3.553   8.347   7.322  0.0004 -0.6179 -0.9978
19398THY    CP165718   3.494   8.345   7.462 -0.3351 -0.1814 -0.3223
19398THY    HP165719   3.502   8.440   7.515  1.0547 -1.6196  0.4107
19398THY    CP265720   3.580   8.257   7.553 -0.3585 -0.3300 -0.8632
19398THY    HP265721   3.553   8.282   7.656  1.3694 -0.3885  1.5936
19398THY    HP365722   3.679   8.303   7.556 -0.7281 -0.4085 -0.0490
19398THY    HP465723   3.574   8.149   7.531 -0.7764  2.5502 -1.5045
19398THY    CP365724   3.342   8.306   7.459 -0.7599  0.0205 -0.2136
19398THY    HP565725   3.294   8.382   7.396  1.0231 -1.1993 -0.0181
19398THY    HP665726   3.306   8.317   7.561 -0.8459 -0.1635  1.4602
19398THY    HP765727   3.317   8.205   7.425 -0.3015  1.3580 -0.7956
19398THY    CA365728   3.522   8.249   7.232  0.0146 -0.6474 -0.1038
19398THY    HA365729   3.453   8.171   7.264  0.5652 -0.2167 -0.4270
19398THY    CA465730   3.569   8.245   7.105  0.3883 -0.4814  0.1305
19398THY    HA465731   3.530   8.172   7.035 -0.7860 -0.6903  0.9271
19398THY    CA565732   3.653   8.348   7.060 -0.6150  0.2011 -0.3980
19398THY    CM165733   3.707   8.338   6.916  0.1243 -1.2906 -0.3371
19398THY    HM165734   3.769   8.418   6.875  2.0809 -1.4511 -1.8607
19398THY    HM265735   3.616   8.332   6.857 -0.8187 -0.0362  0.8660
19398THY    HM365736   3.763   8.244   6.915 -0.7634  4.2557 -1.2862
19398THY    CA665737   3.687   8.457   7.146  0.7688  0.0276 -0.2822
19398THY    HA665738   3.738   8.546   7.110  0.3769 -0.0683 -0.0943
19399THY      O65739   6.962   8.289   7.366 -0.8009  0.0802  0.4200
19399THY     HO65740   6.966   8.376   7.409  1.9059 -0.6134  0.7515
19399THY    CA165741   7.073   8.291   7.284 -0.5505 -0.7780 -0.1889
19399THY    CA265742   7.129   8.170   7.239 -0.2590  0.5087  0.3438
19399THY    CP165743   7.070   8.032   7.280 -0.3222 -0.6671 -0.2744
19399THY    HP165744   7.019   8.049   7.376  0.7088 -0.5849  3.2636
19399THY    CP265745   7.179   7.934   7.301  0.0502  0.1262 -0.2430
19399THY    HP265746   7.220   7.903   7.204 -1.3255  0.0714 -2.0374
19399THY    HP365747   7.126   7.852   7.350 -0.3948  1.0020  0.5562
19399THY    HP465748   7.260   7.985   7.354 -0.4965 -0.3969  1.2228
19399THY    CP365749   6.967   7.980   7.185 -0.1378 -0.3066  0.2906
19399THY    HP565750   6.920   7.887   7.222 -0.8464  1.3261  1.2479
19399THY    HP665751   7.016   7.960   7.089 -1.0764 -0.9663  1.0697
19399THY    HP765752   6.888   8.055   7.181 -0.4844  1.5656  0.0853
19399THY    CA365753   7.241   8.178   7.159  0.7630 -0.7638  0.7211
19399THY    HA365754   7.301   8.091   7.134  1.6697 -2.2349  1.7115
19399THY    CA465755   7.302   8.297   7.133  0.0252  0.4372  0.3313
19399THY    HA465756   7.394   8.296   7.075  0.3785  0.9727  0.9612
19399THY    CA565757   7.246   8.414   7.176  0.0298  0.3212  0.1815
19399THY    CM165758   7.318   8.544   7.148  0.6545 -0.0030  0.4890
19399THY    HM165759   7.348   8.558   7.043 -0.6411 -0.5157 -0.4168
19399THY    HM265760   7.409   8.544   7.210 -0.0557  1.0663 -0.5591
19399THY    HM365761   7.256   8.630   7.173 -0.7203  1.4765 -0.8698
19399THY    CA665762   7.123   8.417   7.246  0.3662 -0.4001 -0.2077
19399THY    HA665763   7.084   8.511   7.283  5.4308 -0.9153  2.4246
19400THY      O65764   4.989   2.606   3.890  0.0538  0.1276  0.4974
19400THY     HO65765   4.927   2.538   3.921 -3.2687  0.0961  3.2332
19400THY    CA165766   5.109   2.560   3.915  0.1713 -0.1335  0.2412
19400THY    CA265767   5.214   2.643   3.942  0.5341 -0.2940 -0.0207
19400THY    CP165768   5.186   2.788   3.936 -0.3436 -0.1303  0.2495
19400THY    HP165769   5.121   2.821   3.854 -1.9165  1.4545  1.2769
19400THY    CP265770   5.312   2.869   3.896  0.2204  0.5320  0.3954
19400THY    HP265771   5.290   2.975   3.879 -1.9777  1.6057  0.1805
19400THY    HP365772   5.353   2.839   3.800  1.0253  1.6762 -2.5074
19400THY    HP465773   5.391   2.867   3.971  3.3800 -2.5426  1.1949
19400THY    CP365774   5.136   2.842   4.070  0.6419 -0.3799  0.0057
19400THY    HP565775   5.043   2.792   4.100  0.0217 -1.2128  0.6261
19400THY    HP665776   5.123   2.951   4.071  1.7630 -0.8273  0.1641
19400THY    HP765777   5.215   2.825   4.144 -0.7021  1.0000 -0.3419
19400THY    CA365778   5.338   2.593   3.973  0.1898 -0.1271  0.0651
19400THY    HA365779   5.418   2.655   4.011 -1.4848 -0.0373  2.2602
19400THY    CA465780   5.353   2.453   3.980 -0.0559 -0.6769  0.2289
19400THY    HA465781   5.442   2.415   4.030 -0.4513 -0.5657 -0.5713
19400THY    CA565782   5.241   2.370   3.950  0.5488 -0.2372 -0.4981
19400THY    CM165783   5.256   2.219   3.962 -0.2516  0.0744 -0.2265
19400THY    HM165784   5.183   2.181   4.035  1.5035  1.6776 -0.6923
19400THY    HM265785   5.355   2.190   3.998 -0.3570  1.4701  1.0020
19400THY    HM365786   5.246   2.184   3.859  1.4178 -0.5165  0.9110
19400THY    CA665787   5.125   2.420   3.908 -0.8406  0.0284 -0.1441
19400THY    HA665788   5.043   2.353   3.883 -0.0589  0.7446 -1.4049
19401THY      O65789   6.396   1.710   4.697  0.1800  0.7882  0.2579
19401THY     HO65790   6.468   1.773   4.683  0.9248  1.4526 -0.4238
19401THY    CA165791   6.462   1.598   4.729 -0.3015 -0.4399  0.3943
19401THY    CA265792   6.411   1.473   4.698  0.8542  0.8375  0.5209
19401THY    CP165793   6.259   1.455   4.643 -0.1735 -0.5889 -0.0160
19401THY    HP165794   6.204   1.548   4.623 -0.4363 -0.9441 -0.2464
19401THY    CP265795   6.165   1.376   4.732 -0.5715 -0.6093 -0.6186
19401THY    HP265796   6.149   1.429   4.827  0.4965 -0.8498  0.1700
19401THY    HP365797   6.203   1.275   4.755 -0.0866 -0.6608 -0.4492
19401THY    HP465798   6.070   1.373   4.678 -1.0280  0.1276  0.3815
19401THY    CP365799   6.252   1.395   4.503  0.4866 -0.1695  0.0290
19401THY    HP565800   6.289   1.292   4.497  1.8298 -3.1421  0.5629
19401THY    HP665801   6.301   1.470   4.439 -1.4478  0.8132  2.2763
19401THY    HP765802   6.145   1.400   4.476  0.3562  0.5167  1.4166
19401THY    CA365803   6.481   1.358   4.730  0.0031 -0.2215  0.0830
19401THY    HA365804   6.442   1.258   4.714  1.4032  2.1700 -0.9179
19401THY    CA465805   6.600   1.367   4.800  0.4428  0.0712  0.0313
19401THY    HA465806   6.660   1.280   4.824  1.3616 -0.0557  0.6089
19401THY    CA565807   6.653   1.498   4.823  0.1040 -0.1075  0.3567
19401THY    CM165808   6.794   1.520   4.875 -0.2733 -0.5191 -0.2023
19401THY    HM165809   6.869   1.444   4.850  1.5783 -2.1582  1.9994
19401THY    HM265810   6.788   1.527   4.985 -0.1533 -0.5880  1.2947
19401THY    HM365811   6.840   1.615   4.844  0.4949  1.0207 -0.0348
19401THY    CA665812   6.587   1.615   4.781 -0.3016 -0.5477 -0.1185
19401THY    HA665813   6.628   1.712   4.807  0.6389 -0.0387 -0.6411
19402THY      O65814   8.206   6.210   5.860  0.0839  0.4122 -0.2138
19402THY     HO65815   8.249   6.241   5.942 -2.8411  1.1693  2.3740
19402THY    CA165816   8.244   6.302   5.765 -0.0472 -0.4735 -1.0673
19402THY    CA265817   8.272   6.277   5.631 -1.0739 -0.4135  0.0997
19402THY    CP165818   8.256   6.134   5.579  0.0912  0.9103  0.0537
19402THY    HP165819   8.221   6.069   5.660  1.8932  0.3245 -1.7481
19402THY    CP265820   8.387   6.064   5.540 -0.0551 -0.6393  0.0527
19402THY    HP265821   8.364   5.965   5.497 -0.8453 -0.8682  0.3341
19402THY    HP365822   8.435   6.045   5.637 -2.3786  0.2257 -2.0076
19402THY    HP465823   8.445   6.134   5.479  0.4447  2.8362  2.9508
19402THY    CP365824   8.140   6.128   5.475 -0.9756  0.3685 -0.2109
19402THY    HP565825   8.121   6.023   5.452  0.9847  0.3683 -0.5986
19402THY    HP665826   8.163   6.168   5.375 -3.6738 -0.7288 -1.1640
19402THY    HP765827   8.058   6.192   5.509 -1.2782 -1.2058  0.2878
19402THY    CA365828   8.310   6.385   5.543 -0.1559 -0.0882 -0.3586
19402THY    HA365829   8.315   6.366   5.436  1.0549 -0.0690 -0.2296
19402THY    CA465830   8.317   6.512   5.592 -0.2699  0.8441  0.3687
19402THY    HA465831   8.342   6.591   5.522 -1.2610 -0.0473 -0.0746
19402THY    CA565832   8.301   6.538   5.723  0.5541 -0.7794  0.0396
19402THY    CM165833   8.314   6.682   5.773 -0.0809  0.1988 -0.3824
19402THY    HM165834   8.213   6.706   5.809 -0.2695  0.3509 -1.3550
19402THY    HM265835   8.338   6.751   5.692 -1.2348  1.3083  1.4110
19402THY    HM365836   8.384   6.696   5.856 -1.9914  1.6561  1.0495
19402THY    CA665837   8.258   6.438   5.809 -0.5641 -0.1360  0.1678
19402THY    HA665838   8.237   6.457   5.914 -2.6194  0.0469 -2.4637
19403THY      O65839   8.294   6.580   2.746  0.2376  0.3170 -0.3703
19403THY     HO65840   8.240   6.541   2.675 -0.6479  1.8883 -2.1936
19403THY    CA165841   8.310   6.714   2.737 -0.3533 -0.5402  0.1501
19403THY    CA265842   8.379   6.796   2.829  0.3923 -0.4480  0.1692
19403THY    CP165843   8.452   6.720   2.939  0.3021 -0.4852 -0.5346
19403THY    HP165844   8.383   6.638   2.963 -2.0058 -1.5365  0.9879
19403THY    CP265845   8.472   6.808   3.068  0.6411  0.0722 -0.1362
19403THY    HP265846   8.379   6.863   3.089 -0.9540 -0.0051 -2.6488
19403THY    HP365847   8.554   6.880   3.065  0.8796 -0.2789 -0.4199
19403THY    HP465848   8.497   6.754   3.161 -0.0947  1.3334  1.6012
19403THY    CP365849   8.588   6.670   2.895  0.2253  0.3408 -0.6360
19403THY    HP565850   8.613   6.587   2.962  4.2272 -0.2240 -0.1120
19403THY    HP665851   8.653   6.757   2.902  0.1176  0.6057 -0.5755
19403THY    HP765852   8.594   6.637   2.790  0.6893  0.4145 -0.7969
19403THY    CA365853   8.369   6.932   2.819  0.0008 -0.4122 -0.0770
19403THY    HA365854   8.427   6.998   2.883 -0.2645  1.1942 -1.3333
19403THY    CA465855   8.293   6.991   2.713  0.1959 -0.4236  0.5296
19403THY    HA465856   8.287   7.100   2.711  2.2306 -2.4344  0.6867
19403THY    CA565857   8.238   6.909   2.612 -0.1650  0.4464 -0.0278
19403THY    CM165858   8.165   6.968   2.498  0.6536  1.0766 -0.2277
19403THY    HM165859   8.244   6.983   2.423  0.7699  1.3478  0.6036
19403THY    HM265860   8.131   7.068   2.530  0.1161 -0.4978  0.1144
19403THY    HM365861   8.085   6.906   2.458 -0.3140  0.8423  1.1176
19403THY    CA665862   8.240   6.774   2.631 -0.2962  0.2319  0.6414
19403THY    HA665863   8.192   6.702   2.565 -0.8413  1.4686 -0.1698
19404THY      O65864   3.052   2.432   2.583  0.3649  0.2083 -0.4651
19404THY     HO65865   3.047   2.404   2.676 -1.5209  1.0817  2.3481
19404THY    CA165866   3.185   2.432   2.557 -0.0895 -1.0479  0.1052
19404THY    CA265867   3.245   2.509   2.453  0.7512  0.1656 -0.2083
19404THY    CP165868   3.158   2.588   2.353 -0.1261  0.7707 -0.2887
19404THY    HP165869   3.056   2.603   2.391 -0.7005 -1.1207  0.9179
19404THY    CP265870   3.144   2.522   2.212 -0.0124 -0.6867 -0.6227
19404THY    HP265871   3.074   2.439   2.221  0.7978 -1.2305 -1.3796
19404THY    HP365872   3.235   2.482   2.166  0.5391 -0.7793  0.6864
19404THY    HP465873   3.090   2.590   2.144 -1.1981  0.8957  0.0763
19404THY    CP365874   3.214   2.733   2.332  0.1110  0.6256  0.3872
19404THY    HP565875   3.223   2.766   2.436 -0.4989  0.8741 -0.2159
19404THY    HP665876   3.147   2.791   2.266 -0.3457 -0.5800 -1.4249
19404THY    HP765877   3.318   2.735   2.297 -0.5528 -1.4876  0.4911
19404THY    CA365878   3.389   2.516   2.446 -0.2768  0.1902  0.0188
19404THY    HA365879   3.445   2.569   2.369  0.9144 -0.5922 -2.2587
19404THY    CA465880   3.461   2.442   2.542 -0.2436 -0.3800 -0.1736
19404THY    HA465881   3.569   2.450   2.540 -0.1738 -0.4894 -1.0659
19404THY    CA565882   3.403   2.364   2.645 -0.0912  0.1336  0.0695
19404THY    CM165883   3.481   2.272   2.734 -0.0919  0.5046  0.3364
19404THY    HM165884   3.443   2.169   2.727  0.8797 -0.5450  0.0356
19404THY    HM265885   3.483   2.299   2.841  1.0939  0.9648 -1.4261
19404THY    HM365886   3.589   2.270   2.713 -0.2353 -0.2178 -0.1501
19404THY    CA665887   3.263   2.366   2.653  0.5906  0.3174  0.2868
19404THY    HA665888   3.220   2.304   2.732  0.5982  0.3071  0.2684
19405THY      O65889   3.078   6.589   5.677 -0.0086  0.5243 -0.6132
19405THY     HO65890   3.000   6.536   5.653  0.3451  0.2796 -1.0244
19405THY    CA165891   3.055   6.635   5.803  0.1799 -0.1689  0.4078
19405THY    CA265892   3.164   6.669   5.893 -0.6215  0.2141 -0.7140
19405THY    CP165893   3.301   6.646   5.840  0.3918 -0.8048  0.3112
19405THY    HP165894   3.301   6.569   5.762 -0.3455  1.0805 -1.7061
19405THY    CP265895   3.394   6.572   5.951 -0.1533 -0.6261 -0.1904
19405THY    HP265896   3.343   6.478   5.976 -0.6125 -2.0137 -0.3342
19405THY    HP365897   3.409   6.640   6.036  1.5901 -0.2155 -1.0655
19405THY    HP465898   3.491   6.550   5.906  0.8964  0.6055  1.6649
19405THY    CP365899   3.359   6.783   5.806  0.3707  0.2599  0.4792
19405THY    HP565900   3.332   6.856   5.884 -0.3521  1.2144 -0.7526
19405THY    HP665901   3.308   6.818   5.716  0.9365 -0.4085 -0.4040
19405THY    HP765902   3.465   6.773   5.781  0.0769 -0.7188 -0.2824
19405THY    CA365903   3.135   6.735   6.011 -0.4116 -0.1388  0.2783
19405THY    HA365904   3.206   6.747   6.093 -1.8638  1.0264  1.3626
19405THY    CA465905   3.007   6.768   6.050  0.2924 -0.4815 -0.2401
19405THY    HA465906   2.988   6.820   6.143 -1.5013 -1.0010  0.0903
19405THY    CA565907   2.901   6.731   5.961 -0.3644 -0.1232  0.0965
19405THY    CM165908   2.763   6.745   6.011  0.2700 -0.5256 -0.9994
19405THY    HM165909   2.738   6.646   6.053  2.2037 -0.1161 -1.3682
19405THY    HM265910   2.691   6.772   5.934  0.3614 -0.0843  0.6208
19405THY    HM365911   2.742   6.821   6.087 -0.8623 -0.1030 -1.7070
19405THY    CA665912   2.922   6.669   5.840 -0.2250 -0.0168  0.0589
19405THY    HA665913   2.838   6.650   5.775 -1.8665  2.3316 -1.3785
19406THY      O65914   1.687   0.391   6.474  0.6426  0.1024  0.3365
19406THY     HO65915   1.767   0.424   6.429  1.6242  1.2213 -0.4292
19406THY    CA165916   1.662   0.480   6.572 -0.4450 -0.4546  0.8780
19406THY    CA265917   1.576   0.446   6.678  0.0722  0.4667 -0.0797
19406THY    CP165918   1.486   0.324   6.679  0.7235  0.6386 -0.6964
19406THY    HP165919   1.514   0.257   6.597  0.9901 -1.4145  1.7636
19406THY    CP265920   1.336   0.372   6.658 -0.4701 -0.3100 -0.4398
19406THY    HP265921   1.309   0.463   6.712 -2.3805 -1.6685 -0.1314
19406THY    HP365922   1.270   0.291   6.688 -0.6623  0.2346 -0.0857
19406THY    HP465923   1.319   0.392   6.551 -1.7846 -0.1757 -0.7259
19406THY    CP365924   1.508   0.251   6.814 -0.8427 -0.4556 -0.2232
19406THY    HP565925   1.603   0.197   6.821 -0.4987  1.6410  0.5327
19406THY    HP665926   1.426   0.178   6.825 -1.0562  1.0745  0.2105
19406THY    HP765927   1.512   0.314   6.904 -0.6651 -0.1354 -0.6832
19406THY    CA365928   1.559   0.532   6.783 -0.1727  0.4000 -0.1427
19406THY    HA365929   1.490   0.517   6.866  0.4524  0.4172 -3.6682
19406THY    CA465930   1.655   0.638   6.789  0.3505 -0.5204 -0.7576
19406THY    HA465931   1.655   0.701   6.877 -4.5000  0.9781 -2.3382
19406THY    CA565932   1.748   0.665   6.683 -0.0745 -0.2280  0.0579
19406THY    CM165933   1.853   0.779   6.699 -0.2018  0.1263  0.6394
19406THY    HM165934   1.848   0.814   6.803 -2.6543 -0.6292  2.8801
19406THY    HM265935   1.812   0.861   6.639  0.8541  0.4210  1.4044
19406THY    HM365936   1.948   0.743   6.659 -0.3061 -1.3808  1.9474
19406THY    CA665937   1.747   0.588   6.568  0.6557  0.3021 -0.0953
19406THY    HA665938   1.815   0.607   6.486 -0.7452 -0.4111  2.1189
19407THY      O65939   7.331   5.121   2.201 -0.5171 -0.5332 -0.3879
19407THY     HO65940   7.358   5.164   2.284  1.3882 -1.7696  0.9640
19407THY    CA165941   7.400   5.203   2.109 -0.0264  0.6851  0.2122
19407THY    CA265942   7.457   5.154   1.982  0.0893 -0.1959 -0.9445
19407THY    CP165943   7.423   5.008   1.933  1.3875  0.2666  0.8030
19407THY    HP165944   7.349   4.964   2.001 -1.9707 -1.3701  3.5166
19407THY    CP265945   7.543   4.917   1.942  0.2211  0.5417 -0.6452
19407THY    HP265946   7.612   4.949   1.863 -2.4326 -2.0063 -0.8478
19407THY    HP365947   7.514   4.814   1.919 -2.2848 -1.7926  0.4632
19407THY    HP465948   7.584   4.926   2.043  0.1565  0.4427  1.1802
19407THY    CP365949   7.378   5.009   1.792 -0.1472  0.3572 -0.2711
19407THY    HP565950   7.336   4.908   1.777 -1.0623 -0.7942  0.2629
19407THY    HP665951   7.462   5.038   1.728 -0.1660  0.1883 -0.5832
19407THY    HP765952   7.290   5.073   1.778 -2.2801 -0.1403 -3.0969
19407THY    CA365953   7.533   5.250   1.910 -1.3384  0.6164 -0.4930
19407THY    HA365954   7.590   5.218   1.823 -2.9447 -0.5767 -0.2350
19407THY    CA465955   7.555   5.383   1.957  0.2650  0.1863  0.0687
19407THY    HA465956   7.615   5.457   1.905  0.7667  0.2265 -0.3007
19407THY    CA565957   7.510   5.421   2.082 -0.1066 -0.7592 -0.1662
19407THY    CM165958   7.562   5.553   2.138  0.3498 -0.0522 -0.1743
19407THY    HM165959   7.530   5.639   2.079  0.1002 -2.0404 -1.5821
19407THY    HM265960   7.671   5.561   2.125  0.3437  0.5531  1.0557
19407THY    HM365961   7.546   5.555   2.247 -1.0195 -0.2505  1.0184
19407THY    CA665962   7.432   5.327   2.154  0.3807 -0.5673 -0.1512
19407THY    HA665963   7.402   5.352   2.255  0.6844 -0.0586 -1.6964
19408THY      O65964   8.169   0.592   4.191  0.3325  0.7133  0.1941
19408THY     HO65965   8.091   0.650   4.187 -0.1271 -0.9288 -0.4968
19408THY    CA165966   8.274   0.663   4.147 -0.4144 -0.4273 -1.2085
19408THY    CA265967   8.411   0.618   4.159  0.5312  0.7864  0.1140
19408THY    CP165968   8.432   0.480   4.225 -0.1344  0.1961 -0.1123
19408THY    HP165969   8.354   0.441   4.291 -0.6295 -0.1514  0.2866
19408THY    CP265970   8.546   0.488   4.328 -0.2170 -0.2103 -0.2501
19408THY    HP265971   8.569   0.397   4.385 -0.3203 -0.1632 -0.2458
19408THY    HP365972   8.544   0.574   4.396 -2.7565 -0.8118  0.2392
19408THY    HP465973   8.639   0.501   4.270 -0.5301 -1.1197 -1.8058
19408THY    CP365974   8.461   0.361   4.125 -0.4203 -0.6997  0.2477
19408THY    HP565975   8.384   0.331   4.053 -2.2369  0.3010  2.2491
19408THY    HP665976   8.491   0.280   4.193 -1.8180  1.7883  1.6993
19408THY    HP765977   8.548   0.391   4.066  0.3718 -0.2157 -1.0377
19408THY    CA365978   8.517   0.702   4.100 -0.2545  0.5591  0.1369
19408THY    HA365979   8.614   0.655   4.093 -0.5980  0.5625 -0.5937
19408THY    CA465980   8.485   0.824   4.045 -0.2715 -0.2396  0.4329
19408THY    HA465981   8.566   0.879   3.997  1.7955  1.6440 -0.7701
19408THY    CA565982   8.350   0.863   4.042 -0.8111 -0.1566 -0.0592
19408THY    CM165983   8.324   1.005   3.998  0.3681 -0.2372 -0.4349
19408THY    HM165984   8.367   1.085   4.060 -0.4251 -0.1051 -0.1034
19408THY    HM265985   8.216   1.020   3.988  0.3115  0.9814  0.0440
19408THY    HM365986   8.363   1.015   3.896  0.9969  0.1966  2.5931
19408THY    CA665987   8.248   0.790   4.101 -0.4838  0.4143 -0.2762
19408THY    HA665988   8.151   0.837   4.111  0.4628  1.6395  1.5557
19409THY      O65989   3.589   3.524   3.625 -0.3138 -0.7407 -0.1158
19409THY     HO65990   3.671   3.503   3.578  2.0565  2.6353  0.7217
19409THY    CA165991   3.494   3.437   3.580  0.1954  0.0321  0.1634
19409THY    CA265992   3.371   3.443   3.641 -0.7917  0.6174  0.5896
19409THY    CP165993   3.347   3.538   3.763 -0.4682  0.5028 -0.3052
19409THY    HP165994   3.409   3.628   3.748 -1.0027 -0.3339 -0.0672
19409THY    CP265995   3.392   3.461   3.888  0.0089  0.2662 -0.1747
19409THY    HP265996   3.495   3.424   3.877 -0.4962 -1.6446 -1.1176
19409THY    HP365997   3.332   3.373   3.912 -1.8092  1.7723  1.3836
19409THY    HP465998   3.388   3.529   3.974  1.1113 -0.0808  0.3537
19409THY    CP365999   3.200   3.575   3.774  0.0248  0.0947  0.1314
19409THY    HP566000   3.151   3.487   3.817  0.9125  1.7061  0.4044
19409THY    HP666001   3.151   3.597   3.678 -1.7158  0.8343 -0.3382
19409THY    HP766002   3.177   3.661   3.838  0.1446  1.8441 -1.1047
19409THY    CA366003   3.273   3.359   3.605  0.1885  0.2457  0.6369
19409THY    HA366004   3.176   3.354   3.654  0.3016  0.6561  2.0937
19409THY    CA466005   3.296   3.267   3.504 -0.5236  0.4208 -0.7835
19409THY    HA466006   3.222   3.194   3.475  2.1737 -3.0551 -2.4322
19409THY    CA566007   3.411   3.264   3.434 -0.1905 -0.1260 -0.2063
19409THY    CM166008   3.427   3.155   3.325  0.0847 -0.4892 -0.4743
19409THY    HM166009   3.486   3.072   3.367  1.0007 -1.6688 -0.4363
19409THY    HM266010   3.459   3.196   3.229 -3.1833  0.3973  5.2454
19409THY    HM366011   3.333   3.104   3.300  0.4941  1.3272 -2.2278
19409THY    CA666012   3.522   3.340   3.480  0.4471  0.1449 -0.5041
19409THY    HA666013   3.623   3.327   3.443  1.3372  1.3110  2.2890
19410THY      O66014   9.521   8.434   5.771 -0.5344 -0.1553  0.0475
19410THY     HO66015   9.539   8.530   5.764  0.7284  1.9887  0.0072
19410THY    CA166016   9.399   8.416   5.816  0.1064  0.3179 -0.9862
19410THY    CA266017   9.329   8.304   5.782 -0.0714 -0.0817  0.0254
19410THY    CP166018   9.393   8.186   5.704 -0.2135 -0.5160 -0.5532
19410THY    HP166019   9.480   8.228   5.653 -0.3639 -0.0109  0.4079
19410THY    CP266020   9.291   8.121   5.601 -0.3777 -0.1004 -0.4345
19410THY    HP266021   9.341   8.053   5.531 -1.6365  1.4347 -3.1032
19410THY    HP366022   9.230   8.196   5.550 -1.9000 -0.8301 -2.1001
19410THY    HP466023   9.221   8.059   5.659 -2.6373  0.2741  2.2801
19410THY    CP366024   9.421   8.088   5.812 -0.0803 -0.6535  0.1793
19410THY    HP566025   9.468   7.994   5.782 -2.3955  0.2095 -1.3490
19410THY    HP666026   9.325   8.064   5.859  1.0267  1.7905  0.1496
19410THY    HP766027   9.501   8.132   5.873  1.3846 -1.1466 -1.6825
19410THY    CA366028   9.194   8.295   5.832  0.7605 -0.2157  0.1498
19410THY    HA366029   9.132   8.208   5.816  0.1670  0.5446  0.4242
19410THY    CA466030   9.134   8.399   5.901 -0.0683 -0.2747  0.2517
19410THY    HA466031   9.033   8.384   5.939 -0.1528  0.5166  2.4240
19410THY    CA566032   9.203   8.517   5.932  0.2274  0.0387  0.0449
19410THY    CM166033   9.144   8.635   6.005  0.4134  0.0692  0.2343
19410THY    HM166034   9.061   8.678   5.947 -1.7993  2.6716 -0.2426
19410THY    HM266035   9.220   8.711   6.026 -2.9097 -0.3512  4.0439
19410THY    HM366036   9.112   8.596   6.103 -0.5193  0.5632  2.1173
19410THY    CA666037   9.336   8.522   5.884  0.2367 -0.6182  0.0862
19410THY    HA666038   9.395   8.610   5.909  1.3027  1.5940 -1.1663
19411THY      O66039   1.200   2.247   7.615  0.5755  0.1657  0.0476
19411THY     HO66040   1.264   2.303   7.662  1.0891 -0.3954 -0.0521
19411THY    CA166041   1.159   2.173   7.720 -0.1521  1.0132 -1.6833
19411THY    CA266042   1.077   2.060   7.713  0.4781  0.0684  0.7866
19411THY    CP166043   1.013   2.016   7.581 -0.3680  0.2941  0.0996
19411THY    HP166044   1.048   2.075   7.495  0.6710  0.1074 -0.7673
19411THY    CP266045   0.860   2.032   7.590  0.4143 -0.1801 -0.3739
19411THY    HP266046   0.813   1.995   7.682 -1.2096 -0.9930 -0.3812
19411THY    HP366047   0.817   1.963   7.517 -0.7797  1.8011 -1.8483
19411THY    HP466048   0.823   2.134   7.581  1.1585  0.0637 -0.0695
19411THY    CP366049   1.056   1.869   7.545 -0.6986 -0.0321  0.0258
19411THY    HP566050   1.024   1.846   7.443  0.1574 -0.1093 -0.8992
19411THY    HP666051   0.999   1.793   7.600 -0.2543 -0.9912 -1.0342
19411THY    HP766052   1.163   1.846   7.554 -1.0803  1.6698 -1.2779
19411THY    CA366053   1.053   1.978   7.828  0.4349 -0.9102 -0.6565
19411THY    HA366054   0.985   1.893   7.823  0.8478 -1.2619 -0.9698
19411THY    CA466055   1.112   2.018   7.951 -0.8466  0.1796  0.0491
19411THY    HA466056   1.091   1.961   8.040  0.6676 -0.6147 -1.8701
19411THY    CA566057   1.195   2.125   7.957  0.2609 -0.1874  0.0057
19411THY    CM166058   1.245   2.178   8.088 -0.1724 -0.5060  0.0334
19411THY    HM166059   1.248   2.103   8.167  0.1821  1.0742  1.6342
19411THY    HM266060   1.186   2.261   8.128 -1.7354  1.8166 -2.0470
19411THY    HM366061   1.347   2.217   8.079  0.2253  1.6017 -0.3996
19411THY    CA666062   1.217   2.207   7.845  0.7274  0.1096 -0.1839
19411THY    HA666063   1.284   2.292   7.857  1.5456 -0.3999 -0.7303
19412THY      O66064   2.702   3.430   7.233 -0.4319  0.1583 -0.4995
19412THY     HO66065   2.750   3.381   7.302  0.7875  2.0840  3.0441
19412THY    CA166066   2.757   3.552   7.221  0.6461  0.6338 -0.2505
19412THY    CA266067   2.715   3.634   7.110 -0.0602 -0.3863 -0.2193
19412THY    CP166068   2.630   3.579   6.992 -0.8723  0.3283 -0.7252
19412THY    HP166069   2.628   3.470   6.991 -1.3310 -0.4603 -0.7109
19412THY    CP266070   2.701   3.608   6.864  0.1630  0.2226  0.3217
19412THY    HP266071   2.645   3.579   6.775  0.3550  0.3908 -0.5864
19412THY    HP366072   2.800   3.561   6.860 -0.8805  0.7064 -2.0531
19412THY    HP466073   2.723   3.715   6.856 -0.2356 -3.4648  0.2579
19412THY    CP366074   2.498   3.647   6.986 -0.3203 -0.0805  0.2424
19412THY    HP566075   2.497   3.755   6.969 -1.5185 -1.7112  0.0199
19412THY    HP666076   2.442   3.617   7.075 -1.2725 -1.1751 -1.4352
19412THY    HP766077   2.446   3.603   6.900 -1.8339 -0.0537  1.8677
19412THY    CA366078   2.757   3.770   7.110  0.0626  1.0601 -0.0355
19412THY    HA366079   2.707   3.836   7.040  1.7370  0.8235  1.0404
19412THY    CA466080   2.852   3.808   7.203 -0.2104  0.3968  0.5860
19412THY    HA466081   2.885   3.911   7.193  1.2421 -1.6699 -0.0208
19412THY    CA566082   2.901   3.725   7.309 -0.6387  0.3397  0.1819
19412THY    CM166083   3.007   3.766   7.411  0.3455 -0.4846 -0.2876
19412THY    HM166084   2.975   3.869   7.425  1.2116 -0.9347  0.0552
19412THY    HM266085   3.110   3.757   7.373  0.0383 -1.8482  1.5264
19412THY    HM366086   2.987   3.703   7.499 -0.6250 -0.4172  0.1025
19412THY    CA666087   2.843   3.598   7.321 -0.3716 -0.1094 -0.2714
19412THY    HA666088   2.880   3.528   7.396 -2.3052  0.0163 -1.2101
19413THY      O66089   4.368   3.880   2.662 -0.7795 -0.2680 -0.4572
19413THY     HO66090   4.455   3.838   2.658  0.6634  0.5408  2.2580
19413THY    CA166091   4.386   3.985   2.747  0.2482 -0.6664  1.5618
19413THY    CA266092   4.280   4.077   2.771  0.1100 -0.1064 -0.6673
19413THY    CP166093   4.149   4.046   2.705 -0.2527 -0.1269  0.3331
19413THY    HP166094   4.144   3.943   2.669  2.6975  0.7263 -0.1883
19413THY    CP266095   4.138   4.137   2.584  0.3123 -0.0072  0.3461
19413THY    HP266096   4.040   4.122   2.537 -0.4795  2.0607 -1.5879
19413THY    HP366097   4.215   4.104   2.514 -0.9335 -1.0898 -0.3547
19413THY    HP466098   4.157   4.243   2.604  0.5865 -1.1333  0.5206
19413THY    CP366099   4.036   4.069   2.806 -0.1230 -0.3435 -0.2623
19413THY    HP566100   4.042   4.175   2.833  0.7014 -1.0508 -0.1159
19413THY    HP666101   4.050   4.011   2.897  0.9386  1.2207  2.2672
19413THY    HP766102   3.945   4.052   2.748 -0.0572 -0.8539  0.9589
19413THY    CA366103   4.315   4.195   2.846  0.1683  0.1708  0.3659
19413THY    HA366104   4.242   4.274   2.860  1.1031 -2.4643  1.8066
19413THY    CA466105   4.449   4.212   2.890  0.1549 -0.0560  0.1465
19413THY    HA466106   4.479   4.298   2.948 -1.3031  0.3439  0.4140
19413THY    CA566107   4.545   4.111   2.870 -0.2907 -0.3918 -0.0289
19413THY    CM166108   4.678   4.126   2.930 -0.6657 -0.1362  0.4251
19413THY    HM166109   4.752   4.046   2.913 -1.1667 -1.9384  0.2939
19413THY    HM266110   4.683   4.165   3.032 -0.5214 -0.3836  1.0610
19413THY    HM366111   4.724   4.198   2.862 -2.6062 -1.6932  0.2754
19413THY    CA666112   4.509   3.994   2.808 -0.2802 -1.0073  0.2934
19413THY    HA666113   4.588   3.921   2.793  0.4710 -1.9220  1.2561
19414THY      O66114   5.468   8.965   6.999 -0.0696 -0.0146 -0.0741
19414THY     HO66115   5.532   9.024   7.040  2.5268 -1.0517 -1.9818
19414THY    CA166116   5.421   8.878   7.089 -0.7619  0.1661  0.5927
19414THY    CA266117   5.401   8.746   7.048  0.4685 -0.3043  0.2524
19414THY    CP166118   5.418   8.699   6.907  0.2727  1.0896  0.1649
19414THY    HP166119   5.423   8.788   6.843 -0.2306 -0.8690 -1.1376
19414THY    CP266120   5.289   8.616   6.864 -0.6550 -0.4656 -0.3692
19414THY    HP266121   5.296   8.519   6.915  1.1051  2.8812  1.3269
19414THY    HP366122   5.285   8.603   6.755  2.3509 -0.7048 -0.0799
19414THY    HP466123   5.199   8.659   6.907 -1.0436 -0.1513 -1.4495
19414THY    CP366124   5.538   8.610   6.882 -0.2141  0.1282  0.6752
19414THY    HP566125   5.534   8.529   6.957  0.1710  0.0169  0.5529
19414THY    HP666126   5.632   8.665   6.889  0.8070  0.7067 -1.0582
19414THY    HP766127   5.541   8.569   6.781  1.0591 -0.2267  1.5809
19414THY    CA366128   5.344   8.662   7.154 -0.1262  0.2208 -0.0050
19414THY    HA366129   5.322   8.557   7.136 -0.0287  2.6040 -0.4858
19414THY    CA466130   5.313   8.711   7.274 -0.7319 -0.2568 -0.8169
19414THY    HA466131   5.247   8.648   7.333 -0.2046 -0.3615 -1.4731
19414THY    CA566132   5.341   8.843   7.310 -0.7925 -0.1690 -0.0385
19414THY    CM166133   5.294   8.886   7.449 -0.1210  0.1717 -0.0444
19414THY    HM166134   5.313   8.809   7.524  2.2724 -0.5365 -0.2213
19414THY    HM266135   5.193   8.918   7.422  0.3182 -1.2076  0.2195
19414THY    HM366136   5.348   8.973   7.490 -2.1374 -1.2621  2.0065
19414THY    CA666137   5.406   8.924   7.219 -0.1343 -0.1032  0.1079
19414THY    HA666138   5.437   9.024   7.249  2.6952  3.5007 -1.6058
19415THY      O66139   7.471   6.127   6.391 -0.0320 -0.7948 -0.0397
19415THY     HO66140   7.506   6.190   6.325 -0.6983 -0.6948  0.4517
19415THY    CA166141   7.471   6.009   6.324  0.1037 -0.4923 -0.6609
19415THY    CA266142   7.359   5.921   6.331 -0.4631  0.3893 -0.1332
19415THY    CP166143   7.231   5.957   6.409  0.5681 -0.1483  0.8768
19415THY    HP166144   7.232   6.061   6.444  2.2674  0.7112  0.6111
19415THY    CP266145   7.239   5.881   6.541 -0.6330 -0.8506  0.1892
19415THY    HP266146   7.150   5.906   6.601  0.9689 -0.1982  5.4289
19415THY    HP366147   7.332   5.898   6.597  0.4972 -2.4429 -0.4895
19415THY    HP466148   7.255   5.773   6.529  2.0246  1.1674  0.2379
19415THY    CP366149   7.110   5.915   6.334  0.4750 -0.2217  0.1158
19415THY    HP566150   7.128   5.921   6.226 -1.8088 -0.6939 -0.5012
19415THY    HP666151   7.025   5.980   6.357 -0.2770 -0.0608 -0.8990
19415THY    HP766152   7.076   5.815   6.361  0.2278  2.1348  0.7744
19415THY    CA366153   7.359   5.800   6.250  0.7244 -0.8976 -0.2020
19415THY    HA366154   7.283   5.723   6.249  2.7038 -1.5511 -2.2704
19415THY    CA466155   7.468   5.771   6.176 -0.0485  0.6893 -0.0715
19415THY    HA466156   7.470   5.684   6.111 -1.0399  0.8272 -0.2110
19415THY    CA566157   7.575   5.851   6.180 -0.1472  0.0571 -0.2426
19415THY    CM166158   7.696   5.811   6.111  0.1918  0.6157 -0.2019
19415THY    HM166159   7.688   5.716   6.057 -2.3532 -0.9134  0.7905
19415THY    HM266160   7.792   5.815   6.165  0.7372 -0.3599  0.5647
19415THY    HM366161   7.706   5.888   6.033 -0.8157  1.1204  0.4612
19415THY    CA666162   7.584   5.967   6.260 -0.0200  0.2237 -0.2335
19415THY    HA666163   7.672   6.030   6.255 -0.3602 -0.4425  0.1937
19416THY      O66164   1.967   2.663   6.521 -0.4217 -0.6166  0.4673
19416THY     HO66165   1.998   2.715   6.597  1.3423 -1.9611  1.4887
19416THY    CA166166   1.934   2.757   6.427 -0.6152 -0.0696  0.1384
19416THY    CA266167   1.912   2.718   6.298  0.4574  0.1448 -0.3489
19416THY    CP166168   1.944   2.574   6.252  0.2776 -0.6379  0.2132
19416THY    HP166169   1.992   2.518   6.333  1.2198 -1.3494 -0.0291
19416THY    CP266170   2.046   2.562   6.144 -0.8785  0.5647  0.5018
19416THY    HP266171   2.141   2.608   6.174 -0.7928 -1.8083  2.0762
19416THY    HP366172   2.015   2.625   6.059 -0.8045 -1.5944 -2.1809
19416THY    HP466173   2.065   2.461   6.107  0.7764 -1.8693  1.5889
19416THY    CP366174   1.813   2.521   6.216 -0.1307 -0.0463 -0.2413
19416THY    HP566175   1.814   2.413   6.195  1.4904 -0.0769 -0.2432
19416THY    HP666176   1.773   2.565   6.123 -0.9671  0.1234 -0.6281
19416THY    HP766177   1.741   2.544   6.295  0.0837 -0.2299  1.1294
19416THY    CA366178   1.864   2.814   6.202  0.2184  0.1817  0.3077
19416THY    HA366179   1.836   2.785   6.101  0.7719  0.4143 -1.1120
19416THY    CA466180   1.855   2.951   6.242 -0.0447 -0.5264  0.1202
19416THY    HA466181   1.819   3.028   6.174 -0.7291 -0.9864 -0.5964
19416THY    CA566182   1.885   2.989   6.374 -0.3061  1.2225 -0.6400
19416THY    CM166183   1.852   3.127   6.423  0.3989  0.3098 -0.7387
19416THY    HM166184   1.869   3.208   6.352 -1.8438  0.0916 -0.3799
19416THY    HM266185   1.907   3.137   6.517  0.8310  0.3455 -2.9443
19416THY    HM366186   1.743   3.136   6.437  0.3449 -1.1635  1.5904
19416THY    CA666187   1.918   2.889   6.466 -0.4901  0.0408  0.3519
19416THY    HA666188   1.934   2.909   6.572  0.4856  0.3103 -1.5829
19417THY      O66189   5.064   5.174   3.126  0.4763  0.1575 -0.1032
19417THY     HO66190   5.048   5.115   3.050 -1.6381  0.5930 -0.1923
19417THY    CA166191   4.952   5.169   3.205  0.0503  0.5558 -0.0720
19417THY    CA266192   4.955   5.207   3.340 -0.0405 -0.2638  0.3475
19417THY    CP166193   5.075   5.284   3.393 -0.5939  0.5023 -0.4097
19417THY    HP166194   5.155   5.285   3.318 -1.3742 -0.3591  0.0707
19417THY    CP266195   5.138   5.232   3.528 -0.2919 -0.0480 -0.3057
19417THY    HP266196   5.179   5.131   3.513 -0.2831  0.8531 -0.4420
19417THY    HP366197   5.062   5.236   3.607 -1.6121 -1.2751 -0.2445
19417THY    HP466198   5.218   5.302   3.555 -0.1693 -0.9825 -0.0732
19417THY    CP366199   5.033   5.429   3.399 -0.6144 -0.2979  0.0418
19417THY    HP566200   4.938   5.446   3.450  0.0662  0.4632  1.8420
19417THY    HP666201   5.023   5.477   3.301 -0.3800 -1.9074 -2.9503
19417THY    HP766202   5.106   5.483   3.461 -1.2633  1.8594 -1.4398
19417THY    CA366203   4.840   5.177   3.426 -0.0762 -0.5174 -0.6870
19417THY    HA366204   4.845   5.201   3.532 -0.7708 -0.8299  0.9330
19417THY    CA466205   4.736   5.108   3.366 -0.3248  0.4918 -0.3035
19417THY    HA466206   4.644   5.092   3.421 -0.7768 -0.6185 -1.7887
19417THY    CA566207   4.731   5.072   3.230  0.4247 -0.2293 -0.0710
19417THY    CM166208   4.616   5.002   3.165  0.1767  0.7717 -0.2822
19417THY    HM166209   4.522   5.008   3.221 -0.3702 -0.1056 -0.4410
19417THY    HM266210   4.637   4.894   3.157  0.3942  0.1509 -0.2000
19417THY    HM366211   4.597   5.033   3.062 -0.5926  0.4344 -1.7770
19417THY    CA666212   4.838   5.111   3.152  0.1200  0.0447  0.3156
19417THY    HA666213   4.833   5.104   3.043  0.4706 -0.0502  1.3937
19418THY      O66214   0.609   1.414   2.314 -0.0433 -0.0503  0.0833
19418THY     HO66215   0.625   1.462   2.398  0.9206  0.2050 -0.6562
19418THY    CA166216   0.595   1.516   2.226 -0.2190 -0.1343  0.6111
19418THY    CA266217   0.662   1.517   2.094  0.1665 -0.0591  1.0823
19418THY    CP166218   0.737   1.395   2.043  0.5200 -0.3195 -0.0798
19418THY    HP166219   0.695   1.311   2.099 -3.2942  0.1460  1.9047
19418THY    CP266220   0.886   1.407   2.070 -0.3507 -0.6179 -0.1919
19418THY    HP266221   0.924   1.485   2.003 -1.7282  0.9539  1.9338
19418THY    HP366222   0.942   1.318   2.039  0.8533 -0.2853  0.4226
19418THY    HP466223   0.906   1.423   2.177 -1.0071 -0.9089  3.3801
19418THY    CP366224   0.716   1.364   1.894  0.4525 -0.4633 -0.5174
19418THY    HP566225   0.736   1.457   1.838 -3.1245 -1.3133 -0.1246
19418THY    HP666226   0.615   1.331   1.867  0.1140  1.0244 -0.7477
19418THY    HP766227   0.789   1.290   1.859 -0.7137 -0.5515 -1.6639
19418THY    CA366228   0.652   1.635   2.014 -0.3944 -0.2013 -0.2152
19418THY    HA366229   0.708   1.637   1.921  0.1074  0.0045 -2.6410
19418THY    CA466230   0.569   1.744   2.059 -0.3499  0.0260  0.1896
19418THY    HA466231   0.551   1.830   1.996 -0.9290  0.0785  0.1083
19418THY    CA566232   0.503   1.735   2.182 -0.3702 -0.4262 -0.1488
19418THY    CM166233   0.406   1.842   2.223 -0.3087  0.2895  0.1983
19418THY    HM166234   0.463   1.934   2.240  3.2350 -0.2134 -1.7161
19418THY    HM266235   0.338   1.831   2.308 -0.1400  0.8455  2.7937
19418THY    HM366236   0.335   1.861   2.141  0.1170  0.1320  1.1337
19418THY    CA666237   0.533   1.627   2.267  1.0263 -0.3217  0.4844
19418THY    HA666238   0.482   1.624   2.364  0.1084 -0.8027 -2.3910
19419THY      O66239   7.318   7.985   1.928  0.4244 -0.8945 -0.5154
19419THY     HO66240   7.401   7.943   1.958  1.3215 -0.3133  1.5555
19419THY    CA166241   7.360   8.109   1.915  0.8503 -0.4447 -0.4076
19419THY    CA266242   7.262   8.208   1.907  0.3153  0.4095  1.0291
19419THY    CP166243   7.110   8.178   1.925 -0.1517  0.2160 -0.4027
19419THY    HP166244   7.077   8.080   1.888  0.5689 -2.2177  0.2245
19419THY    CP266245   7.019   8.265   1.839  0.0029  0.0692  0.5469
19419THY    HP266246   7.054   8.289   1.738  1.0503  0.8908  2.8110
19419THY    HP366247   6.998   8.365   1.880  0.0445  1.4264  0.0210
19419THY    HP466248   6.921   8.216   1.845 -0.8513 -1.1636  2.0143
19419THY    CP366249   7.076   8.182   2.076  0.0891  0.3506  0.0392
19419THY    HP566250   7.112   8.088   2.120  1.5238  0.1636  0.4708
19419THY    HP666251   6.968   8.193   2.092  0.0671 -0.8743  2.1317
19419THY    HP766252   7.137   8.257   2.127  1.7386 -0.9238 -0.3805
19419THY    CA366253   7.304   8.329   1.853 -0.2706  0.5667 -0.3499
19419THY    HA366254   7.231   8.406   1.828  2.3162  2.3395  2.9583
19419THY    CA466255   7.439   8.364   1.845 -0.1810  0.6312  0.0907
19419THY    HA466256   7.467   8.465   1.815 -1.2999  0.3365  0.3287
19419THY    CA566257   7.536   8.267   1.870  0.0276  0.3197  0.7757
19419THY    CM166258   7.681   8.292   1.853  1.1915 -0.0928 -0.2668
19419THY    HM166259   7.742   8.201   1.862  0.0422  0.4472 -1.0012
19419THY    HM266260   7.714   8.374   1.918 -1.3599  3.9107 -2.0988
19419THY    HM366261   7.689   8.326   1.749 -1.6290  0.0271  1.1123
19419THY    CA666262   7.496   8.132   1.895  0.2279  0.5539 -0.0854
19419THY    HA666263   7.559   8.044   1.892 -2.9457 -3.0240 -2.5490
19420THY      O66264   3.908   4.630   6.288  0.0618 -0.0603  0.7787
19420THY     HO66265   3.906   4.695   6.215  1.5034 -1.0751 -0.2359
19420THY    CA166266   3.947   4.512   6.216 -0.2745 -1.0441  0.4922
19420THY    CA266267   3.867   4.396   6.203 -0.0600 -0.2314 -0.2158
19420THY    CP166268   3.729   4.397   6.271 -0.5282 -0.6233 -0.8164
19420THY    HP166269   3.695   4.500   6.283  1.5239 -0.0894 -0.1508
19420THY    CP266270   3.737   4.342   6.417 -0.4539  0.1834 -0.3820
19420THY    HP266271   3.633   4.334   6.452 -0.8803 -1.1303 -0.9651
19420THY    HP366272   3.778   4.411   6.491  0.2863 -0.8077  0.2667
19420THY    HP466273   3.786   4.244   6.421 -1.1836  2.4021 -0.7043
19420THY    CP366274   3.620   4.329   6.186  0.6255  0.3782  0.0158
19420THY    HP566275   3.620   4.220   6.199 -1.1406  1.0060  0.0528
19420THY    HP666276   3.637   4.355   6.081  2.3496  0.3679 -0.9578
19420THY    HP766277   3.532   4.367   6.240  1.4008  0.7489  1.3332
19420THY    CA366278   3.922   4.282   6.139  0.2617  0.6381 -0.0825
19420THY    HA366279   3.872   4.186   6.139 -0.8331 -1.4243  0.4502
19420THY    CA466280   4.050   4.284   6.085  0.1196  0.4683 -0.1632
19420THY    HA466281   4.095   4.197   6.037 -2.9617 -0.8009 -1.2233
19420THY    CA566282   4.125   4.399   6.092 -0.1261 -0.7337  0.3028
19420THY    CM166283   4.273   4.394   6.046 -0.4755  0.7585  0.1952
19420THY    HM166284   4.344   4.349   6.115  1.4398 -1.3013 -0.1338
19420THY    HM266285   4.313   4.493   6.020 -0.7319  0.6402  0.2711
19420THY    HM366286   4.292   4.333   5.957 -1.5851  0.1369  0.7193
19420THY    CA666287   4.072   4.509   6.155 -0.5244  0.2272 -0.3143
19420THY    HA666288   4.139   4.594   6.163  0.6662 -2.4435 -0.8899
19421THY      O66289   8.625   5.494   7.055 -0.1379 -0.2252 -0.0758
19421THY     HO66290   8.625   5.567   6.990 -0.5767 -1.5062 -1.1630
19421THY    CA166291   8.538   5.412   7.004 -0.2065  0.4247  0.1880
19421THY    CA266292   8.566   5.274   7.008 -0.1620  0.0113 -0.4118
19421THY    CP166293   8.652   5.218   7.120  1.1309 -0.0246  0.3888
19421THY    HP166294   8.669   5.300   7.191  0.2542  0.6226  0.0282
19421THY    CP266295   8.796   5.183   7.064 -0.0062 -0.4123 -0.7283
19421THY    HP266296   8.852   5.123   7.137  0.6828  0.1758  0.5962
19421THY    HP366297   8.852   5.276   7.047 -0.2104  2.3898 -0.0127
19421THY    HP466298   8.795   5.125   6.971 -0.3205  0.0109 -1.4175
19421THY    CP366299   8.596   5.102   7.201 -0.0047 -0.3792 -0.0009
19421THY    HP566300   8.667   5.078   7.281  1.4167 -1.0174  1.8621
19421THY    HP666301   8.582   5.007   7.148  0.6403 -0.8939  0.1844
19421THY    HP766302   8.494   5.132   7.230  0.3963 -0.0798  1.1108
19421THY    CA366303   8.489   5.188   6.940 -0.3083 -0.0778 -0.8377
19421THY    HA366304   8.507   5.081   6.945  0.9971  0.2673 -0.6234
19421THY    CA466305   8.388   5.243   6.852 -0.4678  0.1451 -0.1642
19421THY    HA466306   8.325   5.172   6.798  0.6383 -1.0301 -0.2929
19421THY    CA566307   8.360   5.379   6.836 -0.2703  0.1914 -0.6872
19421THY    CM166308   8.245   5.437   6.762 -0.6188  0.3046 -0.7448
19421THY    HM166309   8.286   5.532   6.725  0.5489  0.6109 -1.1152
19421THY    HM266310   8.155   5.451   6.824 -0.8489  0.1475 -1.4806
19421THY    HM366311   8.209   5.375   6.679 -1.3108  0.1923 -0.2148
19421THY    CA666312   8.441   5.465   6.918  0.2172 -0.1905  0.5064
19421THY    HA666313   8.420   5.571   6.914 -0.4820  2.3548  0.5526
19422THY      O66314   0.579   8.821   3.789 -0.6660 -0.0162 -0.0387
19422THY     HO66315   0.573   8.858   3.699  0.5286  0.7956  2.3402
19422THY    CA166316   0.511   8.912   3.867 -0.5272  0.1159 -0.3195
19422THY    CA266317   0.509   8.893   4.005 -0.5482  0.1665 -0.0036
19422THY    CP166318   0.570   8.763   4.067 -0.1508  0.6550 -0.1009
19422THY    HP166319   0.648   8.723   4.001 -0.4677  0.0231  0.3045
19422THY    CP266320   0.471   8.643   4.080 -0.1914 -0.1140 -0.1395
19422THY    HP266321   0.442   8.616   4.182 -1.7176  0.2739  2.5927
19422THY    HP366322   0.534   8.560   4.047  0.2571  0.7224 -0.1387
19422THY    HP466323   0.390   8.653   4.006  1.2725 -1.7174  0.3452
19422THY    CP366324   0.635   8.790   4.200  0.2111 -0.7976 -0.0799
19422THY    HP566325   0.720   8.721   4.205  0.0998 -0.9499 -0.2260
19422THY    HP666326   0.569   8.768   4.285 -0.4220 -1.5668 -1.2140
19422THY    HP766327   0.683   8.888   4.210  1.9364  0.5721 -0.9957
19422THY    CA366328   0.447   8.999   4.086  0.3558  0.5418 -0.1554
19422THY    HA366329   0.448   8.999   4.195  1.4531  0.5490  0.6726
19422THY    CA466330   0.380   9.100   4.023  0.8818  0.9300 -0.2477
19422THY    HA466331   0.331   9.176   4.084 -1.1550 -0.8433 -0.0194
19422THY    CA566332   0.388   9.114   3.884  0.5660  0.5667  0.6349
19422THY    CM166333   0.324   9.235   3.825  0.9472 -0.1420 -0.2002
19422THY    HM166334   0.218   9.249   3.848  0.2959 -2.3862 -0.9858
19422THY    HM266335   0.329   9.246   3.717  0.3371 -0.1327  0.1798
19422THY    HM366336   0.377   9.318   3.873 -2.1606  0.8477  1.3770
19422THY    CA666337   0.459   9.025   3.804  0.4498 -0.1278  0.3365
19422THY    HA666338   0.469   9.040   3.697  0.5437 -0.6171 -2.6194
19423THY      O66339   7.076   5.836   1.507  0.3879  0.3291  0.3855
19423THY     HO66340   7.130   5.771   1.459  1.9187  1.4932  0.7471
19423THY    CA166341   7.157   5.901   1.593  0.3144  0.2278  0.6023
19423THY    CA266342   7.115   5.949   1.724  0.3774 -0.0461  0.2681
19423THY    CP166343   6.975   5.919   1.769 -0.1108  0.3348 -0.7944
19423THY    HP166344   6.943   5.857   1.685  2.0962 -1.5300  0.3966
19423THY    CP266345   6.903   6.049   1.773  0.7445  0.1885 -0.9846
19423THY    HP266346   6.936   6.122   1.848 -0.9199 -2.3563  2.7313
19423THY    HP366347   6.796   6.026   1.778  0.7612 -2.2732 -1.8153
19423THY    HP466348   6.909   6.103   1.678 -1.5416  0.5582  0.0582
19423THY    CP366349   6.959   5.842   1.898 -0.7320  0.1795 -0.2373
19423THY    HP566350   6.959   5.904   1.988  0.1534 -0.7723  1.2057
19423THY    HP666351   7.038   5.766   1.904 -2.7384  0.4258 -2.4277
19423THY    HP766352   6.867   5.784   1.889 -1.2155 -0.4511  0.6059
19423THY    CA366353   7.208   6.000   1.808  0.0395  0.1654  0.0634
19423THY    HA366354   7.173   6.035   1.904 -1.7551 -1.5704  3.5367
19423THY    CA466355   7.340   6.014   1.762 -0.3405  0.2589 -0.1742
19423THY    HA466356   7.413   6.053   1.832 -0.8829  2.0688 -2.2047
19423THY    CA566357   7.382   5.974   1.631  0.9709 -0.4627  0.3762
19423THY    CM166358   7.525   5.975   1.595 -1.1624 -0.1442 -0.0903
19423THY    HM166359   7.540   6.047   1.514  0.7499  2.2709  2.4363
19423THY    HM266360   7.545   5.871   1.566 -2.1505  0.9319 -0.6069
19423THY    HM366361   7.582   6.005   1.683 -1.6503 -0.6396  2.5361
19423THY    CA666362   7.285   5.922   1.548  0.0704  1.1842 -0.3962
19423THY    HA666363   7.319   5.892   1.449  1.4435  1.6363 -0.3648
19424THY      O66364   6.108   3.828   4.482 -0.4589 -0.0712 -0.0541
19424THY     HO66365   6.169   3.836   4.558 -1.7364  0.9404  0.4717
19424THY    CA166366   6.084   3.695   4.467  1.0499  0.0694  0.4622
19424THY    CA266367   5.957   3.639   4.500 -0.5197 -0.2337 -0.0322
19424THY    CP166368   5.836   3.727   4.516 -0.5797 -0.1516  0.1258
19424THY    HP166369   5.855   3.818   4.458 -1.9743 -0.2238  0.3940
19424THY    CP266370   5.805   3.757   4.661 -0.6094 -0.4603 -0.0376
19424THY    HP266371   5.808   3.668   4.724  2.5347  0.4312  0.5549
19424THY    HP366372   5.707   3.806   4.662 -1.0392  0.3193 -0.8925
19424THY    HP466373   5.886   3.823   4.694 -0.6645 -0.0685 -0.1674
19424THY    CP366374   5.711   3.670   4.448 -0.2486 -0.2306 -0.0805
19424THY    HP566375   5.641   3.754   4.435 -0.3375 -1.0304 -0.2717
19424THY    HP666376   5.681   3.568   4.475  3.5763  0.1857 -1.2310
19424THY    HP766377   5.732   3.652   4.342  1.2957  0.2029 -0.9423
19424THY    CA366378   5.952   3.496   4.515  0.0145 -0.1387  0.1005
19424THY    HA366379   5.862   3.449   4.554 -0.3427  1.7911  2.2255
19424THY    CA466380   6.068   3.418   4.482  1.0823  0.0340  0.3489
19424THY    HA466381   6.066   3.310   4.497  0.0876  1.5226  0.5369
19424THY    CA566382   6.186   3.483   4.448  0.8316  0.6189 -0.3149
19424THY    CM166383   6.311   3.406   4.407  0.3728  0.0234  0.5873
19424THY    HM166384   6.298   3.385   4.300 -1.1394  0.4025 -0.6252
19424THY    HM266385   6.314   3.308   4.456 -0.1929 -1.7534 -0.3772
19424THY    HM366386   6.408   3.453   4.427  1.0202 -2.3869  0.4040
19424THY    CA666387   6.193   3.618   4.437  0.8875  0.0071 -0.2669
19424THY    HA666388   6.289   3.668   4.434  1.0539  0.5574 -0.5428
19425THY      O66389   0.176   7.117   4.894 -0.1028  0.4181  0.1530
19425THY     HO66390   0.148   7.051   4.960 -0.9915 -2.4608 -2.5780
19425THY    CA166391   0.223   7.228   4.961 -0.3943  0.7050  0.3811
19425THY    CA266392   0.277   7.338   4.894 -0.2953  0.1260  0.0171
19425THY    CP166393   0.310   7.340   4.746  0.7614  0.0362  0.0943
19425THY    HP166394   0.253   7.261   4.697  2.9781 -0.0174 -1.5798
19425THY    CP266395   0.458   7.299   4.734  0.5925 -0.2693 -0.1789
19425THY    HP266396   0.470   7.196   4.768 -2.5896  2.9127  0.2680
19425THY    HP366397   0.518   7.370   4.792  1.7376  0.2328 -1.5135
19425THY    HP466398   0.490   7.315   4.631 -1.6838 -1.1656 -0.9917
19425THY    CP366399   0.287   7.478   4.679  0.1188 -0.2087 -0.1226
19425THY    HP566400   0.384   7.529   4.687 -0.1805 -0.7186  0.5399
19425THY    HP666401   0.197   7.523   4.722  1.3412  2.4580 -0.0244
19425THY    HP766402   0.260   7.470   4.573  0.1493 -0.1585 -1.0204
19425THY    CA366403   0.321   7.446   4.969 -0.2581  0.1158 -0.0220
19425THY    HA366404   0.368   7.534   4.926 -0.7279 -0.5057 -0.0699
19425THY    CA466405   0.301   7.450   5.107 -0.1059  0.7501  0.0896
19425THY    HA466406   0.326   7.529   5.176  0.9037  1.3945 -0.7623
19425THY    CA566407   0.238   7.343   5.164 -0.4549 -0.2883  0.7793
19425THY    CM166408   0.213   7.332   5.311 -0.6536  0.4459  0.4385
19425THY    HM166409   0.126   7.393   5.338 -0.9847 -0.0784  0.2087
19425THY    HM266410   0.294   7.377   5.370  0.3571 -2.5141  2.8753
19425THY    HM366411   0.181   7.232   5.343  1.2462 -0.7279 -0.5971
19425THY    CA666412   0.196   7.232   5.093  0.7860  0.7025  0.2931
19425THY    HA666413   0.159   7.138   5.131 -1.4192 -0.4390  0.6313
19426THY      O66414   5.599   2.733   5.315  0.3852 -0.0929 -0.7588
19426THY     HO66415   5.646   2.694   5.391 -1.3688  1.7768  0.5646
19426THY    CA166416   5.602   2.863   5.342  0.4212  0.1522 -0.4942
19426THY    CA266417   5.598   2.974   5.247 -0.2170 -0.0024  0.3535
19426THY    CP166418   5.598   2.934   5.094  0.1606  0.0758  0.3569
19426THY    HP166419   5.524   2.855   5.083  0.6026  0.9000 -0.1798
19426THY    CP266420   5.738   2.888   5.050 -0.2507 -0.3408 -0.0316
19426THY    HP266421   5.784   2.811   5.113 -0.7339 -2.3120 -2.0251
19426THY    HP366422   5.802   2.976   5.061  1.2815  2.3292 -1.3394
19426THY    HP466423   5.728   2.843   4.951 -1.1152  0.4320 -1.6618
19426THY    CP366424   5.558   3.043   5.002 -0.2793 -0.3895 -0.2238
19426THY    HP566425   5.544   3.002   4.902 -3.1006 -1.3113  2.5761
19426THY    HP666426   5.629   3.124   4.982 -0.1406  0.8609 -0.0051
19426THY    HP766427   5.457   3.077   5.031 -0.1092  1.4773 -1.1959
19426THY    CA366428   5.606   3.107   5.288 -0.1102  0.3098 -0.1092
19426THY    HA366429   5.613   3.191   5.219  2.3043  0.9499  0.3043
19426THY    CA466430   5.623   3.130   5.429  0.7776 -0.4685 -0.1987
19426THY    HA466431   5.629   3.231   5.467 -1.8817 -0.1402 -0.0704
19426THY    CA566432   5.620   3.025   5.522 -0.3620 -0.3652 -0.2412
19426THY    CM166433   5.614   3.065   5.667  0.1367 -0.1028  0.0075
19426THY    HM166434   5.697   3.025   5.726 -0.3533 -0.4162 -1.5463
19426THY    HM266435   5.523   3.018   5.706 -1.0118 -3.4152 -0.7874
19426THY    HM366436   5.593   3.171   5.685 -0.3322  1.9731 -0.3995
19426THY    CA666437   5.613   2.891   5.481  0.6604 -0.7831  0.1993
19426THY    HA666438   5.624   2.815   5.558 -0.3330 -1.5636 -0.7661
19427THY      O66439   4.441   9.189   5.755  0.3167 -0.2935  0.3033
19427THY     HO66440   4.443   9.279   5.793  0.4307  1.2178 -0.3151
19427THY    CA166441   4.491   9.198   5.635 -0.0678  0.2588 -0.2698
19427THY    CA266442   4.463   9.105   5.534  0.2087  0.1513  0.4559
19427THY    CP166443   4.362   8.983   5.556 -0.0365 -0.5167  0.2705
19427THY    HP166444   4.324   8.999   5.657 -1.7679 -0.8992 -1.1295
19427THY    CP266445   4.445   8.845   5.560 -0.2163  0.4107 -0.2457
19427THY    HP266446   4.369   8.766   5.556  0.2181  1.4125 -0.7317
19427THY    HP366447   4.518   8.833   5.641  1.8930 -1.6421 -2.5266
19427THY    HP466448   4.500   8.824   5.467 -1.5661 -1.0362  2.1053
19427THY    CP366449   4.242   8.980   5.460  0.3980  0.6395  0.4915
19427THY    HP566450   4.251   8.901   5.384  0.6646 -1.5646  2.5048
19427THY    HP666451   4.232   9.076   5.408  0.6547 -1.5497 -0.6094
19427THY    HP766452   4.154   8.956   5.520  1.0327  0.8157 -1.5887
19427THY    CA366453   4.523   9.118   5.407  0.0188  0.0274  0.3700
19427THY    HA366454   4.505   9.057   5.320 -1.0110 -1.8972  3.1954
19427THY    CA466455   4.606   9.228   5.388 -0.2900  0.0262  0.1937
19427THY    HA466456   4.649   9.239   5.289  1.3620  0.9469  2.7309
19427THY    CA566457   4.645   9.312   5.486 -0.4443 -0.4180  0.1423
19427THY    CM166458   4.755   9.403   5.465 -0.9078  0.1812  0.1740
19427THY    HM166459   4.844   9.363   5.514 -0.3274 -0.7800  0.2397
19427THY    HM266460   4.725   9.493   5.521 -0.8125 -0.6064  0.7067
19427THY    HM366461   4.784   9.430   5.363 -0.5316  0.8619  2.6122
19427THY    CA666462   4.582   9.300   5.609 -0.5486 -0.4472 -0.1271
19427THY    HA666463   4.622   9.376   5.675  2.6852 -1.6501 -0.6208
19428THY      O66464   5.209   7.213   6.415 -0.2016 -0.1886 -0.1185
19428THY     HO66465   5.138   7.274   6.440  0.4298  0.3641  0.4111
19428THY    CA166466   5.161   7.137   6.319 -0.2147 -0.3796 -0.6499
19428THY    CA266467   5.230   7.032   6.265  0.6727 -0.3340  0.7592
19428THY    CP166468   5.371   7.000   6.306 -0.1950 -0.6567 -0.4418
19428THY    HP166469   5.399   7.063   6.390  1.3102 -0.5276 -1.2227
19428THY    CP266470   5.479   7.037   6.200 -0.4337  0.5953  0.5331
19428THY    HP266471   5.573   7.007   6.247  0.6975 -0.8349  1.7080
19428THY    HP366472   5.476   7.145   6.185  0.2671  1.0943  0.6324
19428THY    HP466473   5.465   6.974   6.112  1.0088  1.6850 -1.4251
19428THY    CP366474   5.379   6.856   6.363  0.4884 -0.7250 -0.1161
19428THY    HP566475   5.426   6.864   6.462 -2.3539  0.7973 -0.7608
19428THY    HP666476   5.425   6.783   6.296 -1.4730 -0.8697 -1.2816
19428THY    HP766477   5.277   6.822   6.383 -0.4566  2.2835  3.7197
19428THY    CA366478   5.168   6.933   6.180 -1.1888  0.1105  0.2708
19428THY    HA366479   5.226   6.849   6.144  1.6160  0.0830  2.0686
19428THY    CA466480   5.037   6.952   6.150  0.3658 -0.0418  0.1114
19428THY    HA466481   4.989   6.879   6.085  0.4572 -0.6072  0.5503
19428THY    CA566482   4.967   7.063   6.203  0.4287 -0.2660  0.4777
19428THY    CM166483   4.818   7.083   6.182 -0.0263 -0.5828  0.2274
19428THY    HM166484   4.812   7.151   6.097  0.7609 -0.8822 -0.0724
19428THY    HM266485   4.765   7.124   6.269 -0.0438  0.1041 -1.1764
19428THY    HM366486   4.764   6.992   6.152 -2.0799 -0.1371  1.2371
19428THY    CA666487   5.028   7.158   6.287 -0.7666  0.5304 -0.0860
19428THY    HA666488   4.968   7.238   6.330  1.6487 -0.7005  2.5692
19429THY      O66489   5.732   7.768   7.005  0.6876 -0.4081  0.3276
19429THY     HO66490   5.816   7.799   7.045 -0.2663  1.4671  0.6293
19429THY    CA166491   5.695   7.662   7.084 -0.0071  0.5189 -0.7128
19429THY    CA266492   5.558   7.619   7.115  0.3251 -0.1769 -0.1986
19429THY    CP166493   5.438   7.685   7.039  0.1386 -0.1238 -0.4617
19429THY    HP166494   5.458   7.793   7.034  1.6336  0.8983 -0.6583
19429THY    CP266495   5.306   7.674   7.118 -0.3700  0.0031 -0.0216
19429THY    HP266496   5.306   7.732   7.211  2.1294  1.3461 -1.9520
19429THY    HP366497   5.274   7.574   7.152 -1.1935  0.9459  0.5398
19429THY    HP466498   5.218   7.704   7.060 -1.6168  1.8467  0.0778
19429THY    CP366499   5.426   7.617   6.896 -0.7677 -0.5879  0.1238
19429THY    HP566500   5.321   7.592   6.876 -0.5425 -0.0353 -1.3909
19429THY    HP666501   5.478   7.522   6.878 -0.6273 -0.7648  0.2356
19429THY    HP766502   5.462   7.686   6.819 -0.8236 -1.0517 -0.3584
19429THY    CA366503   5.535   7.512   7.201  0.0199 -0.3638 -0.4486
19429THY    HA366504   5.438   7.478   7.238 -0.4434  0.3923  1.5336
19429THY    CA466505   5.642   7.450   7.259 -0.4541 -0.6956 -0.0324
19429THY    HA466506   5.635   7.381   7.342 -0.3893  1.1164  2.0534
19429THY    CA566507   5.770   7.490   7.234 -0.3785  0.2954  0.5057
19429THY    CM166508   5.893   7.419   7.292  0.1117 -0.3093  0.1390
19429THY    HM166509   5.957   7.379   7.212 -0.3385 -0.8042  0.3871
19429THY    HM266510   5.858   7.330   7.346  1.4651  1.3993  0.6003
19429THY    HM366511   5.940   7.474   7.374  0.7933  1.5541 -2.9916
19429THY    CA666512   5.800   7.603   7.152  0.6287 -0.0189  0.5354
19429THY    HA666513   5.904   7.631   7.140  0.7849 -0.1926 -0.0934
19430THY      O66514   3.101   7.074   6.182 -0.7353 -0.5554  0.0705
19430THY     HO66515   3.110   6.996   6.238 -1.7734 -0.9885 -0.3766
19430THY    CA166516   3.221   7.087   6.110 -0.0682  0.5870  0.7874
19430THY    CA266517   3.244   7.180   6.007 -0.0944 -0.3182  0.2530
19430THY    CP166518   3.136   7.281   5.976 -0.6324  0.3133  0.5535
19430THY    HP166519   3.035   7.241   5.989 -1.0533  0.3383  1.5958
19430THY    CP266520   3.137   7.319   5.825 -0.2709  0.3698 -0.4558
19430THY    HP266521   3.051   7.383   5.801 -0.4069 -0.2514 -0.8706
19430THY    HP366522   3.139   7.235   5.754  0.3465  0.1647 -0.2712
19430THY    HP466523   3.221   7.386   5.806 -1.0445  1.1397  0.7697
19430THY    CP366524   3.155   7.396   6.066  0.5110  0.6654  0.4728
19430THY    HP566525   3.261   7.422   6.077  0.4848 -1.2367  1.5684
19430THY    HP666526   3.122   7.351   6.160  0.3538 -0.0309 -0.9401
19430THY    HP766527   3.080   7.469   6.032 -2.6674  1.0346 -2.3762
19430THY    CA366528   3.367   7.181   5.940  0.2446  0.0527 -0.9564
19430THY    HA366529   3.387   7.256   5.864 -1.5215 -1.8126 -2.2664
19430THY    CA466530   3.469   7.100   5.986 -0.0521 -0.1225  0.3618
19430THY    HA466531   3.570   7.105   5.947 -0.0487 -0.0861  0.5714
19430THY    CA566532   3.449   7.002   6.085 -0.0878 -0.0832 -0.5254
19430THY    CM166533   3.568   6.907   6.110 -0.6049 -0.6233  0.0308
19430THY    HM166534   3.532   6.823   6.170  1.0146 -1.5733 -1.4098
19430THY    HM266535   3.654   6.962   6.150 -0.4899 -1.0665  0.1751
19430THY    HM366536   3.602   6.867   6.014 -0.0372 -0.3204 -0.2189
19430THY    CA666537   3.323   6.996   6.146 -0.4708 -0.5707 -0.4835
19430THY    HA666538   3.310   6.923   6.226 -1.5261 -0.4325 -0.1612
19431THY      O66539   3.059   2.533   6.812 -0.8196 -0.8733  0.4038
19431THY     HO66540   3.089   2.487   6.732  0.5702 -0.7703  1.0653
19431THY    CA166541   2.934   2.581   6.795  0.4317 -0.5389 -0.4470
19431THY    CA266542   2.889   2.700   6.856 -0.1715  0.2668  0.9477
19431THY    CP166543   2.977   2.772   6.952  0.0691 -0.3742  0.4809
19431THY    HP166544   3.075   2.726   6.971  0.6248 -0.4000  1.6151
19431THY    CP266545   2.926   2.782   7.094  0.0563 -0.4557 -0.4371
19431THY    HP266546   2.994   2.826   7.167 -2.7864  0.3180  3.2266
19431THY    HP366547   2.888   2.685   7.129 -2.1313  1.3583  0.9736
19431THY    HP466548   2.833   2.841   7.100 -0.0787 -1.5083 -0.5177
19431THY    CP366549   2.995   2.915   6.901 -0.9248  0.1926 -0.7791
19431THY    HP566550   3.055   2.979   6.966 -0.4615 -2.8715  2.1990
19431THY    HP666551   2.900   2.962   6.874 -1.3612  1.9550 -0.5988
19431THY    HP766552   3.056   2.910   6.809 -0.3674  0.5518 -0.6690
19431THY    CA366553   2.751   2.740   6.824  0.3570  0.4638 -0.3726
19431THY    HA366554   2.714   2.817   6.891  0.3454  1.6654 -1.4013
19431THY    CA466555   2.671   2.665   6.740  0.0349 -0.6094 -0.7085
19431THY    HA466556   2.571   2.700   6.716  0.7005 -2.1488  0.2233
19431THY    CA566557   2.719   2.548   6.689  0.6408  0.5084  0.2973
19431THY    CM166558   2.631   2.462   6.599  0.4083  0.3641  0.5147
19431THY    HM166559   2.522   2.458   6.609  0.2004 -1.7702 -0.9297
19431THY    HM266560   2.662   2.357   6.608 -0.0981  1.8348  0.4668
19431THY    HM366561   2.645   2.493   6.495 -0.6270 -0.2816 -1.0622
19431THY    CA666562   2.856   2.511   6.706 -0.7025 -0.1107  0.9648
19431THY    HA666563   2.898   2.421   6.662  1.1467  0.3432  1.5760
19432THY      O66564   7.046   3.192   7.890  0.2516  0.2037  0.1288
19432THY     HO66565   6.973   3.139   7.925  0.9457  1.9841  0.2748
19432THY    CA166566   7.143   3.101   7.866 -0.2691 -0.4963 -0.2253
19432THY    CA266567   7.269   3.142   7.822 -0.3991  0.6460  0.6050
19432THY    CP166568   7.294   3.294   7.809 -0.4026 -0.0247 -0.3326
19432THY    HP166569   7.262   3.342   7.902 -0.3510  0.0033 -0.3514
19432THY    CP266570   7.226   3.352   7.689 -0.4679  0.9658  0.2694
19432THY    HP266571   7.282   3.323   7.599 -0.8554  0.7817  0.0898
19432THY    HP366572   7.236   3.461   7.702 -1.0071  0.0051  0.4476
19432THY    HP466573   7.121   3.326   7.674 -0.2356  0.3815 -0.3423
19432THY    CP366574   7.440   3.344   7.811  0.2574 -0.6263  0.2603
19432THY    HP566575   7.498   3.288   7.737  1.5081  0.1546  0.4757
19432THY    HP666576   7.485   3.320   7.909  2.1113 -1.7881 -1.2694
19432THY    HP766577   7.457   3.449   7.784  1.9871  2.6213  0.9455
19432THY    CA366578   7.355   3.046   7.767 -0.1488  0.2986 -0.0309
19432THY    HA366579   7.451   3.075   7.727  0.6367  0.7656 -1.8477
19432THY    CA466580   7.317   2.913   7.776 -0.1287  0.0173  0.4005
19432THY    HA466581   7.387   2.837   7.742 -0.9365  2.3586 -1.5480
19432THY    CA566582   7.193   2.877   7.833  0.2494 -0.0175  0.5732
19432THY    CM166583   7.143   2.733   7.855 -0.3655 -0.4755 -0.3008
19432THY    HM166584   7.198   2.657   7.799  0.7283  2.3838 -1.7639
19432THY    HM266585   7.036   2.729   7.832 -0.2862 -0.6762 -1.5055
19432THY    HM366586   7.159   2.709   7.961  0.5820 -0.1459  1.5730
19432THY    CA666587   7.102   2.971   7.875 -1.2318 -0.4636 -0.5212
19432THY    HA666588   7.003   2.954   7.916 -1.6423 -0.0908  2.3462
19433THY      O66589   0.695   7.964   6.688 -0.0412  0.8598 -0.5806
19433THY     HO66590   0.643   8.033   6.644  0.5820  0.8582 -0.0967
19433THY    CA166591   0.746   8.001   6.803 -0.6005 -0.0558 -0.4037
19433THY    CA266592   0.833   7.921   6.879 -0.3020 -0.6815  0.0188
19433THY    CP166593   0.885   7.786   6.811  0.7365  0.0950 -0.6403
19433THY    HP166594   0.814   7.747   6.737 -0.4441  1.2099 -0.7106
19433THY    CP266595   0.902   7.670   6.910  0.2461  0.0872  0.0333
19433THY    HP266596   0.975   7.705   6.984  2.1568 -2.2811  1.3895
19433THY    HP366597   0.943   7.582   6.860  0.3515  0.2724 -0.0221
19433THY    HP466598   0.800   7.645   6.942  0.4981  0.9281  0.0638
19433THY    CP366599   1.026   7.800   6.743 -0.2556  0.0487 -0.0078
19433THY    HP566600   1.046   7.709   6.685  0.4993  2.1495 -1.2442
19433THY    HP666601   1.116   7.811   6.805  0.4379 -0.9215 -0.0362
19433THY    HP766602   1.034   7.881   6.669  1.1819 -0.3114 -0.4383
19433THY    CA366603   0.874   7.964   7.009 -0.0163 -0.3009 -0.3766
19433THY    HA366604   0.944   7.903   7.065 -2.5693 -0.5677 -3.8532
19433THY    CA466605   0.832   8.092   7.049 -0.0840 -0.0596  0.1971
19433THY    HA466606   0.859   8.138   7.144 -0.1776 -0.2272  0.5984
19433THY    CA566607   0.743   8.171   6.972 -0.1048  0.3027  0.0865
19433THY    CM166608   0.706   8.310   7.014 -0.5652 -0.1264 -0.7378
19433THY    HM166609   0.783   8.381   6.981 -0.1103  1.1619 -0.6062
19433THY    HM266610   0.691   8.317   7.122 -1.8102 -0.3881  1.6618
19433THY    HM366611   0.614   8.343   6.965  0.7551 -1.4911  1.1784
19433THY    CA666612   0.706   8.126   6.850  0.0589  0.3652 -0.3350
19433THY    HA666613   0.649   8.191   6.785  0.6391 -0.4846 -0.6498
19434THY      O66614   2.547   4.068   5.121  0.2680 -0.1801 -0.2124
19434THY     HO66615   2.600   4.145   5.146  2.7558 -0.4518 -1.6878
19434THY    CA166616   2.514   4.007   5.233 -0.3719  0.0556  0.6093
19434THY    CA266617   2.386   3.974   5.260  0.8230 -0.0232  0.5141
19434THY    CP166618   2.282   3.983   5.151  0.3736  0.3351  0.3501
19434THY    HP166619   2.312   4.042   5.063 -1.3158  1.0747  2.4626
19434THY    CP266620   2.156   4.055   5.204 -0.4971  0.3695  0.0105
19434THY    HP266621   2.094   4.070   5.115  0.1022 -0.3719 -1.6606
19434THY    HP366622   2.180   4.152   5.249 -0.7063 -0.0750  0.2736
19434THY    HP466623   2.091   3.988   5.263 -2.6243  0.4637  2.0353
19434THY    CP366624   2.252   3.847   5.110  0.8564  0.0590  0.2164
19434THY    HP566625   2.343   3.809   5.062 -0.3132 -0.8651 -1.5356
19434THY    HP666626   2.178   3.844   5.029  0.7163  0.1502  0.9468
19434THY    HP766627   2.218   3.777   5.188 -0.6423 -1.8400 -1.2835
19434THY    CA366628   2.353   3.922   5.388  0.2087 -0.7214 -0.3846
19434THY    HA366629   2.248   3.895   5.394 -0.4775 -1.2187  1.9083
19434THY    CA466630   2.447   3.916   5.490  0.5837  0.0520 -0.3840
19434THY    HA466631   2.413   3.887   5.589  0.3411  0.3306  0.7650
19434THY    CA566632   2.578   3.948   5.456 -0.0229  0.4998 -0.6495
19434THY    CM166633   2.687   3.949   5.560 -0.3463  0.1440 -0.0009
19434THY    HM166634   2.732   4.049   5.552 -1.1291 -3.5350  0.1882
19434THY    HM266635   2.763   3.873   5.539  0.1300 -0.5212  0.6425
19434THY    HM366636   2.648   3.922   5.659  0.5269  0.8084  1.0734
19434THY    CA666637   2.613   3.978   5.323 -0.1976 -0.6215 -0.6135
19434THY    HA666638   2.714   4.003   5.290 -0.8307 -2.0709  0.1978
   9.60500   9.60500   9.60500
